 Gaussian 16, Revision A.03,
 Gaussian 16:  ES64L-G16RevA.03 25-Dec-2016

 --------------------------------
 #p wB97XD/Def2SVP td=(nstates=5)
 --------------------------------

 --------------------------------
 TDDFT excited states in gaussian
 --------------------------------
 Symbolic Z-matrix:
 Charge =  0 Multiplicity = 1

                         Standard orientation:
 ---------------------------------------------------------------------
 Center     Atomic      Atomic             Coordinates (Angstroms)
 Number     Number       Type             X           Y           Z
 ---------------------------------------------------------------------
      1         12           0      -11.058027   -0.507349    0.259324
      2          6           0       -9.382232    2.461835    0.045959
      3          6           0      -11.619735   -0.265466   -3.246186
      4          6           0      -12.369430   -3.615005    0.352108
      5          6           0       -9.655411   -1.038407    3.403808
      6          7           0      -10.192830    0.829403   -1.528232
      7          6           0       -9.744800    2.091960   -1.279360
      8          6           0       -9.511638    2.815059   -2.576940
      9          6           0      -10.220263    1.903137   -3.670463
     10          6           0      -10.752707    0.716798   -2.806002
     11          6           0      -10.998905    2.610790   -4.718541
     12          6           0       -8.036357    3.305084   -2.962692
     13          6           0       -6.871291    2.489252   -2.486237
     14          1           0       -5.805863    2.138021   -3.515213
     15          7           0      -12.080691   -1.640610   -1.186128
     16          6           0      -12.229358   -1.381005   -2.513253
     17          6           0      -12.949178   -2.419793   -3.188828
     18          6           0      -13.287226   -3.377842   -2.099254
     19          6           0      -12.574264   -2.893399   -0.897072
     20          6           0      -13.315397   -2.506572   -4.593225
     21          6           0      -14.169659   -4.616497   -2.157539
     22          8           0      -14.569843   -5.019757   -3.191433
     23          6           0      -14.542745   -5.503508   -1.002186
     24          7           0      -10.905673   -2.113729    1.598812
     25          6           0      -11.689914   -3.195429    1.475362
     26          6           0      -11.356370   -4.278074    2.630187
     27          6           0      -10.799278   -3.266051    3.745945
     28          6           0      -10.391621   -2.116342    2.855684
     29          6           0      -12.537051   -5.126837    3.110063
     30          6           0       -9.727038   -3.903348    4.648049
     31          6           0       -9.799778   -3.761822    6.173012
     32          7           0       -9.685248    0.446489    1.452631
     33          6           0       -9.218697    0.164517    2.730558
     34          6           0       -8.457227    1.231748    3.252829
     35          6           0       -8.512131    2.213056    2.276826
     36          6           0       -9.280143    1.695536    1.174264
     37          6           0       -7.807390    1.324624    4.598775
     38          6           0       -8.197012    3.520323    1.874790
     39          8           0       -7.545598    4.353779    2.501121
     40          6           0       -8.576219    3.695363    0.376651
     41          6           0       -9.370961    4.992926    0.371786
     42          8           0       -9.131624    5.958882   -0.383476
     43          8           0      -10.439395    4.825276    1.220861
     44          6           0      -11.560446    5.795085    1.277370
     45          1           0      -11.648283   -0.193153   -4.335354
     46          1           0      -12.611803   -4.678801    0.309609
     47          1           0       -9.278934   -1.183478    4.418182
     48          1           0      -10.003481    3.786869   -2.521119
     49          1           0       -9.414171    1.412511   -4.215228
     50          1           0      -11.994597    2.195584   -4.873986
     51          1           0      -10.435392    2.725458   -5.644515
     52          1           0      -11.207280    3.627546   -4.385409
     53          1           0       -7.781565    4.298717   -2.593897
     54          1           0       -7.907705    3.245873   -4.043905
     55          1           0       -7.135134    1.640298   -1.856430
     56          1           0       -6.271114    3.141392   -1.850872
     57          1           0      -13.459872   -1.498068   -4.979455
     58          1           0      -14.215633   -3.089699   -4.783538
     59          1           0      -12.476077   -2.978291   -5.105501
     60          1           0      -14.541499   -4.702099   -0.262989
     61          1           0      -13.780041   -6.247380   -0.774013
     62          1           0      -15.499481   -6.022696   -1.061085
     63          1           0      -10.516155   -4.861045    2.251762
     64          1           0      -11.507659   -2.806503    4.434788
     65          1           0      -12.818488   -4.748309    4.093097
     66          1           0      -12.314029   -6.187034    2.993888
     67          1           0      -13.426012   -5.013577    2.490276
     68          1           0       -8.769078   -3.494736    4.325308
     69          1           0       -9.642567   -4.954429    4.371609
     70          1           0       -9.694823   -4.657005    6.786171
     71          1           0      -10.664533   -3.186538    6.506274
     72          1           0       -9.013166   -3.032784    6.364915
     73          1           0       -7.791931    2.325990    5.029718
     74          1           0       -6.780950    0.967918    4.510341
     75          1           0       -8.314881    0.735785    5.363975
     76          1           0       -7.603813    3.773800   -0.108006
     77          1           0      -12.528697    5.309615    1.398228
     78          1           0      -11.560449    6.365950    0.348675
     79          1           0      -11.586930    6.570962    2.041471
     80         12           0       11.094987   -0.635268   -0.223807
     81          6           0        8.142979    1.318568   -0.510833
     82          6           0       11.250723    0.533535    3.111108
     83          6           0       14.001617   -2.085762    0.079352
     84          6           0       10.858250   -1.393627   -3.609873
     85          7           0        9.818110    0.803460    1.170178
     86          6           0        8.621438    1.361274    0.792141
     87          6           0        7.904870    2.067921    1.930345
     88          6           0        9.011945    1.899461    3.057399
     89          6           0       10.085567    0.991738    2.437681
     90          6           0        9.460959    3.256956    3.590133
     91          6           0        6.573883    1.358599    2.263303
     92          6           0        5.341332    2.236752    2.703969
     93          1           0        5.616210    3.662036    3.238590
     94          7           0       12.419741   -0.832682    1.397869
     95          6           0       12.332426   -0.209932    2.643287
     96          6           0       13.496439   -0.623888    3.442678
     97          6           0       14.261673   -1.479626    2.584873
     98          6           0       13.517700   -1.510462    1.311070
     99          6           0       13.757250   -0.136097    4.766508
    100          6           0       15.573561   -2.197741    2.884899
    101          8           0       16.172546   -2.831517    2.001555
    102          6           0       16.075700   -2.306528    4.271022
    103          7           0       12.318021   -1.517692   -1.603969
    104          6           0       13.432216   -2.137785   -1.206542
    105          6           0       14.183997   -2.775262   -2.419937
    106          6           0       13.086319   -2.715263   -3.529187
    107          6           0       12.034235   -1.831148   -2.936594
    108          6           0       15.554550   -2.089017   -2.765063
    109          6           0       12.570895   -4.197467   -3.679590
    110          6           0       11.319767   -4.686022   -2.871281
    111          7           0        9.754026   -0.255029   -1.747209
    112          6           0        9.813037   -0.632417   -3.101019
    113          6           0        8.657469   -0.021865   -3.804057
    114          6           0        8.046166    0.770577   -2.839503
    115          6           0        8.666684    0.612452   -1.618376
    116          6           0        8.569639   -0.073405   -5.253213
    117          6           0        7.010076    1.790929   -2.700060
    118          8           0        6.283888    2.251445   -3.573717
    119          6           0        7.035698    2.226445   -1.160095
    120          6           0        7.284730    3.681595   -1.017792
    121          8           0        8.375982    4.216659   -0.844596
    122          8           0        6.056887    4.365969   -1.093389
    123          6           0        5.991590    5.809123   -1.044749
    124          1           0       11.248010    0.639365    4.198324
    125          1           0       14.960435   -2.607740    0.117012
    126          1           0       10.869841   -1.736800   -4.646196
    127          1           0        7.705942    3.117906    1.714175
    128          1           0        8.499877    1.458332    3.912118
    129          1           0        9.368816    3.380924    4.668563
    130          1           0        8.982472    4.129846    3.145980
    131          1           0       10.536674    3.313039    3.418200
    132          1           0        6.719153    0.606225    3.038407
    133          1           0        6.388681    0.839622    1.322203
    134          1           0        4.828208    1.772581    3.545536
    135          1           0        4.609273    2.114990    1.905632
    136          1           0       13.909770   -1.017136    5.390229
    137          1           0       13.035878    0.629933    5.049336
    138          1           0       14.661542    0.444040    4.579975
    139          1           0       16.471565   -1.370327    4.665779
    140          1           0       16.905480   -3.012490    4.299665
    141          1           0       15.222784   -2.523036    4.913618
    142          1           0       14.366725   -3.757848   -1.984860
    143          1           0       13.495768   -2.401033   -4.489574
    144          1           0       16.374170   -2.640679   -2.304446
    145          1           0       15.463253   -1.044378   -2.469338
    146          1           0       15.643726   -2.134116   -3.850344
    147          1           0       13.421667   -4.878255   -3.644651
    148          1           0       12.104086   -4.191000   -4.665001
    149          1           0       11.624118   -5.668570   -2.511795
    150          1           0       10.432941   -4.814161   -3.493280
    151          1           0       11.052636   -4.095363   -1.995672
    152          1           0        9.532110    0.222466   -5.668643
    153          1           0        7.830767    0.674274   -5.543342
    154          1           0        8.131492   -1.014097   -5.585616
    155          1           0        6.023974    2.000583   -0.821773
    156          1           0        5.945486    6.273655   -2.029428
    157          1           0        6.694887    6.214760   -0.317315
    158          1           0        5.058133    5.948194   -0.498641
 ---------------------------------------------------------------------

 SCF Done:  E(RwB97XD) =  -4070.55779984     A.U. after   19 cycles

 Excitation energies and oscillator strengths:

 Excited State   1:      Singlet-A      1.5766 eV  786.42 nm  f=0.3879  <S**2>=0.000
     309 -> 315       -0.17487
     311 -> 313        0.68654
     309 <- 315       -0.11856
 This state for optimization and/or second-order correction.
 Total Energy, E(TD-HF/TD-DFT) =  -4070.49986201
 Copying the excited state density for this state as the 1-particle RhoCI density.

 Excited State   2:      Singlet-A      1.6992 eV  729.65 nm  f=0.3676  <S**2>=0.000
     310 -> 316       -0.19456
     312 -> 314        0.67892
     310 <- 316       -0.11679

 Excited State   3:      Singlet-A      2.0920 eV  592.67 nm  f=0.1433  <S**2>=0.000
     309 -> 313        0.64993
     311 -> 315        0.25875

 Excited State   4:      Singlet-A      2.2204 eV  558.38 nm  f=0.0707  <S**2>=0.000
     310 -> 314        0.62145
     312 -> 316        0.32311

 Excited State   5:      Singlet-A      3.2657 eV  379.66 nm  f=0.0000  <S**2>=0.000
     312 -> 313        0.70700

 The electronic state is 1-A.
 Alpha  occ. eigenvalues --  -46.96294 -46.94763 -19.31468 -19.29099 -19.25312
 Alpha  occ. eigenvalues --  -19.24700 -19.24249 -19.23761 -19.23602 -19.22175
 Alpha  occ. eigenvalues --  -14.47165 -14.46666 -14.46637 -14.45776 -14.44601
 Alpha  occ. eigenvalues --  -14.44279 -14.44224 -14.43449 -10.44382 -10.43215
 Alpha  occ. eigenvalues --  -10.39286 -10.39242 -10.38345 -10.37459 -10.36562
 Alpha  occ. eigenvalues --  -10.36128 -10.35654 -10.34997 -10.34981 -10.34919
 Alpha  occ. eigenvalues --  -10.34851 -10.34756 -10.34692 -10.34689 -10.34471
 Alpha  occ. eigenvalues --  -10.34388 -10.34370 -10.34141 -10.34133 -10.33434
 Alpha  occ. eigenvalues --  -10.33167 -10.33099 -10.33094 -10.33036 -10.32958
 Alpha  occ. eigenvalues --  -10.32821 -10.32561 -10.32473 -10.32368 -10.32352
 Alpha  occ. eigenvalues --  -10.32132 -10.32094 -10.31963 -10.31865 -10.31849
 Alpha  occ. eigenvalues --  -10.31631 -10.31585 -10.31545 -10.31527 -10.31366
 Alpha  occ. eigenvalues --  -10.31364 -10.31351 -10.31271 -10.31265 -10.31136
 Alpha  occ. eigenvalues --  -10.30997 -10.30767 -10.30743 -10.30720 -10.30669
 Alpha  occ. eigenvalues --  -10.30638 -10.30359 -10.30335 -10.30254 -10.30212
 Alpha  occ. eigenvalues --  -10.30089 -10.29877 -10.29615 -10.29558 -10.29307
 Alpha  occ. eigenvalues --  -10.29122 -10.29044 -10.28998 -10.28923 -10.28845
 Alpha  occ. eigenvalues --  -10.28608  -3.22229  -3.20753  -1.95770  -1.95385
 Alpha  occ. eigenvalues --   -1.95168  -1.94349  -1.93888  -1.93710  -1.17878
 Alpha  occ. eigenvalues --   -1.16692  -1.13570  -1.11780  -1.11649  -1.11400
 Alpha  occ. eigenvalues --   -1.09475  -1.09320  -1.07204  -1.06733  -1.06424
 Alpha  occ. eigenvalues --   -1.06022  -1.05015  -1.04921  -1.04151  -1.03293
 Alpha  occ. eigenvalues --   -0.95734  -0.93850  -0.91806  -0.91724  -0.90606
 Alpha  occ. eigenvalues --   -0.90445  -0.90296  -0.90187  -0.89907  -0.89231
 Alpha  occ. eigenvalues --   -0.89175  -0.88571  -0.88026  -0.87777  -0.86438
 Alpha  occ. eigenvalues --   -0.85984  -0.85915  -0.85125  -0.84990  -0.84520
 Alpha  occ. eigenvalues --   -0.84089  -0.83789  -0.82933  -0.82679  -0.82548
 Alpha  occ. eigenvalues --   -0.82328  -0.80898  -0.80468  -0.79742  -0.78945
 Alpha  occ. eigenvalues --   -0.78895  -0.78681  -0.78650  -0.77605  -0.77425
 Alpha  occ. eigenvalues --   -0.76664  -0.75584  -0.74023  -0.73736  -0.73211
 Alpha  occ. eigenvalues --   -0.71983  -0.71374  -0.71075  -0.70781  -0.70319
 Alpha  occ. eigenvalues --   -0.69753  -0.68676  -0.68555  -0.68206  -0.67502
 Alpha  occ. eigenvalues --   -0.66848  -0.66681  -0.66564  -0.66361  -0.66358
 Alpha  occ. eigenvalues --   -0.66097  -0.65594  -0.63421  -0.62301  -0.62280
 Alpha  occ. eigenvalues --   -0.61452  -0.61232  -0.60974  -0.60853  -0.60045
 Alpha  occ. eigenvalues --   -0.59933  -0.59765  -0.59567  -0.59198  -0.59062
 Alpha  occ. eigenvalues --   -0.58497  -0.58212  -0.57794  -0.57396  -0.57248
 Alpha  occ. eigenvalues --   -0.57101  -0.57043  -0.56397  -0.56108  -0.55948
 Alpha  occ. eigenvalues --   -0.55879  -0.55653  -0.55272  -0.55221  -0.55099
 Alpha  occ. eigenvalues --   -0.55023  -0.54610  -0.54411  -0.54126  -0.54047
 Alpha  occ. eigenvalues --   -0.53749  -0.53715  -0.53624  -0.53357  -0.53317
 Alpha  occ. eigenvalues --   -0.53149  -0.53038  -0.52710  -0.52646  -0.52538
 Alpha  occ. eigenvalues --   -0.52419  -0.51906  -0.51838  -0.51621  -0.51615
 Alpha  occ. eigenvalues --   -0.51472  -0.51440  -0.51117  -0.50936  -0.50834
 Alpha  occ. eigenvalues --   -0.50752  -0.50356  -0.50260  -0.50136  -0.49954
 Alpha  occ. eigenvalues --   -0.49807  -0.49476  -0.49473  -0.49282  -0.49217
 Alpha  occ. eigenvalues --   -0.49140  -0.49033  -0.48803  -0.48768  -0.48554
 Alpha  occ. eigenvalues --   -0.48368  -0.48057  -0.47949  -0.47860  -0.47582
 Alpha  occ. eigenvalues --   -0.47459  -0.47257  -0.47230  -0.46938  -0.46843
 Alpha  occ. eigenvalues --   -0.46809  -0.46433  -0.46126  -0.46115  -0.46084
 Alpha  occ. eigenvalues --   -0.45939  -0.45920  -0.45742  -0.45486  -0.45297
 Alpha  occ. eigenvalues --   -0.45294  -0.45205  -0.44976  -0.44811  -0.44649
 Alpha  occ. eigenvalues --   -0.44556  -0.44360  -0.44356  -0.44030  -0.43930
 Alpha  occ. eigenvalues --   -0.43768  -0.43632  -0.43626  -0.43415  -0.43289
 Alpha  occ. eigenvalues --   -0.43199  -0.42824  -0.42469  -0.42451  -0.42149
 Alpha  occ. eigenvalues --   -0.42141  -0.41698  -0.41195  -0.40926  -0.40607
 Alpha  occ. eigenvalues --   -0.40401  -0.39937  -0.39631  -0.39425  -0.39291
 Alpha  occ. eigenvalues --   -0.39022  -0.38965  -0.38548  -0.38103  -0.37998
 Alpha  occ. eigenvalues --   -0.37566  -0.37518  -0.36789  -0.36030  -0.35924
 Alpha  occ. eigenvalues --   -0.35843  -0.35446  -0.35309  -0.33791  -0.33123
 Alpha  occ. eigenvalues --   -0.33089  -0.33059  -0.32694  -0.32573  -0.32320
 Alpha  occ. eigenvalues --   -0.31521  -0.31398  -0.30389  -0.26376  -0.25740
 Alpha  occ. eigenvalues --   -0.23511  -0.22517
 Alpha virt. eigenvalues --   -0.08030  -0.06415  -0.00012   0.00277   0.02346
 Alpha virt. eigenvalues --    0.02370   0.04083   0.04353   0.04841   0.06440
 Alpha virt. eigenvalues --    0.06666   0.07184   0.07378   0.07783   0.08383

 Mulliken charges:
               1
     1  Mg   0.958765
     2  C    0.008462
     3  C   -0.083329
     4  C   -0.083990
     5  C   -0.096873
     6  N   -0.330762
     7  C   -0.005331
     8  C   -0.018956
     9  C   -0.091863
    10  C    0.035726
    11  C    0.041592
    12  C   -0.010715
    13  C   -0.169365
    14  H    0.031255
    15  N   -0.448475
    16  C    0.171592
    17  C   -0.181667
    18  C   -0.096660
    19  C    0.137382
    20  C    0.086283
    21  C    0.013474
    22  O   -0.209769
    23  C   -0.014963
    24  N   -0.361563
    25  C    0.084156
    26  C   -0.139075
    27  C   -0.084258
    28  C    0.074774
    29  C    0.050085
    30  C   -0.015267
    31  C   -0.044710
    32  N   -0.442207
    33  C    0.139534
    34  C   -0.188265
    35  C    0.058681
    36  C    0.109791
    37  C    0.078609
    38  C    0.062368
    39  O   -0.216657
    40  C   -0.121402
    41  C    0.312885
    42  O   -0.256501
    43  O   -0.379269
    44  C    0.145021
    45  H    0.008644
    46  H    0.003723
    47  H   -0.014466
    48  H    0.042113
    49  H    0.050039
    50  H    0.035360
    51  H    0.041718
    52  H    0.026915
    53  H    0.059190
    54  H    0.045398
    55  H    0.064236
    56  H    0.055923
    57  H    0.031736
    58  H    0.063165
    59  H    0.053964
    60  H    0.032356
    61  H    0.070890
    62  H    0.057938
    63  H    0.056098
    64  H    0.040525
    65  H    0.038798
    66  H    0.039519
    67  H    0.032366
    68  H    0.030214
    69  H    0.027644
    70  H    0.056264
    71  H    0.025808
    72  H    0.030734
    73  H    0.060776
    74  H    0.060615
    75  H    0.031727
    76  H    0.065831
    77  H    0.053518
    78  H    0.053992
    79  H    0.058187
    80  Mg   0.958804
    81  C    0.014300
    82  C   -0.115973
    83  C   -0.071901
    84  C   -0.091860
    85  N   -0.268438
    86  C   -0.050224
    87  C   -0.080422
    88  C   -0.081137
    89  C    0.061324
    90  C    0.017868
    91  C   -0.000877
    92  C   -0.101217
    93  H    0.042284
    94  N   -0.420370
    95  C    0.160440
    96  C   -0.187143
    97  C   -0.089706
    98  C    0.145983
    99  C    0.087379
   100  C    0.060852
   101  O   -0.251634
   102  C   -0.004535
   103  N   -0.411517
   104  C    0.041730
   105  C   -0.106341
   106  C   -0.056809
   107  C    0.053145
   108  C    0.041998
   109  C   -0.057098
   110  C   -0.040270
   111  N   -0.481873
   112  C    0.164256
   113  C   -0.192699
   114  C   -0.021474
   115  C    0.159901
   116  C    0.078002
   117  C    0.119509
   118  O   -0.196705
   119  C   -0.104428
   120  C    0.295969
   121  O   -0.245809
   122  O   -0.392953
   123  C    0.148607
   124  H    0.010666
   125  H    0.016511
   126  H   -0.005147
   127  H    0.046217
   128  H    0.028793
   129  H    0.025165
   130  H    0.045516
   131  H    0.026954
   132  H    0.030567
   133  H    0.034305
   134  H    0.044046
   135  H    0.052613
   136  H    0.062208
   137  H    0.037770
   138  H    0.061527
   139  H    0.050575
   140  H    0.063332
   141  H    0.049811
   142  H    0.039206
   143  H    0.036074
   144  H    0.056170
   145  H    0.049531
   146  H    0.029554
   147  H    0.044546
   148  H    0.027396
   149  H    0.033283
   150  H    0.043531
   151  H    0.047402
   152  H    0.057761
   153  H    0.044454
   154  H    0.045772
   155  H    0.075303
   156  H    0.071732
   157  H    0.047236
   158  H    0.040679
 Sum of Mulliken charges =  -0.00000

 Dipole moment (field-independent basis, Debye):
    X=             -1.6575    Y=             -2.9685    Z=              7.5542  Tot=              8.2840
 Quadrupole moment (field-independent basis, Debye-Ang):
   XX=           -477.8386   YY=           -526.5076   ZZ=           -470.1063
   XY=            -23.4679   XZ=            -13.8446   YZ=            -12.7965

 Normal termination of Gaussian 16 at Sat Sep 18 21:42:06 2021.
