 Gaussian 16, Revision A.03,
 Gaussian 16:  ES64L-G16RevA.03 25-Dec-2016

 --------------------------------
 #p wB97XD/Def2SVP td=(nstates=5)
 --------------------------------

 --------------------------------
 TDDFT excited states in gaussian
 --------------------------------
 Symbolic Z-matrix:
 Charge =  0 Multiplicity = 1

                         Standard orientation:
 ---------------------------------------------------------------------
 Center     Atomic      Atomic             Coordinates (Angstroms)
 Number     Number       Type             X           Y           Z
 ---------------------------------------------------------------------
      1         12           0       -4.915473    0.667434   -0.108062
      2          6           0       -2.933479   -2.177050   -0.804883
      3          6           0       -7.585093   -1.426773    0.357231
      4          6           0       -6.882921    3.331445   -0.104004
      5          6           0       -2.215451    2.667320   -1.088775
      6          7           0       -5.254269   -1.546739   -0.374150
      7          6           0       -4.247791   -2.499208   -0.554558
      8          6           0       -4.800488   -3.913971   -0.252541
      9          6           0       -6.308723   -3.643607    0.100401
     10          6           0       -6.433984   -2.094980    0.076945
     11          6           0       -7.351410   -4.463511   -0.639238
     12          6           0       -4.066055   -4.720920    0.829444
     13          6           0       -3.585221   -6.119694    0.354771
     14          1           0       -4.071693   -7.289595    1.180997
     15          7           0       -6.956365    0.894403    0.187681
     16          6           0       -7.915042   -0.065342    0.329978
     17          6           0       -9.152979    0.597788    0.663969
     18          6           0       -8.993841    2.022207    0.384057
     19          6           0       -7.564835    2.091875    0.120005
     20          6           0      -10.516843   -0.212646    0.969910
     21          6           0       -9.972612    3.080754    0.107091
     22          8           0       -9.753053    4.238415   -0.109398
     23          6           0      -11.434702    2.645343    0.080079
     24          7           0       -4.608340    2.707775   -0.751658
     25          6           0       -5.582977    3.622419   -0.582224
     26          6           0       -5.028971    5.039974   -0.743268
     27          6           0       -3.508736    4.818075   -0.694546
     28          6           0       -3.402588    3.314024   -0.812574
     29          6           0       -5.501791    5.698309   -2.119737
     30          6           0       -2.967062    5.304807    0.744624
     31          6           0       -3.329431    4.389443    1.945884
     32          7           0       -2.901067    0.408990   -0.704220
     33          6           0       -1.957696    1.301317   -1.046283
     34          6           0       -0.754940    0.581415   -1.368225
     35          6           0       -1.077425   -0.756473   -1.239042
     36          6           0       -2.428075   -0.845589   -0.891203
     37          6           0        0.597331    1.119144   -1.796000
     38          6           0       -0.482578   -2.082468   -1.426643
     39          8           0        0.539177   -2.558837   -1.834141
     40          6           0       -1.634474   -3.061582   -1.077548
     41          6           0       -1.827486   -3.896611   -2.289092
     42          8           0       -2.032403   -3.400782   -3.368497
     43          8           0       -1.659683   -5.252575   -2.058595
     44          6           0       -1.542196   -6.125645   -3.274198
     45          1           0       -8.367171   -2.105020    0.705133
     46          1           0       -7.460276    4.252710    0.001669
     47          1           0       -1.271691    3.205445   -1.199465
     48          1           0       -4.819708   -4.485367   -1.180802
     49          1           0       -6.481545   -3.995372    1.117690
     50          1           0       -6.927720   -4.931371   -1.526654
     51          1           0       -8.240280   -3.896490   -0.916970
     52          1           0       -7.606666   -5.287385    0.026753
     53          1           0       -4.611288   -4.972222    1.739223
     54          1           0       -3.198214   -4.173188    1.196090
     55          1           0       -2.506465   -6.140061    0.200293
     56          1           0       -4.018890   -6.297344   -0.628516
     57          1           0      -10.953401    0.202889    1.878054
     58          1           0      -10.409495   -1.276689    1.177183
     59          1           0      -11.284367   -0.257073    0.197267
     60          1           0      -11.606528    2.285776    1.094888
     61          1           0      -11.470551    1.844388   -0.657680
     62          1           0      -12.147424    3.451351   -0.097237
     63          1           0       -5.271348    5.700147    0.090192
     64          1           0       -2.867771    5.219435   -1.479828
     65          1           0       -5.538641    6.775780   -1.956974
     66          1           0       -6.478738    5.425910   -2.520511
     67          1           0       -4.697052    5.459470   -2.814872
     68          1           0       -3.271881    6.322373    0.988269
     69          1           0       -1.880848    5.217258    0.772265
     70          1           0       -3.114490    4.802433    2.930881
     71          1           0       -2.744133    3.475044    1.847612
     72          1           0       -4.387330    4.139342    1.859487
     73          1           0        1.091897    1.738545   -1.048115
     74          1           0        0.362274    1.740297   -2.659907
     75          1           0        1.263895    0.338729   -2.163035
     76          1           0       -1.208521   -3.670712   -0.280486
     77          1           0       -2.193802   -6.939083   -2.955098
     78          1           0       -0.532584   -6.504413   -3.432234
     79          1           0       -1.839238   -5.749023   -4.252666
     80         12           0        4.915021    0.704458    0.315951
     81          6           0        2.769872   -1.966438    1.144723
     82          6           0        7.335906   -1.671943   -0.344854
     83          6           0        7.140928    3.191402   -0.401709
     84          6           0        2.587442    2.906873    1.316456
     85          7           0        5.025236   -1.592230    0.359947
     86          6           0        3.993648   -2.493042    0.595673
     87          6           0        4.414607   -3.894557    0.201576
     88          6           0        5.978577   -3.789889    0.082456
     89          6           0        6.109078   -2.284913    0.013503
     90          6           0        6.802314   -4.497875    1.228522
     91          6           0        3.820108   -4.350873   -1.139135
     92          6           0        3.435280   -5.832109   -1.217978
     93          1           0        4.570520   -6.893343   -1.227076
     94          7           0        6.913544    0.764092   -0.371064
     95          6           0        7.684890   -0.337484   -0.519557
     96          6           0        9.009172    0.076515   -0.852391
     97          6           0        9.014606    1.502538   -1.035322
     98          6           0        7.694394    1.867790   -0.552924
     99          6           0       10.135205   -0.905075   -1.023026
    100          6           0       10.120273    2.474099   -1.448589
    101          8           0        9.877890    3.672381   -1.713015
    102          6           0       11.590942    2.074711   -1.489688
    103          7           0        4.836073    2.730618    0.354079
    104          6           0        5.895331    3.592047    0.084792
    105          6           0        5.462172    4.995802    0.358042
    106          6           0        3.971032    4.994609    0.852777
    107          6           0        3.728111    3.477192    0.812475
    108          6           0        6.453828    5.825836    1.227624
    109          6           0        2.973350    5.768770   -0.035737
    110          6           0        2.697937    7.203316    0.454855
    111          7           0        3.106665    0.574126    1.105768
    112          6           0        2.175477    1.558552    1.433660
    113          6           0        0.853986    0.982589    1.882783
    114          6           0        1.119715   -0.393578    1.795094
    115          6           0        2.441009   -0.594856    1.281177
    116          6           0       -0.381533    1.756865    2.304424
    117          6           0        0.488763   -1.685091    2.021510
    118          8           0       -0.624365   -1.974419    2.462289
    119          6           0        1.532745   -2.749588    1.476208
    120          6           0        1.701692   -3.771649    2.617537
    121          8           0        1.766532   -3.524139    3.804009
    122          8           0        1.599727   -5.054374    2.082511
    123          6           0        1.740526   -6.106110    3.089721
    124          1           0        8.050669   -2.449666   -0.621140
    125          1           0        7.764728    4.062709   -0.610754
    126          1           0        1.938068    3.678340    1.734682
    127          1           0        4.191215   -4.661202    0.943094
    128          1           0        6.397538   -4.239986   -0.817576
    129          1           0        6.215446   -5.084670    1.935762
    130          1           0        7.374715   -3.848373    1.890363
    131          1           0        7.494969   -5.228103    0.810042
    132          1           0        4.502105   -4.148380   -1.964633
    133          1           0        2.885375   -3.828529   -1.343911
    134          1           0        2.770027   -6.035419   -2.057032
    135          1           0        2.791199   -6.117545   -0.386500
    136          1           0       10.041281   -1.507734   -0.119529
    137          1           0       11.152917   -0.515007   -1.023732
    138          1           0       10.039348   -1.566385   -1.883875
    139          1           0       11.886223    1.584274   -0.561974
    140          1           0       12.080567    3.037391   -1.635988
    141          1           0       11.784050    1.369167   -2.297774
    142          1           0        5.594823    5.547145   -0.573327
    143          1           0        3.825842    5.305358    1.888208
    144          1           0        7.267002    5.163401    1.525116
    145          1           0        5.936199    6.161940    2.125667
    146          1           0        6.794984    6.614103    0.555711
    147          1           0        2.092868    5.138261   -0.157481
    148          1           0        3.398587    5.958657   -1.021484
    149          1           0        3.535207    7.553529    1.058855
    150          1           0        1.850422    7.335333    1.127711
    151          1           0        2.638524    7.850780   -0.420497
    152          1           0       -0.811981    2.190815    1.401755
    153          1           0       -0.207113    2.586387    2.989392
    154          1           0       -1.055122    1.019157    2.740215
    155          1           0        1.238060   -3.278573    0.570072
    156          1           0        2.763102   -6.445826    3.256874
    157          1           0        1.103024   -6.907315    2.716133
    158          1           0        1.425902   -5.907064    4.114156
 ---------------------------------------------------------------------

 SCF Done:  E(RwB97XD) =  -4070.67662024     A.U. after   20 cycles

 Excitation energies and oscillator strengths:

 Excited State   1:      Singlet-A      1.5787 eV  785.37 nm  f=0.9280  <S**2>=0.000
     309 -> 316       -0.11472
     310 -> 315        0.11006
     311 -> 313        0.49912
     311 -> 314       -0.11812
     312 -> 313       -0.13381
     312 -> 314       -0.43728
 This state for optimization and/or second-order correction.
 Total Energy, E(TD-HF/TD-DFT) =  -4070.61860526
 Copying the excited state density for this state as the 1-particle RhoCI density.

 Excited State   2:      Singlet-A      1.6721 eV  741.50 nm  f=0.0112  <S**2>=0.000
     309 -> 315        0.10412
     310 -> 315       -0.10241
     311 -> 313        0.44672
     312 -> 313        0.13004
     312 -> 314        0.48969

 Excited State   3:      Singlet-A      2.1124 eV  586.93 nm  f=0.0631  <S**2>=0.000
     309 -> 313        0.48407
     309 -> 314       -0.19788
     310 -> 313        0.39452
     311 -> 316        0.22773

 Excited State   4:      Singlet-A      2.1756 eV  569.89 nm  f=0.1298  <S**2>=0.000
     309 -> 313       -0.22137
     309 -> 314       -0.29762
     310 -> 314        0.51384
     312 -> 315        0.27813

 Excited State   5:      Singlet-A      2.5074 eV  494.47 nm  f=0.0014  <S**2>=0.000
     312 -> 313        0.67003
     312 -> 314       -0.18709

 The electronic state is 1-A.
 Alpha  occ. eigenvalues --  -46.95578 -46.93841 -19.30834 -19.30387 -19.25190
 Alpha  occ. eigenvalues --  -19.25129 -19.24331 -19.24193 -19.24183 -19.23217
 Alpha  occ. eigenvalues --  -14.47082 -14.46420 -14.46277 -14.45775 -14.44379
 Alpha  occ. eigenvalues --  -14.44103 -14.43986 -14.43534 -10.43364 -10.42595
 Alpha  occ. eigenvalues --  -10.39776 -10.39458 -10.39155 -10.38119 -10.35669
 Alpha  occ. eigenvalues --  -10.35237 -10.35177 -10.35093 -10.34762 -10.34741
 Alpha  occ. eigenvalues --  -10.34717 -10.34591 -10.34567 -10.34485 -10.34294
 Alpha  occ. eigenvalues --  -10.34203 -10.34038 -10.33739 -10.33602 -10.33550
 Alpha  occ. eigenvalues --  -10.33126 -10.33039 -10.32909 -10.32847 -10.32761
 Alpha  occ. eigenvalues --  -10.32656 -10.32522 -10.32321 -10.32305 -10.32254
 Alpha  occ. eigenvalues --  -10.32077 -10.31951 -10.31945 -10.31878 -10.31803
 Alpha  occ. eigenvalues --  -10.31714 -10.31665 -10.31597 -10.31590 -10.31235
 Alpha  occ. eigenvalues --  -10.31168 -10.31152 -10.31036 -10.30963 -10.30916
 Alpha  occ. eigenvalues --  -10.30859 -10.30471 -10.30428 -10.30311 -10.30310
 Alpha  occ. eigenvalues --  -10.30234 -10.30193 -10.30137 -10.30115 -10.29973
 Alpha  occ. eigenvalues --  -10.29923 -10.29753 -10.29707 -10.29630 -10.29622
 Alpha  occ. eigenvalues --  -10.29540 -10.29531 -10.29513 -10.29365 -10.28891
 Alpha  occ. eigenvalues --  -10.28752  -3.21440  -3.20038  -1.95006  -1.94574
 Alpha  occ. eigenvalues --   -1.94402  -1.93631  -1.93142  -1.93056  -1.18310
 Alpha  occ. eigenvalues --   -1.17858  -1.14364  -1.13087  -1.11566  -1.11081
 Alpha  occ. eigenvalues --   -1.10253  -1.09829  -1.06962  -1.06507  -1.06083
 Alpha  occ. eigenvalues --   -1.05627  -1.05612  -1.04951  -1.03679  -1.03386
 Alpha  occ. eigenvalues --   -0.94328  -0.94120  -0.90908  -0.90683  -0.90623
 Alpha  occ. eigenvalues --   -0.90233  -0.90173  -0.89939  -0.89450  -0.89309
 Alpha  occ. eigenvalues --   -0.88879  -0.88274  -0.88058  -0.87958  -0.86049
 Alpha  occ. eigenvalues --   -0.85980  -0.85431  -0.85236  -0.84166  -0.83983
 Alpha  occ. eigenvalues --   -0.83506  -0.82897  -0.82766  -0.82674  -0.81914
 Alpha  occ. eigenvalues --   -0.81872  -0.80350  -0.80125  -0.79360  -0.79233
 Alpha  occ. eigenvalues --   -0.78860  -0.78443  -0.77888  -0.77835  -0.76918
 Alpha  occ. eigenvalues --   -0.76911  -0.74832  -0.74568  -0.73526  -0.73484
 Alpha  occ. eigenvalues --   -0.71176  -0.71153  -0.71036  -0.70763  -0.69861
 Alpha  occ. eigenvalues --   -0.69797  -0.69036  -0.68803  -0.67445  -0.67212
 Alpha  occ. eigenvalues --   -0.67167  -0.67050  -0.66905  -0.66366  -0.66234
 Alpha  occ. eigenvalues --   -0.66027  -0.64455  -0.64236  -0.62226  -0.62166
 Alpha  occ. eigenvalues --   -0.61949  -0.61480  -0.61128  -0.60821  -0.60487
 Alpha  occ. eigenvalues --   -0.60362  -0.60098  -0.59557  -0.59436  -0.59146
 Alpha  occ. eigenvalues --   -0.57950  -0.57703  -0.57348  -0.57222  -0.57050
 Alpha  occ. eigenvalues --   -0.56967  -0.56405  -0.56353  -0.56088  -0.55574
 Alpha  occ. eigenvalues --   -0.55239  -0.55053  -0.55002  -0.54920  -0.54707
 Alpha  occ. eigenvalues --   -0.54511  -0.54421  -0.54394  -0.53946  -0.53834
 Alpha  occ. eigenvalues --   -0.53716  -0.53692  -0.53613  -0.53405  -0.53001
 Alpha  occ. eigenvalues --   -0.52765  -0.52244  -0.52212  -0.52117  -0.52016
 Alpha  occ. eigenvalues --   -0.51924  -0.51746  -0.51487  -0.51342  -0.51104
 Alpha  occ. eigenvalues --   -0.51071  -0.51019  -0.50967  -0.50828  -0.50561
 Alpha  occ. eigenvalues --   -0.50227  -0.50118  -0.50058  -0.49976  -0.49722
 Alpha  occ. eigenvalues --   -0.49631  -0.49460  -0.49369  -0.49250  -0.49207
 Alpha  occ. eigenvalues --   -0.48945  -0.48498  -0.48450  -0.48310  -0.48248
 Alpha  occ. eigenvalues --   -0.47987  -0.47853  -0.47765  -0.47737  -0.47486
 Alpha  occ. eigenvalues --   -0.47424  -0.47299  -0.47053  -0.46974  -0.46730
 Alpha  occ. eigenvalues --   -0.46323  -0.46265  -0.46223  -0.46218  -0.46106
 Alpha  occ. eigenvalues --   -0.45754  -0.45516  -0.45492  -0.45384  -0.45231
 Alpha  occ. eigenvalues --   -0.45085  -0.44979  -0.44860  -0.44675  -0.44571
 Alpha  occ. eigenvalues --   -0.44519  -0.44190  -0.44160  -0.44064  -0.43801
 Alpha  occ. eigenvalues --   -0.43774  -0.43739  -0.43672  -0.43253  -0.43161
 Alpha  occ. eigenvalues --   -0.43004  -0.42995  -0.42543  -0.42464  -0.42246
 Alpha  occ. eigenvalues --   -0.42012  -0.41665  -0.41598  -0.41301  -0.40882
 Alpha  occ. eigenvalues --   -0.40594  -0.40108  -0.39783  -0.39717  -0.39678
 Alpha  occ. eigenvalues --   -0.39490  -0.39076  -0.38924  -0.38612  -0.38291
 Alpha  occ. eigenvalues --   -0.38079  -0.37892  -0.37006  -0.36797  -0.36112
 Alpha  occ. eigenvalues --   -0.35958  -0.35432  -0.35031  -0.33703  -0.33489
 Alpha  occ. eigenvalues --   -0.33385  -0.32999  -0.32966  -0.32734  -0.32248
 Alpha  occ. eigenvalues --   -0.32127  -0.32023  -0.31929  -0.25888  -0.25681
 Alpha  occ. eigenvalues --   -0.23130  -0.22766
 Alpha virt. eigenvalues --   -0.07365  -0.06795   0.00258   0.00750   0.01815
 Alpha virt. eigenvalues --    0.02713   0.03902   0.04779   0.05395   0.07043
 Alpha virt. eigenvalues --    0.07288   0.07622   0.07664   0.08118   0.08795

 Mulliken charges:
               1
     1  Mg   0.948966
     2  C   -0.023185
     3  C   -0.092835
     4  C   -0.066064
     5  C   -0.062404
     6  N   -0.372939
     7  C    0.008858
     8  C   -0.039169
     9  C   -0.103071
    10  C    0.077697
    11  C    0.021511
    12  C    0.007793
    13  C   -0.141370
    14  H    0.022191
    15  N   -0.445021
    16  C    0.174536
    17  C   -0.127808
    18  C   -0.082266
    19  C    0.150293
    20  C    0.018104
    21  C    0.023313
    22  O   -0.210914
    23  C   -0.005987
    24  N   -0.330724
    25  C    0.047879
    26  C   -0.087691
    27  C   -0.065897
    28  C    0.051087
    29  C    0.021982
    30  C   -0.039260
    31  C   -0.064766
    32  N   -0.410985
    33  C    0.062828
    34  C   -0.173417
    35  C   -0.071598
    36  C    0.185510
    37  C    0.081487
    38  C    0.137469
    39  O   -0.183768
    40  C   -0.053942
    41  C    0.250025
    42  O   -0.230972
    43  O   -0.380443
    44  C    0.125666
    45  H   -0.009770
    46  H    0.025146
    47  H   -0.005490
    48  H    0.038309
    49  H    0.035529
    50  H    0.029132
    51  H    0.042233
    52  H    0.031290
    53  H    0.043402
    54  H    0.053640
    55  H    0.067457
    56  H    0.032874
    57  H    0.048997
    58  H    0.027292
    59  H    0.053234
    60  H    0.041853
    61  H    0.056381
    62  H    0.049101
    63  H    0.041767
    64  H    0.039107
    65  H    0.039123
    66  H    0.057699
    67  H    0.036435
    68  H    0.044573
    69  H    0.021977
    70  H    0.047020
    71  H    0.038482
    72  H    0.040316
    73  H    0.064465
    74  H    0.036702
    75  H    0.056599
    76  H    0.059400
    77  H    0.054614
    78  H    0.057579
    79  H    0.073739
    80  Mg   0.997672
    81  C   -0.040715
    82  C   -0.109544
    83  C   -0.084792
    84  C   -0.107504
    85  N   -0.308905
    86  C    0.028310
    87  C   -0.035539
    88  C   -0.096834
    89  C    0.021518
    90  C    0.008159
    91  C    0.014444
    92  C   -0.118805
    93  H    0.006366
    94  N   -0.428234
    95  C    0.224605
    96  C   -0.179901
    97  C   -0.042959
    98  C    0.128441
    99  C    0.061636
   100  C    0.049356
   101  O   -0.257768
   102  C   -0.023908
   103  N   -0.456649
   104  C    0.110921
   105  C   -0.101149
   106  C   -0.053696
   107  C    0.059950
   108  C    0.015975
   109  C    0.001400
   110  C   -0.055686
   111  N   -0.479012
   112  C    0.121315
   113  C   -0.161967
   114  C   -0.056000
   115  C    0.177682
   116  C    0.080037
   117  C    0.154906
   118  O   -0.213805
   119  C   -0.130381
   120  C    0.267781
   121  O   -0.224494
   122  O   -0.366393
   123  C    0.126785
   124  H   -0.008234
   125  H    0.015846
   126  H   -0.013838
   127  H    0.027840
   128  H    0.040323
   129  H    0.033713
   130  H    0.040107
   131  H    0.033769
   132  H    0.036704
   133  H    0.061257
   134  H    0.048449
   135  H    0.047065
   136  H    0.046270
   137  H    0.026725
   138  H    0.059561
   139  H    0.061278
   140  H    0.063529
   141  H    0.063911
   142  H    0.042657
   143  H    0.042555
   144  H    0.044141
   145  H    0.033624
   146  H    0.043532
   147  H    0.031283
   148  H    0.028600
   149  H    0.025763
   150  H    0.039851
   151  H    0.040993
   152  H    0.046347
   153  H    0.044118
   154  H    0.063447
   155  H    0.082394
   156  H    0.043654
   157  H    0.055741
   158  H    0.063501
 Sum of Mulliken charges =  -0.00000

 Dipole moment (field-independent basis, Debye):
    X=              1.9453    Y=             -2.7990    Z=              0.9465  Tot=              3.5376
 Quadrupole moment (field-independent basis, Debye-Ang):
   XX=           -475.4607   YY=           -468.6620   ZZ=           -529.8771
   XY=              0.1923   XZ=             -4.9756   YZ=             12.2395

 Normal termination of Gaussian 16 at Sun Sep 19 16:51:06 2021.
