 Gaussian 16, Revision A.03,
 Gaussian 16:  ES64L-G16RevA.03 25-Dec-2016

 --------------------------------
 #p wB97XD/Def2SVP td=(nstates=5)
 --------------------------------

 --------------------------------
 TDDFT excited states in gaussian
 --------------------------------
 Symbolic Z-matrix:
 Charge =  0 Multiplicity = 1

                         Standard orientation:
 ---------------------------------------------------------------------
 Center     Atomic      Atomic             Coordinates (Angstroms)
 Number     Number       Type             X           Y           Z
 ---------------------------------------------------------------------
      1         12           0       21.357405   -0.806569    0.152112
      2          6           0       22.572054    2.286366   -0.873461
      3          6           0       18.213496    0.543513    0.341809
      4          6           0       20.287887   -3.767503    1.457189
      5          6           0       24.735042   -1.912971    0.124449
      6          7           0       20.501010    1.183437   -0.186739
      7          6           0       21.189685    2.241423   -0.718880
      8          6           0       20.164601    3.355197   -0.946254
      9          6           0       18.885247    2.880657   -0.280418
     10          6           0       19.215280    1.409302   -0.056447
     11          6           0       18.379073    3.577635    0.953881
     12          6           0       19.986275    3.829477   -2.466616
     13          6           0       18.795504    4.803050   -2.742065
     14          1           0       19.053975    6.330717   -2.667965
     15          7           0       19.480662   -1.532094    0.660320
     16          6           0       18.323564   -0.825768    0.702448
     17          6           0       17.312901   -1.719987    1.204443
     18          6           0       17.926152   -2.965288    1.530571
     19          6           0       19.281622   -2.802471    1.250322
     20          6           0       15.891086   -1.265467    1.325408
     21          6           0       17.238751   -4.178572    2.222007
     22          8           0       17.883238   -5.052558    2.773690
     23          6           0       15.798546   -4.308509    2.372993
     24          7           0       22.327399   -2.472423    0.667256
     25          6           0       21.692625   -3.615837    1.151400
     26          6           0       22.672211   -4.778592    1.387252
     27          6           0       23.971492   -4.240876    0.696643
     28          6           0       23.632313   -2.782099    0.438202
     29          6           0       22.728934   -5.328806    2.752152
     30          6           0       24.561640   -5.015702   -0.607770
     31          6           0       25.978166   -5.598042   -0.594175
     32          7           0       23.349540    0.030160   -0.239446
     33          6           0       24.582661   -0.556555   -0.184555
     34          6           0       25.608015    0.363666   -0.545132
     35          6           0       24.842252    1.534627   -0.915156
     36          6           0       23.472946    1.286347   -0.617629
     37          6           0       27.049582    0.028010   -0.602439
     38          6           0       24.952828    2.849303   -1.504233
     39          8           0       25.871250    3.489458   -1.977322
     40          6           0       23.408738    3.401679   -1.482621
     41          6           0       23.320760    4.748260   -0.862314
     42          8           0       23.541041    4.964994    0.309110
     43          8           0       22.955746    5.697733   -1.741579
     44          6           0       22.584103    7.053608   -1.181544
     45          1           0       17.201057    0.953208    0.352871
     46          1           0       19.919996   -4.703334    1.882615
     47          1           0       25.688025   -2.445628    0.154801
     48          1           0       20.636714    4.158984   -0.381502
     49          1           0       18.054224    2.995036   -0.975973
     50          1           0       18.627731    2.817725    1.694059
     51          1           0       17.322354    3.836787    0.886832
     52          1           0       18.986507    4.442331    1.221999
     53          1           0       19.818259    2.878088   -2.971768
     54          1           0       20.904420    4.299647   -2.816851
     55          1           0       17.981232    4.653123   -2.034243
     56          1           0       18.398881    4.571806   -3.730649
     57          1           0       15.630385   -0.277012    0.945851
     58          1           0       15.696245   -1.201840    2.395452
     59          1           0       15.175403   -1.993037    0.942091
     60          1           0       15.211753   -3.472602    2.752439
     61          1           0       15.462166   -5.186631    2.924065
     62          1           0       15.487939   -4.540022    1.354373
     63          1           0       22.196555   -5.499402    0.721647
     64          1           0       24.632839   -4.240486    1.562935
     65          1           0       22.408577   -6.362799    2.882764
     66          1           0       22.099785   -4.700548    3.383222
     67          1           0       23.729304   -5.344123    3.184548
     68          1           0       24.529496   -4.315483   -1.442275
     69          1           0       23.991787   -5.864199   -0.988379
     70          1           0       26.718370   -5.018399   -1.146346
     71          1           0       26.038245   -6.661977   -0.821615
     72          1           0       26.357020   -5.500539    0.423298
     73          1           0       27.310085   -0.528126    0.297779
     74          1           0       27.680301    0.904744   -0.747048
     75          1           0       27.167938   -0.757621   -1.349375
     76          1           0       23.133757    3.524845   -2.529649
     77          1           0       22.696579    7.695775   -2.054792
     78          1           0       23.278630    7.300982   -0.378965
     79          1           0       21.535879    6.992473   -0.888618
     80         12           0      -22.378664    0.367456   -0.311583
     81          6           0      -18.838367    0.524882    0.097321
     82          6           0      -21.807447   -2.002548   -2.562978
     83          6           0      -25.614615   -0.572623   -0.053947
     84          6           0      -22.554246    2.171557    2.756737
     85          7           0      -20.599743   -0.501933   -1.189789
     86          6           0      -19.231832   -0.244381   -0.954200
     87          6           0      -18.282944   -1.100599   -1.850778
     88          6           0      -19.310132   -1.863276   -2.734639
     89          6           0      -20.673593   -1.371510   -2.204447
     90          6           0      -18.978074   -1.549222   -4.202912
     91          6           0      -17.268922   -2.084566   -1.122484
     92          6           0      -15.784482   -1.770178   -1.267804
     93          1           0      -14.876658   -2.878066   -1.839913
     94          7           0      -23.571348   -0.982682   -1.217578
     95          6           0      -23.117301   -1.910825   -2.154411
     96          6           0      -24.197541   -2.623030   -2.707126
     97          6           0      -25.361936   -2.151694   -2.129345
     98          6           0      -24.928628   -1.228311   -1.100280
     99          6           0      -24.178971   -3.736986   -3.818720
    100          6           0      -26.736143   -2.624103   -2.542479
    101          8           0      -26.947686   -3.347042   -3.470253
    102          6           0      -27.962458   -1.974185   -1.731650
    103          7           0      -23.867520    0.676280    1.173024
    104          6           0      -25.141672    0.205859    1.007789
    105          6           0      -25.933890    0.544007    2.336454
    106          6           0      -25.056812    1.497570    3.164868
    107          6           0      -23.718824    1.446547    2.333134
    108          6           0      -27.359612    0.971109    2.131783
    109          6           0      -24.815990    0.896874    4.544223
    110          6           0      -24.451530    1.844317    5.656204
    111          7           0      -21.006491    1.410395    1.026929
    112          6           0      -21.238448    2.103607    2.190916
    113          6           0      -20.027466    2.649711    2.686293
    114          6           0      -18.990158    2.137688    1.871406
    115          6           0      -19.665995    1.288719    0.950063
    116          6           0      -19.835956    3.450186    3.911576
    117          6           0      -17.554074    2.034889    1.578995
    118          8           0      -16.611452    2.626891    2.121690
    119          6           0      -17.376629    1.004830    0.398256
    120          6           0      -16.936808    1.706820   -0.777938
    121          8           0      -17.728276    2.415785   -1.443461
    122          8           0      -15.617120    1.471605   -0.915540
    123          6           0      -14.940066    1.919605   -2.163303
    124          1           0      -21.656809   -2.759329   -3.336115
    125          1           0      -26.671100   -0.849061   -0.043570
    126          1           0      -22.558187    2.831405    3.626441
    127          1           0      -17.684797   -0.444761   -2.483315
    128          1           0      -19.292430   -2.942996   -2.589482
    129          1           0      -19.795223   -1.950001   -4.802002
    130          1           0      -18.046139   -1.969149   -4.581170
    131          1           0      -18.911247   -0.477480   -4.393348
    132          1           0      -17.380644   -3.021520   -1.668177
    133          1           0      -17.554795   -2.210969   -0.078206
    134          1           0      -15.419985   -1.471511   -0.284333
    135          1           0      -15.662671   -0.930973   -1.953547
    136          1           0      -24.715211   -4.584758   -3.391813
    137          1           0      -23.164253   -4.042346   -4.073599
    138          1           0      -24.560627   -3.440690   -4.795746
    139          1           0      -28.863533   -2.330118   -2.230231
    140          1           0      -27.777349   -0.904115   -1.828343
    141          1           0      -27.796297   -2.362608   -0.726897
    142          1           0      -25.986210   -0.420065    2.843577
    143          1           0      -25.425678    2.514389    3.299117
    144          1           0      -27.634538    1.643507    2.943974
    145          1           0      -27.949303    0.054267    2.144543
    146          1           0      -27.567967    1.391369    1.148570
    147          1           0      -24.063922    0.107361    4.541892
    148          1           0      -25.672925    0.323862    4.898310
    149          1           0      -24.591999    2.890683    5.385729
    150          1           0      -23.400875    1.682908    5.898249
    151          1           0      -24.943565    1.556412    6.585192
    152          1           0      -20.728731    4.024125    4.161882
    153          1           0      -19.002045    4.118135    3.694492
    154          1           0      -19.651101    2.724621    4.704047
    155          1           0      -16.774327    0.129665    0.642061
    156          1           0      -13.955562    2.168368   -1.764433
    157          1           0      -15.439220    2.746979   -2.666823
    158          1           0      -14.706720    1.077543   -2.815773
 ---------------------------------------------------------------------

 SCF Done:  E(RwB97XD) =  -4070.61330673     A.U. after   19 cycles

 Excitation energies and oscillator strengths:

 Excited State   1:      Singlet-A      1.6387 eV  756.61 nm  f=0.4046  <S**2>=0.000
     310 -> 315       -0.18463
     312 -> 313        0.68349
     310 <- 315       -0.11770
 This state for optimization and/or second-order correction.
 Total Energy, E(TD-HF/TD-DFT) =  -4070.55308661
 Copying the excited state density for this state as the 1-particle RhoCI density.

 Excited State   2:      Singlet-A      1.6724 eV  741.36 nm  f=0.3815  <S**2>=0.000
     309 -> 316       -0.17576
     311 -> 314        0.68531
     309 <- 316       -0.11222

 Excited State   3:      Singlet-A      2.1629 eV  573.23 nm  f=0.0920  <S**2>=0.000
     310 -> 313        0.63064
     312 -> 315        0.30292

 Excited State   4:      Singlet-A      2.2043 eV  562.47 nm  f=0.1141  <S**2>=0.000
     309 -> 314        0.63537
     311 -> 316        0.29114

 Excited State   5:      Singlet-A      3.2555 eV  380.84 nm  f=0.0003  <S**2>=0.000
     306 -> 313       -0.22772
     307 -> 313        0.64132

 The electronic state is 1-A.
 Alpha  occ. eigenvalues --  -46.94909 -46.94223 -19.31748 -19.29631 -19.24736
 Alpha  occ. eigenvalues --  -19.24630 -19.24103 -19.23812 -19.23716 -19.23195
 Alpha  occ. eigenvalues --  -14.47333 -14.47220 -14.46820 -14.46611 -14.44208
 Alpha  occ. eigenvalues --  -14.43687 -14.43081 -14.43023 -10.43373 -10.41793
 Alpha  occ. eigenvalues --  -10.39548 -10.39517 -10.39445 -10.38673 -10.36628
 Alpha  occ. eigenvalues --  -10.35854 -10.35748 -10.35661 -10.35549 -10.35140
 Alpha  occ. eigenvalues --  -10.35134 -10.35119 -10.34647 -10.34558 -10.34444
 Alpha  occ. eigenvalues --  -10.33861 -10.33743 -10.33739 -10.33594 -10.33055
 Alpha  occ. eigenvalues --  -10.32984 -10.32675 -10.32457 -10.32453 -10.32452
 Alpha  occ. eigenvalues --  -10.32241 -10.32203 -10.32176 -10.32106 -10.32015
 Alpha  occ. eigenvalues --  -10.32009 -10.31839 -10.31681 -10.31628 -10.31574
 Alpha  occ. eigenvalues --  -10.31484 -10.31373 -10.31323 -10.31314 -10.31232
 Alpha  occ. eigenvalues --  -10.31193 -10.31173 -10.31131 -10.31106 -10.31027
 Alpha  occ. eigenvalues --  -10.31003 -10.31003 -10.30964 -10.30951 -10.30911
 Alpha  occ. eigenvalues --  -10.30892 -10.30368 -10.30309 -10.30282 -10.30125
 Alpha  occ. eigenvalues --  -10.30095 -10.30013 -10.29728 -10.29690 -10.29588
 Alpha  occ. eigenvalues --  -10.29399 -10.29326 -10.29306 -10.29303 -10.29007
 Alpha  occ. eigenvalues --  -10.28894  -3.20948  -3.20299  -1.94514  -1.94052
 Alpha  occ. eigenvalues --   -1.93940  -1.93911  -1.93426  -1.93277  -1.18850
 Alpha  occ. eigenvalues --   -1.18010  -1.14265  -1.13195  -1.11735  -1.10917
 Alpha  occ. eigenvalues --   -1.09598  -1.08918  -1.07233  -1.06191  -1.06128
 Alpha  occ. eigenvalues --   -1.05336  -1.05278  -1.04884  -1.04413  -1.03798
 Alpha  occ. eigenvalues --   -0.94397  -0.94202  -0.91550  -0.91253  -0.91067
 Alpha  occ. eigenvalues --   -0.90720  -0.90577  -0.90276  -0.89495  -0.89325
 Alpha  occ. eigenvalues --   -0.88916  -0.88669  -0.88648  -0.88459  -0.86758
 Alpha  occ. eigenvalues --   -0.86534  -0.86166  -0.85602  -0.85226  -0.84560
 Alpha  occ. eigenvalues --   -0.84372  -0.83873  -0.83342  -0.83144  -0.82708
 Alpha  occ. eigenvalues --   -0.82298  -0.80762  -0.79715  -0.79687  -0.79372
 Alpha  occ. eigenvalues --   -0.79195  -0.78652  -0.78206  -0.77833  -0.77136
 Alpha  occ. eigenvalues --   -0.77096  -0.74770  -0.74766  -0.73795  -0.73746
 Alpha  occ. eigenvalues --   -0.71300  -0.71284  -0.70838  -0.70552  -0.70229
 Alpha  occ. eigenvalues --   -0.69756  -0.69276  -0.68933  -0.67694  -0.67539
 Alpha  occ. eigenvalues --   -0.67532  -0.67369  -0.67042  -0.66613  -0.66603
 Alpha  occ. eigenvalues --   -0.66205  -0.64255  -0.63421  -0.62530  -0.62222
 Alpha  occ. eigenvalues --   -0.61702  -0.61649  -0.61427  -0.60962  -0.60815
 Alpha  occ. eigenvalues --   -0.60500  -0.60231  -0.59965  -0.59229  -0.59182
 Alpha  occ. eigenvalues --   -0.58416  -0.58332  -0.58031  -0.57750  -0.57288
 Alpha  occ. eigenvalues --   -0.57003  -0.56716  -0.56664  -0.56486  -0.56238
 Alpha  occ. eigenvalues --   -0.55809  -0.55763  -0.55138  -0.55102  -0.54905
 Alpha  occ. eigenvalues --   -0.54859  -0.54539  -0.54466  -0.54394  -0.54230
 Alpha  occ. eigenvalues --   -0.54028  -0.53666  -0.53433  -0.53247  -0.53183
 Alpha  occ. eigenvalues --   -0.52914  -0.52768  -0.52486  -0.52452  -0.52309
 Alpha  occ. eigenvalues --   -0.52262  -0.52116  -0.51968  -0.51841  -0.51791
 Alpha  occ. eigenvalues --   -0.51381  -0.51255  -0.51206  -0.51046  -0.50923
 Alpha  occ. eigenvalues --   -0.50905  -0.50549  -0.50421  -0.50198  -0.50176
 Alpha  occ. eigenvalues --   -0.50009  -0.49647  -0.49495  -0.49449  -0.49374
 Alpha  occ. eigenvalues --   -0.49045  -0.48929  -0.48777  -0.48507  -0.48501
 Alpha  occ. eigenvalues --   -0.48403  -0.48276  -0.48173  -0.48067  -0.48019
 Alpha  occ. eigenvalues --   -0.47613  -0.47280  -0.47092  -0.47073  -0.47024
 Alpha  occ. eigenvalues --   -0.46921  -0.46736  -0.46720  -0.46325  -0.46281
 Alpha  occ. eigenvalues --   -0.46187  -0.46104  -0.45923  -0.45777  -0.45649
 Alpha  occ. eigenvalues --   -0.45476  -0.45288  -0.45280  -0.45025  -0.44791
 Alpha  occ. eigenvalues --   -0.44752  -0.44647  -0.44552  -0.44263  -0.43979
 Alpha  occ. eigenvalues --   -0.43869  -0.43728  -0.43619  -0.43589  -0.43463
 Alpha  occ. eigenvalues --   -0.43216  -0.42825  -0.42546  -0.42287  -0.42141
 Alpha  occ. eigenvalues --   -0.42104  -0.42034  -0.41440  -0.41186  -0.41128
 Alpha  occ. eigenvalues --   -0.40700  -0.40429  -0.40157  -0.39753  -0.39614
 Alpha  occ. eigenvalues --   -0.39289  -0.39211  -0.38892  -0.38811  -0.38282
 Alpha  occ. eigenvalues --   -0.38065  -0.37973  -0.36274  -0.36218  -0.36179
 Alpha  occ. eigenvalues --   -0.36040  -0.35232  -0.34970  -0.34058  -0.33257
 Alpha  occ. eigenvalues --   -0.33178  -0.33019  -0.32771  -0.32699  -0.32223
 Alpha  occ. eigenvalues --   -0.31902  -0.31216  -0.31099  -0.26246  -0.26124
 Alpha  occ. eigenvalues --   -0.23102  -0.22928
 Alpha virt. eigenvalues --   -0.07158  -0.07129   0.00037   0.00191   0.02617
 Alpha virt. eigenvalues --    0.02679   0.04753   0.04831   0.05411   0.06479
 Alpha virt. eigenvalues --    0.06717   0.07184   0.07342   0.07931   0.08059

 Mulliken charges:
               1
     1  Mg   0.970098
     2  C    0.026999
     3  C   -0.088544
     4  C   -0.071842
     5  C   -0.105486
     6  N   -0.331674
     7  C   -0.006687
     8  C   -0.044340
     9  C   -0.151512
    10  C    0.059715
    11  C    0.050725
    12  C    0.000338
    13  C   -0.115584
    14  H    0.029186
    15  N   -0.488234
    16  C    0.172481
    17  C   -0.166732
    18  C   -0.057470
    19  C    0.125887
    20  C    0.053341
    21  C    0.071600
    22  O   -0.233739
    23  C   -0.004466
    24  N   -0.422931
    25  C    0.060736
    26  C   -0.086699
    27  C   -0.053575
    28  C    0.048516
    29  C    0.042978
    30  C   -0.002773
    31  C   -0.069041
    32  N   -0.373940
    33  C    0.159929
    34  C   -0.166708
    35  C   -0.076280
    36  C    0.113130
    37  C    0.102545
    38  C    0.145456
    39  O   -0.193129
    40  C   -0.138600
    41  C    0.241261
    42  O   -0.254358
    43  O   -0.372493
    44  C    0.133540
    45  H   -0.016227
    46  H    0.028679
    47  H    0.001723
    48  H    0.035350
    49  H    0.021819
    50  H    0.039183
    51  H    0.043608
    52  H    0.038596
    53  H    0.034459
    54  H    0.060943
    55  H    0.043703
    56  H    0.059097
    57  H    0.039684
    58  H    0.049910
    59  H    0.047128
    60  H    0.056596
    61  H    0.050140
    62  H    0.049719
    63  H    0.038385
    64  H    0.031801
    65  H    0.040566
    66  H    0.046745
    67  H    0.027944
    68  H    0.036101
    69  H    0.035517
    70  H    0.039393
    71  H    0.045759
    72  H    0.018538
    73  H    0.034832
    74  H    0.072755
    75  H    0.044343
    76  H    0.067409
    77  H    0.062665
    78  H    0.082017
    79  H    0.059492
    80  Mg   0.984504
    81  C   -0.043464
    82  C   -0.131998
    83  C   -0.102535
    84  C   -0.063395
    85  N   -0.377777
    86  C    0.011558
    87  C   -0.047428
    88  C   -0.123596
    89  C    0.121287
    90  C    0.014123
    91  C    0.012427
    92  C   -0.135682
    93  H    0.033841
    94  N   -0.504772
    95  C    0.212575
    96  C   -0.172181
    97  C   -0.054766
    98  C    0.150141
    99  C    0.105844
   100  C    0.008173
   101  O   -0.195214
   102  C   -0.027977
   103  N   -0.393424
   104  C    0.110654
   105  C   -0.081202
   106  C   -0.082600
   107  C    0.108001
   108  C    0.029342
   109  C   -0.045223
   110  C   -0.025705
   111  N   -0.385724
   112  C    0.093555
   113  C   -0.223111
   114  C    0.000622
   115  C    0.116185
   116  C    0.079620
   117  C    0.129030
   118  O   -0.222443
   119  C   -0.072498
   120  C    0.292500
   121  O   -0.279980
   122  O   -0.349473
   123  C    0.124713
   124  H   -0.016769
   125  H   -0.040230
   126  H   -0.012818
   127  H    0.028297
   128  H    0.045429
   129  H    0.027701
   130  H    0.042759
   131  H    0.043025
   132  H    0.041032
   133  H    0.048442
   134  H    0.069466
   135  H    0.032955
   136  H    0.061844
   137  H    0.011471
   138  H    0.062684
   139  H    0.058203
   140  H    0.066240
   141  H    0.068563
   142  H    0.046825
   143  H    0.038446
   144  H    0.041361
   145  H    0.031669
   146  H    0.038565
   147  H    0.030387
   148  H    0.021548
   149  H    0.036115
   150  H    0.030071
   151  H    0.033001
   152  H    0.030661
   153  H    0.066791
   154  H    0.060798
   155  H    0.055710
   156  H    0.061684
   157  H    0.085147
   158  H    0.056399
 Sum of Mulliken charges =  -0.00000

 Dipole moment (field-independent basis, Debye):
    X=             -6.0158    Y=             -3.6112    Z=             -1.3814  Tot=              7.1512
 Quadrupole moment (field-independent basis, Debye-Ang):
   XX=           -653.0646   YY=           -511.4350   ZZ=           -509.9016
   XY=            -73.2773   XZ=            -46.5484   YZ=             -0.1080

 Normal termination of Gaussian 16 at Mon Sep 20 03:29:47 2021.
