 Gaussian 16, Revision A.03,
 Gaussian 16:  ES64L-G16RevA.03 25-Dec-2016

 --------------------------------
 #p wB97XD/Def2SVP td=(nstates=5)
 --------------------------------

 --------------------------------
 TDDFT excited states in gaussian
 --------------------------------
 Symbolic Z-matrix:
 Charge =  0 Multiplicity = 1

                         Standard orientation:
 ---------------------------------------------------------------------
 Center     Atomic      Atomic             Coordinates (Angstroms)
 Number     Number       Type             X           Y           Z
 ---------------------------------------------------------------------
      1         12           0      -19.914250   -0.532025    0.101571
      2          6           0      -19.526954    2.797895   -0.917783
      3          6           0      -18.699928    0.413410    3.290234
      4          6           0      -19.947467   -3.802162    1.015126
      5          6           0      -20.364820   -1.420055   -3.204395
      6          7           0      -19.377258    1.394002    1.057593
      7          6           0      -19.482586    2.646501    0.445917
      8          6           0      -19.479335    3.761602    1.552808
      9          6           0      -19.127946    2.972408    2.819312
     10          6           0      -19.010067    1.477473    2.359174
     11          6           0      -17.799920    3.494084    3.431224
     12          6           0      -20.834391    4.458567    1.544986
     13          6           0      -20.896296    5.905702    2.005590
     14          1           0      -19.672559    6.490452    2.746486
     15          7           0      -19.420454   -1.594665    1.884941
     16          6           0      -18.911690   -1.026310    3.068242
     17          6           0      -18.649061   -2.056418    4.057840
     18          6           0      -19.058985   -3.323100    3.482420
     19          6           0      -19.481204   -2.939876    2.067186
     20          6           0      -18.216954   -1.777281    5.503041
     21          6           0      -19.085597   -4.719957    4.072608
     22          8           0      -19.493734   -5.663380    3.408471
     23          6           0      -18.815080   -4.884199    5.518846
     24          7           0      -20.200206   -2.348391   -0.977866
     25          6           0      -20.259132   -3.555344   -0.349215
     26          6           0      -20.714180   -4.646605   -1.353262
     27          6           0      -20.918236   -3.878698   -2.716578
     28          6           0      -20.586034   -2.424489   -2.293059
     29          6           0      -19.671871   -5.776931   -1.424480
     30          6           0      -22.357126   -3.942908   -3.294147
     31          6           0      -22.398672   -4.968211   -4.423014
     32          7           0      -19.851139    0.397618   -1.771775
     33          6           0      -19.975237   -0.059380   -3.041316
     34          6           0      -19.621272    1.057935   -3.950205
     35          6           0      -19.546662    2.193486   -3.197935
     36          6           0      -19.650010    1.720553   -1.864799
     37          6           0      -19.597300    0.876765   -5.458627
     38          6           0      -19.394953    3.654625   -3.196179
     39          8           0      -19.223073    4.416048   -4.140390
     40          6           0      -19.469292    4.063945   -1.737857
     41          6           0      -18.296667    4.923282   -1.510671
     42          8           0      -17.106678    4.625306   -1.340753
     43          8           0      -18.723685    6.233139   -1.588023
     44          6           0      -17.709179    7.256741   -1.460958
     45          1           0      -18.400609    0.756915    4.282412
     46          1           0      -20.032840   -4.812578    1.420457
     47          1           0      -20.427865   -1.794708   -4.228244
     48          1           0      -18.658509    4.385886    1.197732
     49          1           0      -19.879920    3.248392    3.558482
     50          1           0      -16.960109    2.802248    3.364366
     51          1           0      -17.943301    3.484923    4.511343
     52          1           0      -17.478095    4.431969    2.978981
     53          1           0      -21.476964    3.796288    2.125945
     54          1           0      -21.260150    4.386236    0.544880
     55          1           0      -21.790836    6.038366    2.612611
     56          1           0      -21.066542    6.419106    1.058611
     57          1           0      -17.964453   -0.734416    5.695749
     58          1           0      -17.339020   -2.375974    5.749386
     59          1           0      -18.989297   -2.151915    6.173744
     60          1           0      -19.608729   -4.388267    6.078217
     61          1           0      -17.780894   -4.634294    5.755598
     62          1           0      -18.912919   -5.923259    5.833457
     63          1           0      -21.627235   -5.092864   -0.959865
     64          1           0      -20.132300   -4.255004   -3.372711
     65          1           0      -19.252128   -5.992759   -2.406568
     66          1           0      -20.309789   -6.614276   -1.142424
     67          1           0      -18.778207   -5.609130   -0.824046
     68          1           0      -22.577250   -3.036572   -3.858522
     69          1           0      -23.118963   -4.180370   -2.551398
     70          1           0      -23.287199   -5.558476   -4.199469
     71          1           0      -21.605898   -5.714636   -4.379743
     72          1           0      -22.455614   -4.554582   -5.430261
     73          1           0      -19.625621   -0.156762   -5.804741
     74          1           0      -18.734873    1.352132   -5.924297
     75          1           0      -20.541344    1.247555   -5.859425
     76          1           0      -20.406040    4.601206   -1.593289
     77          1           0      -16.909563    7.015706   -2.161867
     78          1           0      -17.283582    7.326508   -0.459668
     79          1           0      -18.129131    8.122021   -1.972699
     80         12           0       19.319915   -0.846606   -0.101667
     81          6           0       21.183443    2.130397   -0.416125
     82          6           0       17.242091    0.782127    2.098626
     83          6           0       17.538732   -3.663579    0.313757
     84          6           0       21.774985   -2.599164   -1.874900
     85          7           0       19.222820    1.231209    0.572528
     86          6           0       19.996514    2.295241    0.377535
     87          6           0       19.562885    3.600613    1.076491
     88          6           0       18.478990    2.941531    2.059850
     89          6           0       18.332068    1.521870    1.569309
     90          6           0       18.869179    2.994771    3.516988
     91          6           0       18.915742    4.712267    0.078995
     92          6           0       19.078782    6.146347    0.591131
     93          1           0       19.901523    7.065495   -0.348088
     94          7           0       17.497158   -1.362185    0.930643
     95          6           0       16.826381   -0.510467    1.842906
     96          6           0       15.563714   -1.143590    2.150407
     97          6           0       15.606635   -2.432403    1.626275
     98          6           0       16.906117   -2.552740    0.893705
     99          6           0       14.528054   -0.553245    3.088673
    100          6           0       14.596376   -3.556611    1.643420
    101          8           0       14.823534   -4.568382    1.046724
    102          6           0       13.271314   -3.424420    2.325531
    103          7           0       19.690378   -2.876409   -0.511225
    104          6           0       18.763852   -3.857585   -0.309818
    105          6           0       19.350136   -5.148768   -0.945330
    106          6           0       20.298987   -4.688152   -2.037318
    107          6           0       20.666928   -3.298025   -1.467283
    108          6           0       20.135287   -5.921769    0.113371
    109          6           0       19.711351   -4.659329   -3.399618
    110          6           0       18.353457   -4.033134   -3.599840
    111          7           0       21.107663   -0.386366   -1.015378
    112          6           0       22.017418   -1.177049   -1.691875
    113          6           0       23.125878   -0.330156   -2.158995
    114          6           0       22.811065    0.959971   -1.697973
    115          6           0       21.617800    0.874096   -1.034103
    116          6           0       24.314548   -0.777253   -2.894599
    117          6           0       23.162330    2.353251   -1.763401
    118          8           0       24.115569    2.940406   -2.354632
    119          6           0       22.057201    3.160853   -0.931825
    120          6           0       22.788683    3.844032    0.194464
    121          8           0       23.576412    3.279455    0.894061
    122          8           0       22.437896    5.203041    0.418002
    123          6           0       22.910546    5.775575    1.715164
    124          1           0       16.602075    1.265960    2.838611
    125          1           0       17.045806   -4.619018    0.506993
    126          1           0       22.484112   -3.041500   -2.578081
    127          1           0       20.426286    4.081435    1.538019
    128          1           0       17.580177    3.535687    1.890326
    129          1           0       18.352509    3.857905    3.936384
    130          1           0       19.948962    2.987242    3.667191
    131          1           0       18.351431    2.141657    3.955312
    132          1           0       17.847478    4.527084   -0.037541
    133          1           0       19.332272    4.616533   -0.923924
    134          1           0       19.535440    5.975804    1.566274
    135          1           0       18.120724    6.610893    0.823634
    136          1           0       14.775742    0.506919    3.125655
    137          1           0       14.797533   -0.991845    4.049038
    138          1           0       13.509606   -0.689815    2.724492
    139          1           0       12.786756   -2.731899    1.637045
    140          1           0       13.312495   -2.967931    3.314111
    141          1           0       12.769689   -4.391706    2.370351
    142          1           0       18.613473   -5.857899   -1.321313
    143          1           0       21.185325   -5.306272   -2.176360
    144          1           0       21.224095   -5.870947    0.124291
    145          1           0       19.852945   -6.970666    0.023416
    146          1           0       19.782752   -5.598723    1.093554
    147          1           0       19.690218   -5.649936   -3.854494
    148          1           0       20.426923   -4.075524   -3.978309
    149          1           0       18.531054   -3.127592   -4.180684
    150          1           0       17.701091   -3.728225   -2.781042
    151          1           0       17.769775   -4.692941   -4.241572
    152          1           0       24.933478   -1.361749   -2.213954
    153          1           0       24.766692    0.151536   -3.242291
    154          1           0       24.049586   -1.451089   -3.710473
    155          1           0       21.587809    3.814228   -1.667497
    156          1           0       23.969934    6.024660    1.654698
    157          1           0       22.754209    5.106553    2.562601
    158          1           0       22.477537    6.734144    1.999646
 ---------------------------------------------------------------------

 SCF Done:  E(RwB97XD) =  -4070.59991697     A.U. after   19 cycles

 Excitation energies and oscillator strengths:

 Excited State   1:      Singlet-A      1.6257 eV  762.64 nm  f=0.3863  <S**2>=0.000
     310 -> 316       -0.17886
     312 -> 314        0.68456
     310 <- 316       -0.11343
 This state for optimization and/or second-order correction.
 Total Energy, E(TD-HF/TD-DFT) =  -4070.54017261
 Copying the excited state density for this state as the 1-particle RhoCI density.

 Excited State   2:      Singlet-A      1.6528 eV  750.15 nm  f=0.3762  <S**2>=0.000
     309 -> 315       -0.17778
     311 -> 313        0.68533
     309 <- 315       -0.11377

 Excited State   3:      Singlet-A      2.1347 eV  580.81 nm  f=0.1106  <S**2>=0.000
     309 -> 313        0.64460
     311 -> 315        0.27142

 Excited State   4:      Singlet-A      2.1420 eV  578.82 nm  f=0.1221  <S**2>=0.000
     310 -> 314        0.64298
     312 -> 316        0.27654

 Excited State   5:      Singlet-A      3.3779 eV  367.05 nm  f=0.0299  <S**2>=0.000
     299 -> 313       -0.15971
     305 -> 313        0.38365
     307 -> 313       -0.36718
     308 -> 313        0.34665
     311 -> 315        0.19146

 The electronic state is 1-A.
 Alpha  occ. eigenvalues --  -46.95498 -46.94933 -19.29719 -19.29696 -19.24919
 Alpha  occ. eigenvalues --  -19.24775 -19.24356 -19.24325 -19.24128 -19.23256
 Alpha  occ. eigenvalues --  -14.48013 -14.46833 -14.46372 -14.45913 -14.44802
 Alpha  occ. eigenvalues --  -14.44324 -14.43793 -14.43605 -10.43249 -10.43220
 Alpha  occ. eigenvalues --  -10.39527 -10.39425 -10.39163 -10.38735 -10.36124
 Alpha  occ. eigenvalues --  -10.35927 -10.35434 -10.35356 -10.35348 -10.35315
 Alpha  occ. eigenvalues --  -10.35156 -10.35080 -10.35045 -10.34735 -10.34729
 Alpha  occ. eigenvalues --  -10.34704 -10.34498 -10.34084 -10.33824 -10.33642
 Alpha  occ. eigenvalues --  -10.33338 -10.33325 -10.33048 -10.32937 -10.32761
 Alpha  occ. eigenvalues --  -10.32580 -10.32500 -10.32461 -10.32334 -10.32302
 Alpha  occ. eigenvalues --  -10.32301 -10.32292 -10.32289 -10.32229 -10.32169
 Alpha  occ. eigenvalues --  -10.31871 -10.31855 -10.31804 -10.31684 -10.31681
 Alpha  occ. eigenvalues --  -10.31654 -10.31637 -10.31485 -10.31157 -10.31131
 Alpha  occ. eigenvalues --  -10.31122 -10.30759 -10.30685 -10.30598 -10.30567
 Alpha  occ. eigenvalues --  -10.30478 -10.30442 -10.30375 -10.30285 -10.30244
 Alpha  occ. eigenvalues --  -10.29646 -10.29448 -10.29365 -10.29273 -10.29165
 Alpha  occ. eigenvalues --  -10.28942 -10.28902 -10.28841 -10.28797 -10.28371
 Alpha  occ. eigenvalues --  -10.28251  -3.21349  -3.20867  -1.94948  -1.94480
 Alpha  occ. eigenvalues --   -1.94427  -1.94348  -1.93967  -1.93854  -1.17992
 Alpha  occ. eigenvalues --   -1.17715  -1.14361  -1.12762  -1.12252  -1.09551
 Alpha  occ. eigenvalues --   -1.09088  -1.08827  -1.07301  -1.06342  -1.05615
 Alpha  occ. eigenvalues --   -1.04902  -1.04837  -1.04684  -1.03742  -1.03742
 Alpha  occ. eigenvalues --   -0.95367  -0.94899  -0.91975  -0.91302  -0.91161
 Alpha  occ. eigenvalues --   -0.90752  -0.90669  -0.89950  -0.89792  -0.89081
 Alpha  occ. eigenvalues --   -0.88845  -0.88831  -0.88090  -0.87559  -0.86595
 Alpha  occ. eigenvalues --   -0.86296  -0.85793  -0.85404  -0.84664  -0.84567
 Alpha  occ. eigenvalues --   -0.84409  -0.84380  -0.83027  -0.82880  -0.82035
 Alpha  occ. eigenvalues --   -0.81851  -0.80910  -0.80143  -0.79239  -0.79230
 Alpha  occ. eigenvalues --   -0.78986  -0.78751  -0.78194  -0.77896  -0.76922
 Alpha  occ. eigenvalues --   -0.76528  -0.74554  -0.74412  -0.73292  -0.73031
 Alpha  occ. eigenvalues --   -0.71589  -0.71082  -0.70829  -0.70440  -0.69913
 Alpha  occ. eigenvalues --   -0.69802  -0.69126  -0.69078  -0.67764  -0.67365
 Alpha  occ. eigenvalues --   -0.66944  -0.66874  -0.66691  -0.66187  -0.65929
 Alpha  occ. eigenvalues --   -0.65317  -0.64151  -0.63738  -0.62400  -0.62198
 Alpha  occ. eigenvalues --   -0.61891  -0.61644  -0.61134  -0.61100  -0.60939
 Alpha  occ. eigenvalues --   -0.60792  -0.60523  -0.60380  -0.59688  -0.59577
 Alpha  occ. eigenvalues --   -0.58404  -0.57894  -0.57758  -0.57740  -0.57063
 Alpha  occ. eigenvalues --   -0.56763  -0.56688  -0.56427  -0.55988  -0.55924
 Alpha  occ. eigenvalues --   -0.55659  -0.55607  -0.55582  -0.55531  -0.55359
 Alpha  occ. eigenvalues --   -0.55283  -0.54971  -0.54899  -0.54798  -0.54340
 Alpha  occ. eigenvalues --   -0.53855  -0.53793  -0.53704  -0.53607  -0.53432
 Alpha  occ. eigenvalues --   -0.53359  -0.52738  -0.52730  -0.52607  -0.52367
 Alpha  occ. eigenvalues --   -0.52180  -0.51895  -0.51877  -0.51608  -0.51598
 Alpha  occ. eigenvalues --   -0.51526  -0.51263  -0.51236  -0.51066  -0.51013
 Alpha  occ. eigenvalues --   -0.51001  -0.50606  -0.50254  -0.50138  -0.50114
 Alpha  occ. eigenvalues --   -0.49833  -0.49666  -0.49570  -0.49389  -0.49150
 Alpha  occ. eigenvalues --   -0.49072  -0.48685  -0.48653  -0.48347  -0.48256
 Alpha  occ. eigenvalues --   -0.47999  -0.47867  -0.47782  -0.47443  -0.47315
 Alpha  occ. eigenvalues --   -0.47208  -0.47096  -0.46944  -0.46899  -0.46742
 Alpha  occ. eigenvalues --   -0.46425  -0.46354  -0.46219  -0.46174  -0.46070
 Alpha  occ. eigenvalues --   -0.45630  -0.45569  -0.45423  -0.45400  -0.45183
 Alpha  occ. eigenvalues --   -0.45115  -0.45021  -0.45018  -0.44845  -0.44759
 Alpha  occ. eigenvalues --   -0.44661  -0.44448  -0.44383  -0.44293  -0.43789
 Alpha  occ. eigenvalues --   -0.43730  -0.43476  -0.43471  -0.43235  -0.43042
 Alpha  occ. eigenvalues --   -0.42938  -0.42879  -0.42352  -0.42269  -0.42143
 Alpha  occ. eigenvalues --   -0.41911  -0.41635  -0.41406  -0.40865  -0.40386
 Alpha  occ. eigenvalues --   -0.40293  -0.39951  -0.39929  -0.39717  -0.39666
 Alpha  occ. eigenvalues --   -0.39269  -0.39073  -0.38654  -0.38364  -0.38351
 Alpha  occ. eigenvalues --   -0.38209  -0.37805  -0.36610  -0.36489  -0.36346
 Alpha  occ. eigenvalues --   -0.36096  -0.35391  -0.34918  -0.33893  -0.33599
 Alpha  occ. eigenvalues --   -0.33552  -0.33431  -0.33358  -0.32502  -0.32320
 Alpha  occ. eigenvalues --   -0.32216  -0.32131  -0.31435  -0.26063  -0.25771
 Alpha  occ. eigenvalues --   -0.23192  -0.22783
 Alpha virt. eigenvalues --   -0.07282  -0.07061   0.00200   0.00417   0.02188
 Alpha virt. eigenvalues --    0.02495   0.03946   0.04311   0.05490   0.06278
 Alpha virt. eigenvalues --    0.07161   0.07340   0.07730   0.07741   0.08107

 Mulliken charges:
               1
     1  Mg   0.955713
     2  C   -0.016313
     3  C   -0.071913
     4  C   -0.061349
     5  C   -0.075356
     6  N   -0.370238
     7  C   -0.076369
     8  C   -0.019295
     9  C   -0.128221
    10  C    0.112496
    11  C    0.004233
    12  C    0.005635
    13  C   -0.087404
    14  H    0.044068
    15  N   -0.442651
    16  C    0.155493
    17  C   -0.170849
    18  C   -0.084757
    19  C    0.094668
    20  C    0.080401
    21  C    0.058998
    22  O   -0.231331
    23  C   -0.015811
    24  N   -0.372812
    25  C    0.091393
    26  C   -0.107441
    27  C   -0.062922
    28  C    0.055544
    29  C    0.009033
    30  C    0.009676
    31  C   -0.064283
    32  N   -0.405583
    33  C    0.114579
    34  C   -0.207899
    35  C   -0.016070
    36  C    0.137443
    37  C    0.069693
    38  C    0.119920
    39  O   -0.196933
    40  C   -0.032891
    41  C    0.261210
    42  O   -0.260838
    43  O   -0.368865
    44  C    0.150891
    45  H   -0.002649
    46  H    0.022763
    47  H   -0.004976
    48  H    0.035161
    49  H    0.041314
    50  H    0.033126
    51  H    0.028425
    52  H    0.050160
    53  H    0.018874
    54  H    0.026480
    55  H    0.050799
    56  H    0.056897
    57  H    0.044872
    58  H    0.041546
    59  H    0.050566
    60  H    0.068964
    61  H    0.058625
    62  H    0.044899
    63  H    0.042209
    64  H    0.041176
    65  H    0.028412
    66  H    0.042420
    67  H    0.055097
    68  H    0.035743
    69  H    0.040927
    70  H    0.024718
    71  H    0.026465
    72  H    0.047245
    73  H    0.017851
    74  H    0.060209
    75  H    0.049724
    76  H    0.082158
    77  H    0.044782
    78  H    0.059081
    79  H    0.053243
    80  Mg   0.953835
    81  C   -0.042859
    82  C   -0.110254
    83  C   -0.074500
    84  C   -0.071327
    85  N   -0.321005
    86  C   -0.004140
    87  C   -0.076325
    88  C   -0.141324
    89  C    0.116522
    90  C    0.056668
    91  C    0.009050
    92  C   -0.101861
    93  H    0.060750
    94  N   -0.444532
    95  C    0.147169
    96  C   -0.177185
    97  C   -0.058215
    98  C    0.148193
    99  C    0.068287
   100  C    0.023158
   101  O   -0.209936
   102  C   -0.009826
   103  N   -0.406404
   104  C    0.080412
   105  C   -0.094090
   106  C   -0.044075
   107  C    0.108083
   108  C    0.034249
   109  C    0.007474
   110  C   -0.069477
   111  N   -0.442669
   112  C    0.083780
   113  C   -0.209063
   114  C    0.006954
   115  C    0.127402
   116  C    0.079101
   117  C    0.099171
   118  O   -0.251514
   119  C   -0.045699
   120  C    0.263237
   121  O   -0.210414
   122  O   -0.401454
   123  C    0.135684
   124  H    0.006496
   125  H    0.021259
   126  H   -0.000390
   127  H    0.038104
   128  H    0.035980
   129  H    0.032103
   130  H    0.057735
   131  H    0.022832
   132  H    0.027455
   133  H    0.042887
   134  H    0.027476
   135  H    0.044635
   136  H    0.032584
   137  H    0.076059
   138  H    0.059656
   139  H    0.059917
   140  H    0.052661
   141  H    0.061975
   142  H    0.025025
   143  H    0.018243
   144  H    0.044980
   145  H    0.032940
   146  H    0.031259
   147  H    0.032131
   148  H    0.016190
   149  H    0.030699
   150  H    0.056704
   151  H    0.029963
   152  H    0.053912
   153  H    0.066187
   154  H    0.035080
   155  H    0.077676
   156  H    0.056912
   157  H    0.049864
   158  H    0.051785
 Sum of Mulliken charges =  -0.00000

 Dipole moment (field-independent basis, Debye):
    X=             -9.0176    Y=             -0.9048    Z=              7.6293  Tot=             11.8466
 Quadrupole moment (field-independent basis, Debye-Ang):
   XX=           -673.3023   YY=           -503.3001   ZZ=           -480.3054
   XY=            -15.1721   XZ=            -12.0549   YZ=             46.9198

 Normal termination of Gaussian 16 at Sun Sep 19 21:44:21 2021.
