 Gaussian 16, Revision A.03,
 Gaussian 16:  ES64L-G16RevA.03 25-Dec-2016

 --------------------------------
 #p wB97XD/Def2SVP td=(nstates=5)
 --------------------------------

 --------------------------------
 TDDFT excited states in gaussian
 --------------------------------
 Symbolic Z-matrix:
 Charge =  0 Multiplicity = 1

                         Standard orientation:
 ---------------------------------------------------------------------
 Center     Atomic      Atomic             Coordinates (Angstroms)
 Number     Number       Type             X           Y           Z
 ---------------------------------------------------------------------
      1         12           0      -23.460913   -0.618368   -0.037046
      2          6           0      -22.640448    2.572472   -0.993684
      3          6           0      -23.255611    0.378282    3.237395
      4          6           0      -24.178149   -3.864568    0.950834
      5          6           0      -23.219876   -1.671474   -3.331471
      6          7           0      -22.944622    1.275609    1.049811
      7          6           0      -22.737190    2.455581    0.394017
      8          6           0      -22.541685    3.546256    1.332089
      9          6           0      -22.512769    2.898510    2.707448
     10          6           0      -22.896374    1.395171    2.354480
     11          6           0      -21.200793    2.996531    3.560120
     12          6           0      -23.642171    4.650249    1.175052
     13          6           0      -23.212565    6.130621    1.461248
     14          1           0      -22.064104    6.349023    2.465725
     15          7           0      -23.793153   -1.554814    1.858121
     16          6           0      -23.668479   -0.934312    3.089320
     17          6           0      -23.954488   -1.919857    4.151574
     18          6           0      -24.238166   -3.190106    3.486903
     19          6           0      -24.102896   -2.912660    2.046331
     20          6           0      -23.904389   -1.624268    5.641686
     21          6           0      -24.707186   -4.478065    4.122506
     22          8           0      -24.980392   -5.446960    3.392409
     23          6           0      -24.839880   -4.700945    5.582566
     24          7           0      -23.596496   -2.526426   -1.024693
     25          6           0      -23.950796   -3.655144   -0.403709
     26          6           0      -24.181948   -4.786700   -1.419028
     27          6           0      -24.127889   -4.051040   -2.866996
     28          6           0      -23.694413   -2.627269   -2.369257
     29          6           0      -23.147415   -5.938881   -1.231440
     30          6           0      -25.478046   -3.979898   -3.631736
     31          6           0      -25.563158   -4.823767   -4.912371
     32          7           0      -22.954410    0.220919   -1.837969
     33          6           0      -22.880330   -0.329272   -3.119699
     34          6           0      -22.497917    0.711580   -4.099561
     35          6           0      -22.386556    1.846314   -3.261826
     36          6           0      -22.661327    1.496503   -1.912688
     37          6           0      -22.353146    0.589613   -5.536109
     38          6           0      -22.181030    3.309325   -3.284298
     39          8           0      -22.011599    4.078571   -4.192755
     40          6           0      -22.297772    3.816797   -1.802906
     41          6           0      -21.080809    4.576319   -1.474425
     42          8           0      -19.998863    3.988237   -1.316056
     43          8           0      -21.279596    5.900968   -1.231618
     44          6           0      -20.172229    6.690594   -0.702105
     45          1           0      -23.183243    0.728033    4.269338
     46          1           0      -24.367147   -4.887539    1.283630
     47          1           0      -23.281830   -2.020342   -4.364285
     48          1           0      -21.568014    3.992423    1.126694
     49          1           0      -23.371594    3.202114    3.307199
     50          1           0      -20.323556    3.539428    3.206745
     51          1           0      -20.873894    1.981923    3.786412
     52          1           0      -21.364701    3.383731    4.566062
     53          1           0      -24.522002    4.374627    1.756579
     54          1           0      -24.101656    4.548969    0.192014
     55          1           0      -24.070442    6.707250    1.808298
     56          1           0      -22.787397    6.625273    0.588449
     57          1           0      -23.762058   -0.568128    5.868016
     58          1           0      -23.064341   -2.133663    6.114685
     59          1           0      -24.883827   -1.793013    6.088908
     60          1           0      -25.281216   -5.689971    5.701895
     61          1           0      -25.454032   -3.951794    6.083967
     62          1           0      -23.866063   -4.580683    6.057553
     63          1           0      -25.218873   -5.103364   -1.305979
     64          1           0      -23.342498   -4.449837   -3.508946
     65          1           0      -23.602702   -6.928188   -1.183884
     66          1           0      -22.586148   -5.809190   -0.305694
     67          1           0      -22.461039   -5.813463   -2.069190
     68          1           0      -25.752203   -2.968181   -3.928334
     69          1           0      -26.315570   -4.290127   -3.006522
     70          1           0      -24.897143   -5.682327   -4.825590
     71          1           0      -25.220626   -4.207420   -5.742972
     72          1           0      -26.618874   -5.038808   -5.072455
     73          1           0      -22.403477    1.549947   -6.048784
     74          1           0      -23.093470   -0.069065   -5.989738
     75          1           0      -21.319209    0.310531   -5.739580
     76          1           0      -23.192644    4.436520   -1.869246
     77          1           0      -19.333923    6.805211   -1.389820
     78          1           0      -19.859790    6.319776    0.274054
     79          1           0      -20.505458    7.714641   -0.534351
     80         12           0       23.583260   -0.723584    0.347316
     81          6           0       21.370120    1.880051    1.069873
     82          6           0       25.851297    1.735295   -0.703565
     83          6           0       25.590283   -3.088927   -0.908068
     84          6           0       20.932662   -2.916987    0.428655
     85          7           0       23.670640    1.616987    0.288027
     86          6           0       22.582348    2.371998    0.594636
     87          6           0       22.891466    3.905616    0.372671
     88          6           0       24.273930    3.807735   -0.449721
     89          6           0       24.622307    2.313839   -0.339600
     90          6           0       23.945130    4.116907   -1.953485
     91          6           0       23.121760    4.547033    1.790272
     92          6           0       23.574843    6.031701    1.838121
     93          1           0       24.637399    6.666481    2.685107
     94          7           0       25.510525   -0.667335   -0.463793
     95          6           0       26.329115    0.424313   -0.798318
     96          6           0       27.516081   -0.081735   -1.347815
     97          6           0       27.540750   -1.466014   -1.242898
     98          6           0       26.181931   -1.798137   -0.847578
     99          6           0       28.610708    0.848904   -1.756099
    100          6           0       28.646761   -2.503139   -1.627990
    101          8           0       28.554955   -3.716117   -1.472443
    102          6           0       30.055209   -2.071796   -2.045789
    103          7           0       23.244426   -2.675977   -0.266104
    104          6           0       24.276928   -3.477513   -0.610661
    105          6           0       23.903626   -4.971266   -0.679333
    106          6           0       22.378781   -4.900003   -0.388581
    107          6           0       22.159910   -3.467004    0.062423
    108          6           0       24.392042   -5.704946   -1.972307
    109          6           0       21.790856   -5.956940    0.586108
    110          6           0       22.070641   -5.758892    2.015403
    111          7           0       21.576656   -0.623941    0.765155
    112          6           0       20.646724   -1.550667    0.765708
    113          6           0       19.360420   -1.037057    1.247642
    114          6           0       19.653049    0.357961    1.380228
    115          6           0       20.976880    0.565850    1.045726
    116          6           0       18.250517   -1.760388    1.854259
    117          6           0       19.057476    1.621630    1.777788
    118          8           0       17.970153    1.868499    2.248156
    119          6           0       20.159687    2.653230    1.508426
    120          6           0       19.689790    3.748516    0.545379
    121          8           0       19.614257    3.616182   -0.648493
    122          8           0       19.305643    4.853675    1.266557
    123          6           0       18.845051    5.963686    0.400929
    124          1           0       26.593744    2.509473   -0.903977
    125          1           0       26.275985   -3.915550   -1.106768
    126          1           0       20.321897   -3.817517    0.513067
    127          1           0       22.140105    4.398614   -0.244711
    128          1           0       25.063581    4.469595   -0.091882
    129          1           0       23.937249    3.266991   -2.635140
    130          1           0       24.764964    4.645428   -2.440561
    131          1           0       23.006349    4.650566   -2.100416
    132          1           0       23.841356    3.918742    2.314488
    133          1           0       22.196794    4.412528    2.351680
    134          1           0       22.640708    6.582460    1.952215
    135          1           0       23.969912    6.146851    0.829541
    136          1           0       28.388530    1.911881   -1.658460
    137          1           0       28.970899    0.529989   -2.735146
    138          1           0       29.399682    0.647297   -1.031026
    139          1           0       30.090288   -1.555446   -3.005150
    140          1           0       30.804636   -2.862287   -2.002894
    141          1           0       30.411156   -1.400564   -1.263995
    142          1           0       24.487841   -5.297487    0.180664
    143          1           0       21.919673   -4.990158   -1.373059
    144          1           0       25.304732   -5.251290   -2.357275
    145          1           0       23.622578   -5.626921   -2.740830
    146          1           0       24.636013   -6.752858   -1.796558
    147          1           0       22.273391   -6.866278    0.229210
    148          1           0       20.726690   -6.086882    0.388265
    149          1           0       21.349159   -5.056261    2.432084
    150          1           0       23.102314   -5.445378    2.173769
    151          1           0       21.905107   -6.669260    2.592303
    152          1           0       18.699853   -2.669013    2.255702
    153          1           0       17.450043   -2.152052    1.226413
    154          1           0       17.829305   -1.100050    2.611567
    155          1           0       20.439961    3.094285    2.465559
    156          1           0       18.042339    6.490124    0.916936
    157          1           0       18.319896    5.676119   -0.510152
    158          1           0       19.643947    6.685264    0.233193
 ---------------------------------------------------------------------

 SCF Done:  E(RwB97XD) =  -4070.66334358     A.U. after   19 cycles

 Excitation energies and oscillator strengths:

 Excited State   1:      Singlet-A      1.6696 eV  742.58 nm  f=0.3867  <S**2>=0.000
     309 -> 315       -0.19472
     312 -> 314        0.68027
     309 <- 315       -0.11868
 This state for optimization and/or second-order correction.
 Total Energy, E(TD-HF/TD-DFT) =  -4070.60198528
 Copying the excited state density for this state as the 1-particle RhoCI density.

 Excited State   2:      Singlet-A      1.6939 eV  731.95 nm  f=0.3895  <S**2>=0.000
     310 -> 316       -0.19054
     311 -> 313        0.68143
     310 <- 316       -0.11527

 Excited State   3:      Singlet-A      2.1969 eV  564.36 nm  f=0.0821  <S**2>=0.000
     309 -> 314        0.62406
     312 -> 315        0.31821

 Excited State   4:      Singlet-A      2.2136 eV  560.09 nm  f=0.1134  <S**2>=0.000
     310 -> 313        0.64263
     311 -> 316        0.27811

 Excited State   5:      Singlet-A      3.4243 eV  362.07 nm  f=0.1922  <S**2>=0.000
     307 -> 314        0.53355
     309 -> 314        0.16244
     312 -> 315       -0.41041

 The electronic state is 1-A.
 Alpha  occ. eigenvalues --  -46.95201 -46.95044 -19.31168 -19.31009 -19.25332
 Alpha  occ. eigenvalues --  -19.24488 -19.24239 -19.24069 -19.23842 -19.23390
 Alpha  occ. eigenvalues --  -14.46849 -14.46391 -14.46271 -14.45610 -14.44102
 Alpha  occ. eigenvalues --  -14.43809 -14.43772 -14.43682 -10.43626 -10.43398
 Alpha  occ. eigenvalues --  -10.40190 -10.38917 -10.38853 -10.38480 -10.36052
 Alpha  occ. eigenvalues --  -10.35551 -10.35119 -10.34903 -10.34674 -10.34673
 Alpha  occ. eigenvalues --  -10.34646 -10.34559 -10.34451 -10.34401 -10.34103
 Alpha  occ. eigenvalues --  -10.34053 -10.33932 -10.33932 -10.33730 -10.33561
 Alpha  occ. eigenvalues --  -10.33325 -10.33272 -10.32746 -10.32665 -10.32657
 Alpha  occ. eigenvalues --  -10.32639 -10.32564 -10.32500 -10.32310 -10.32039
 Alpha  occ. eigenvalues --  -10.31993 -10.31948 -10.31873 -10.31719 -10.31680
 Alpha  occ. eigenvalues --  -10.31642 -10.31639 -10.31559 -10.31516 -10.31414
 Alpha  occ. eigenvalues --  -10.31413 -10.31365 -10.31312 -10.31234 -10.31143
 Alpha  occ. eigenvalues --  -10.31013 -10.31002 -10.30899 -10.30506 -10.30245
 Alpha  occ. eigenvalues --  -10.30088 -10.30081 -10.29967 -10.29952 -10.29915
 Alpha  occ. eigenvalues --  -10.29907 -10.29906 -10.29864 -10.29701 -10.29342
 Alpha  occ. eigenvalues --  -10.29316 -10.29296 -10.29143 -10.29096 -10.28922
 Alpha  occ. eigenvalues --  -10.28296  -3.21071  -3.21049  -1.94682  -1.94623
 Alpha  occ. eigenvalues --   -1.94187  -1.94177  -1.94046  -1.94005  -1.18985
 Alpha  occ. eigenvalues --   -1.18595  -1.13169  -1.12644  -1.12500  -1.11116
 Alpha  occ. eigenvalues --   -1.10959  -1.09292  -1.07096  -1.06954  -1.06039
 Alpha  occ. eigenvalues --   -1.05793  -1.05377  -1.05350  -1.04495  -1.02987
 Alpha  occ. eigenvalues --   -0.95789  -0.94435  -0.91275  -0.90991  -0.90505
 Alpha  occ. eigenvalues --   -0.90150  -0.90087  -0.89575  -0.89453  -0.89128
 Alpha  occ. eigenvalues --   -0.89110  -0.88641  -0.88192  -0.88103  -0.85973
 Alpha  occ. eigenvalues --   -0.85867  -0.85507  -0.85431  -0.84293  -0.84189
 Alpha  occ. eigenvalues --   -0.83773  -0.83460  -0.83134  -0.82850  -0.82492
 Alpha  occ. eigenvalues --   -0.82361  -0.80495  -0.80386  -0.79511  -0.79469
 Alpha  occ. eigenvalues --   -0.79225  -0.78505  -0.78132  -0.78042  -0.76800
 Alpha  occ. eigenvalues --   -0.76799  -0.74577  -0.74444  -0.73752  -0.73470
 Alpha  occ. eigenvalues --   -0.71946  -0.71149  -0.71123  -0.70308  -0.70250
 Alpha  occ. eigenvalues --   -0.70001  -0.69020  -0.68907  -0.67756  -0.67330
 Alpha  occ. eigenvalues --   -0.67323  -0.67028  -0.66773  -0.66402  -0.66311
 Alpha  occ. eigenvalues --   -0.65963  -0.64692  -0.64472  -0.62094  -0.61819
 Alpha  occ. eigenvalues --   -0.61546  -0.61442  -0.61323  -0.61197  -0.60696
 Alpha  occ. eigenvalues --   -0.60554  -0.60235  -0.60197  -0.59335  -0.59260
 Alpha  occ. eigenvalues --   -0.58468  -0.58024  -0.57812  -0.57591  -0.57459
 Alpha  occ. eigenvalues --   -0.57335  -0.57219  -0.56652  -0.56550  -0.55928
 Alpha  occ. eigenvalues --   -0.55896  -0.55379  -0.55217  -0.55061  -0.54859
 Alpha  occ. eigenvalues --   -0.54707  -0.54587  -0.54500  -0.54325  -0.54129
 Alpha  occ. eigenvalues --   -0.54021  -0.53534  -0.53395  -0.53217  -0.53054
 Alpha  occ. eigenvalues --   -0.53052  -0.52909  -0.52494  -0.52263  -0.52115
 Alpha  occ. eigenvalues --   -0.51894  -0.51858  -0.51791  -0.51599  -0.51360
 Alpha  occ. eigenvalues --   -0.51274  -0.51156  -0.50911  -0.50892  -0.50730
 Alpha  occ. eigenvalues --   -0.50448  -0.50437  -0.50359  -0.49996  -0.49836
 Alpha  occ. eigenvalues --   -0.49834  -0.49425  -0.49387  -0.49141  -0.49043
 Alpha  occ. eigenvalues --   -0.49042  -0.48622  -0.48603  -0.48167  -0.48058
 Alpha  occ. eigenvalues --   -0.47893  -0.47793  -0.47630  -0.47609  -0.47427
 Alpha  occ. eigenvalues --   -0.47265  -0.47136  -0.46981  -0.46900  -0.46825
 Alpha  occ. eigenvalues --   -0.46629  -0.46453  -0.46340  -0.46238  -0.46113
 Alpha  occ. eigenvalues --   -0.45976  -0.45754  -0.45738  -0.45608  -0.45541
 Alpha  occ. eigenvalues --   -0.45382  -0.45255  -0.45168  -0.45074  -0.44939
 Alpha  occ. eigenvalues --   -0.44823  -0.44524  -0.44512  -0.44416  -0.44301
 Alpha  occ. eigenvalues --   -0.44053  -0.43799  -0.43774  -0.43611  -0.43360
 Alpha  occ. eigenvalues --   -0.43118  -0.42819  -0.42619  -0.42564  -0.42227
 Alpha  occ. eigenvalues --   -0.42145  -0.41844  -0.41495  -0.41395  -0.40719
 Alpha  occ. eigenvalues --   -0.40386  -0.40068  -0.39809  -0.39663  -0.39403
 Alpha  occ. eigenvalues --   -0.39311  -0.39183  -0.38807  -0.38760  -0.38685
 Alpha  occ. eigenvalues --   -0.38262  -0.37915  -0.36894  -0.36246  -0.36005
 Alpha  occ. eigenvalues --   -0.35897  -0.35397  -0.35345  -0.33610  -0.33261
 Alpha  occ. eigenvalues --   -0.33093  -0.32876  -0.32765  -0.32682  -0.32249
 Alpha  occ. eigenvalues --   -0.32212  -0.31681  -0.31320  -0.25779  -0.25719
 Alpha  occ. eigenvalues --   -0.22881  -0.22587
 Alpha virt. eigenvalues --   -0.06716  -0.06635   0.00203   0.00607   0.02495
 Alpha virt. eigenvalues --    0.02607   0.04361   0.04704   0.05400   0.06138
 Alpha virt. eigenvalues --    0.06630   0.07362   0.07959   0.08077   0.08684

 Mulliken charges:
               1
     1  Mg   0.952516
     2  C   -0.029948
     3  C   -0.087531
     4  C   -0.053707
     5  C   -0.079034
     6  N   -0.317099
     7  C   -0.009058
     8  C   -0.054154
     9  C   -0.041519
    10  C   -0.009027
    11  C    0.019972
    12  C    0.021192
    13  C   -0.115146
    14  H    0.015647
    15  N   -0.461376
    16  C    0.197300
    17  C   -0.169679
    18  C   -0.061149
    19  C    0.119888
    20  C    0.061320
    21  C    0.038504
    22  O   -0.262819
    23  C    0.013348
    24  N   -0.333084
    25  C    0.064127
    26  C   -0.091947
    27  C   -0.098943
    28  C    0.041399
    29  C    0.031129
    30  C   -0.015235
    31  C   -0.053807
    32  N   -0.449237
    33  C    0.129807
    34  C   -0.162270
    35  C   -0.055465
    36  C    0.145001
    37  C    0.075969
    38  C    0.096358
    39  O   -0.183892
    40  C   -0.042037
    41  C    0.280640
    42  O   -0.276055
    43  O   -0.352476
    44  C    0.141018
    45  H   -0.023836
    46  H    0.028205
    47  H   -0.002411
    48  H    0.045966
    49  H    0.034438
    50  H    0.048913
    51  H    0.031160
    52  H    0.026866
    53  H    0.018609
    54  H    0.024781
    55  H    0.055057
    56  H    0.067005
    57  H    0.025622
    58  H    0.064192
    59  H    0.051391
    60  H    0.063672
    61  H    0.041613
    62  H    0.053127
    63  H    0.040537
    64  H    0.038378
    65  H    0.048228
    66  H    0.046082
    67  H    0.029743
    68  H    0.031750
    69  H    0.025714
    70  H    0.040601
    71  H    0.032174
    72  H    0.041519
    73  H    0.049764
    74  H    0.047485
    75  H    0.057523
    76  H    0.066840
    77  H    0.067245
    78  H    0.052491
    79  H    0.050117
    80  Mg   0.973240
    81  C   -0.006718
    82  C   -0.074203
    83  C   -0.111356
    84  C   -0.060575
    85  N   -0.282074
    86  C   -0.051567
    87  C   -0.080981
    88  C   -0.121321
    89  C    0.038084
    90  C    0.009315
    91  C   -0.013290
    92  C   -0.096437
    93  H    0.058546
    94  N   -0.474494
    95  C    0.176439
    96  C   -0.164546
    97  C   -0.081266
    98  C    0.151164
    99  C    0.071149
   100  C    0.085481
   101  O   -0.233800
   102  C   -0.021518
   103  N   -0.406292
   104  C    0.075763
   105  C   -0.112135
   106  C   -0.035676
   107  C   -0.010107
   108  C    0.035597
   109  C   -0.020893
   110  C   -0.015359
   111  N   -0.411388
   112  C    0.152347
   113  C   -0.157208
   114  C   -0.070559
   115  C    0.151333
   116  C    0.070550
   117  C    0.116349
   118  O   -0.187639
   119  C   -0.074967
   120  C    0.263824
   121  O   -0.227605
   122  O   -0.360650
   123  C    0.124852
   124  H   -0.012643
   125  H    0.022383
   126  H   -0.019444
   127  H    0.047418
   128  H    0.048717
   129  H    0.042540
   130  H    0.025846
   131  H    0.050552
   132  H    0.035461
   133  H    0.032155
   134  H    0.051127
   135  H    0.036221
   136  H    0.044494
   137  H    0.048682
   138  H    0.050218
   139  H    0.058370
   140  H    0.054766
   141  H    0.041260
   142  H    0.041035
   143  H    0.042855
   144  H    0.049046
   145  H    0.031789
   146  H    0.040086
   147  H    0.022780
   148  H    0.034936
   149  H    0.032029
   150  H    0.032788
   151  H    0.035418
   152  H    0.029550
   153  H    0.041880
   154  H    0.063971
   155  H    0.079224
   156  H    0.049943
   157  H    0.069088
   158  H    0.056047
 Sum of Mulliken charges =  -0.00000

 Dipole moment (field-independent basis, Debye):
    X=              2.1814    Y=              2.0849    Z=              2.6659  Tot=              4.0265
 Quadrupole moment (field-independent basis, Debye-Ang):
   XX=           -253.7056   YY=           -479.6137   ZZ=           -493.6777
   XY=             20.2490   XZ=            -76.5795   YZ=             20.1038

 Normal termination of Gaussian 16 at Sun Sep 19 21:59:49 2021.
