 Gaussian 16, Revision A.03,
 Gaussian 16:  ES64L-G16RevA.03 25-Dec-2016

 --------------------------------
 #p wB97XD/Def2SVP td=(nstates=5)
 --------------------------------

 --------------------------------
 TDDFT excited states in gaussian
 --------------------------------
 Symbolic Z-matrix:
 Charge =  0 Multiplicity = 1

                         Standard orientation:
 ---------------------------------------------------------------------
 Center     Atomic      Atomic             Coordinates (Angstroms)
 Number     Number       Type             X           Y           Z
 ---------------------------------------------------------------------
      1         12           0      -13.177112   -0.253656   -0.332872
      2          6           0       -9.892359   -0.066963    0.673683
      3          6           0      -13.801878    2.654885    1.513380
      4          6           0      -16.436507   -0.412910   -1.196216
      5          6           0      -12.583340   -3.261928   -1.787171
      6          7           0      -11.994392    0.984647    1.174356
      7          6           0      -10.594399    0.979238    1.209758
      8          6           0      -10.027074    2.247666    1.877171
      9          6           0      -11.356841    3.017296    2.214870
     10          6           0      -12.482220    2.233642    1.574250
     11          6           0      -11.568993    3.216263    3.710312
     12          6           0       -9.005430    3.145006    1.092897
     13          6           0       -7.484959    3.204824    1.660589
     14          1           0       -7.084516    4.637949    2.024313
     15          7           0      -14.876437    0.858206    0.162096
     16          6           0      -14.894072    2.094023    0.828721
     17          6           0      -16.199432    2.750488    0.701957
     18          6           0      -17.088181    1.813128   -0.056943
     19          6           0      -16.144222    0.700253   -0.472747
     20          6           0      -16.507385    4.103068    1.305492
     21          6           0      -18.498694    1.892709   -0.407962
     22          8           0      -19.048580    0.932253   -0.966910
     23          6           0      -19.373142    3.084853   -0.060908
     24          7           0      -14.287857   -1.653199   -1.243701
     25          6           0      -15.627086   -1.472351   -1.636066
     26          6           0      -16.202925   -2.597333   -2.587840
     27          6           0      -14.884077   -3.520987   -2.714448
     28          6           0      -13.846339   -2.746416   -1.870891
     29          6           0      -17.479731   -3.379378   -2.001822
     30          6           0      -14.450569   -3.711359   -4.208668
     31          6           0      -13.916773   -5.047791   -4.619730
     32          7           0      -11.549165   -1.490365   -0.426068
     33          6           0      -11.438262   -2.698105   -1.121046
     34          6           0      -10.087981   -3.146358   -1.149768
     35          6           0       -9.400195   -2.049943   -0.509599
     36          6           0      -10.362911   -1.145552   -0.043748
     37          6           0       -9.468804   -4.326076   -1.773387
     38          6           0       -8.121550   -1.634060   -0.024416
     39          8           0       -6.968342   -2.069792   -0.113024
     40          6           0       -8.432114   -0.375186    0.906048
     41          6           0       -8.058570   -0.711496    2.305434
     42          8           0       -8.750400   -1.051733    3.182768
     43          8           0       -6.707626   -0.447654    2.518915
     44          6           0       -6.347389   -0.167607    3.893302
     45          1           0      -13.968993    3.609069    2.017483
     46          1           0      -17.443397   -0.545929   -1.597220
     47          1           0      -12.357392   -4.150665   -2.380023
     48          1           0       -9.558022    1.963195    2.818451
     49          1           0      -11.334682    4.042886    1.845347
     50          1           0      -12.443365    2.643556    4.018319
     51          1           0      -11.775842    4.283478    3.780382
     52          1           0      -10.704213    3.018886    4.343439
     53          1           0       -9.403099    4.159936    1.070476
     54          1           0       -8.882118    2.799235    0.066479
     55          1           0       -6.905120    2.911656    0.785230
     56          1           0       -7.373300    2.543728    2.519709
     57          1           0      -16.591851    3.950440    2.382155
     58          1           0      -17.461189    4.440529    0.902856
     59          1           0      -15.694811    4.821980    1.198458
     60          1           0      -20.399119    2.726358   -0.146774
     61          1           0      -19.198059    3.957935   -0.690407
     62          1           0      -19.386658    3.409340    0.979397
     63          1           0      -16.382003   -2.184564   -3.580111
     64          1           0      -15.004250   -4.544918   -2.359841
     65          1           0      -17.385860   -4.433488   -2.263692
     66          1           0      -18.446375   -3.139477   -2.443033
     67          1           0      -17.586243   -3.273249   -0.922059
     68          1           0      -13.748869   -2.957385   -4.565004
     69          1           0      -15.289188   -3.627679   -4.899645
     70          1           0      -12.867077   -4.863401   -4.847734
     71          1           0      -14.219368   -5.497508   -5.565405
     72          1           0      -14.011487   -5.752563   -3.792992
     73          1           0      -10.079248   -4.622509   -2.626817
     74          1           0       -9.536586   -5.095622   -1.004519
     75          1           0       -8.408245   -4.123673   -1.924082
     76          1           0       -7.841461    0.481915    0.583586
     77          1           0       -6.341470   -1.149506    4.365298
     78          1           0       -7.161091    0.438901    4.290646
     79          1           0       -5.356488    0.281700    3.965137
     80         12           0       13.079694   -0.211362    0.278818
     81          6           0       11.568501    2.464095   -1.342097
     82          6           0       10.428319    0.039506    2.670224
     83          6           0       14.100019   -3.022628    1.643003
     84          6           0       15.111803   -0.681147   -2.550944
     85          7           0       11.164828    1.027050    0.533643
     86          6           0       10.850347    2.122466   -0.238977
     87          6           0        9.551150    2.762170    0.258151
     88          6           0        9.407388    2.128628    1.669599
     89          6           0       10.356305    0.959601    1.634384
     90          6           0        9.702842    3.027954    2.933598
     91          6           0        8.351388    2.485105   -0.662619
     92          6           0        7.106067    3.214341   -0.330143
     93          1           0        6.048279    3.393260   -1.485206
     94          7           0       12.362748   -1.374239    1.942184
     95          6           0       11.290241   -1.089019    2.801532
     96          6           0       11.224301   -2.128562    3.790523
     97          6           0       12.212082   -3.115906    3.425074
     98          6           0       12.974293   -2.497077    2.286011
     99          6           0       10.133486   -2.175253    4.895891
    100          6           0       12.389631   -4.431461    4.189788
    101          8           0       11.806063   -4.651913    5.238053
    102          6           0       13.303321   -5.461375    3.643952
    103          7           0       14.579052   -1.518967   -0.277914
    104          6           0       14.827394   -2.585688    0.489488
    105          6           0       15.885343   -3.521607   -0.223642
    106          6           0       16.203056   -2.837504   -1.608655
    107          6           0       15.173361   -1.583416   -1.514141
    108          6           0       17.141283   -3.933438    0.588555
    109          6           0       15.842272   -3.788680   -2.769733
    110          6           0       16.679535   -3.612726   -4.042418
    111          7           0       13.356651    0.666397   -1.608607
    112          6           0       14.285265    0.461822   -2.590419
    113          6           0       14.160247    1.539570   -3.579005
    114          6           0       13.191957    2.368025   -3.078548
    115          6           0       12.679516    1.793709   -1.937404
    116          6           0       15.049294    1.742198   -4.810220
    117          6           0       12.446892    3.561433   -3.345548
    118          8           0       12.519111    4.380042   -4.228750
    119          6           0       11.368404    3.681414   -2.217492
    120          6           0       11.669374    4.914040   -1.438714
    121          8           0       12.728577    5.243101   -0.981267
    122          8           0       10.462550    5.590756   -1.190605
    123          6           0       10.567334    6.768108   -0.376476
    124          1           0        9.641387    0.256031    3.395059
    125          1           0       14.559370   -3.950458    1.991575
    126          1           0       15.777314   -0.756005   -3.413614
    127          1           0        9.773290    3.820509    0.387912
    128          1           0        8.446281    1.664193    1.887434
    129          1           0        8.821981    2.894177    3.561162
    130          1           0       10.157344    4.005247    2.768831
    131          1           0       10.495765    2.524822    3.486785
    132          1           0        7.979727    1.460082   -0.656661
    133          1           0        8.624043    2.693779   -1.697190
    134          1           0        7.408786    4.193327    0.041403
    135          1           0        6.626864    2.723450    0.516726
    136          1           0        9.529321   -2.966969    4.451720
    137          1           0        9.454832   -1.322914    4.934112
    138          1           0       10.345686   -2.395480    5.942271
    139          1           0       13.008422   -5.561721    2.599418
    140          1           0       13.089031   -6.408032    4.140220
    141          1           0       14.291655   -5.026221    3.794095
    142          1           0       15.364469   -4.463350   -0.398882
    143          1           0       17.220079   -2.462454   -1.718616
    144          1           0       17.028259   -4.979647    0.874535
    145          1           0       17.263234   -3.234660    1.415500
    146          1           0       18.016141   -3.931663   -0.061582
    147          1           0       14.788432   -3.595626   -2.968744
    148          1           0       15.842070   -4.844090   -2.496583
    149          1           0       17.105663   -4.605547   -4.190735
    150          1           0       17.418610   -2.812996   -3.992849
    151          1           0       16.031290   -3.420629   -4.897478
    152          1           0       14.540124    2.001062   -5.737981
    153          1           0       15.565887    0.783985   -4.870397
    154          1           0       15.848223    2.413058   -4.493977
    155          1           0       10.405613    3.755291   -2.723282
    156          1           0       10.388142    7.615234   -1.038634
    157          1           0       11.483430    6.951252    0.185577
    158          1           0        9.786562    6.706763    0.381152
 ---------------------------------------------------------------------

 SCF Done:  E(RwB97XD) =  -4070.60029201     A.U. after   19 cycles

 Excitation energies and oscillator strengths:

 Excited State   1:      Singlet-A      1.6223 eV  764.27 nm  f=0.4127  <S**2>=0.000
     310 -> 315        0.16234
     312 -> 313        0.68608
     310 <- 315        0.10569
 This state for optimization and/or second-order correction.
 Total Energy, E(TD-HF/TD-DFT) =  -4070.54067497
 Copying the excited state density for this state as the 1-particle RhoCI density.

 Excited State   2:      Singlet-A      1.7228 eV  719.68 nm  f=0.3936  <S**2>=0.000
     309 -> 316       -0.17617
     311 -> 314        0.68541
     309 <- 316       -0.11108

 Excited State   3:      Singlet-A      2.1351 eV  580.69 nm  f=0.1233  <S**2>=0.000
     310 -> 313        0.64275
     312 -> 315       -0.25998

 Excited State   4:      Singlet-A      2.2427 eV  552.85 nm  f=0.1148  <S**2>=0.000
     309 -> 314        0.63525
     311 -> 316        0.29246

 Excited State   5:      Singlet-A      3.2507 eV  381.41 nm  f=0.0040  <S**2>=0.000
     304 -> 313        0.47366
     307 -> 313        0.38358
     308 -> 313       -0.30346
     312 -> 315        0.12209

 The electronic state is 1-A.
 Alpha  occ. eigenvalues --  -46.95918 -46.94334 -19.30101 -19.27420 -19.25331
 Alpha  occ. eigenvalues --  -19.24481 -19.23973 -19.23666 -19.23446 -19.22994
 Alpha  occ. eigenvalues --  -14.47216 -14.47142 -14.46879 -14.46642 -14.44977
 Alpha  occ. eigenvalues --  -14.44776 -14.43569 -14.43168 -10.43260 -10.41931
 Alpha  occ. eigenvalues --  -10.39372 -10.38768 -10.38217 -10.38034 -10.36368
 Alpha  occ. eigenvalues --  -10.35954 -10.35631 -10.35386 -10.35250 -10.35199
 Alpha  occ. eigenvalues --  -10.35188 -10.35105 -10.34972 -10.34887 -10.34778
 Alpha  occ. eigenvalues --  -10.34767 -10.34455 -10.34386 -10.34248 -10.33704
 Alpha  occ. eigenvalues --  -10.33559 -10.33347 -10.33273 -10.33074 -10.32777
 Alpha  occ. eigenvalues --  -10.32430 -10.32345 -10.32331 -10.32229 -10.32195
 Alpha  occ. eigenvalues --  -10.32184 -10.32160 -10.32149 -10.31926 -10.31880
 Alpha  occ. eigenvalues --  -10.31857 -10.31834 -10.31814 -10.31685 -10.31683
 Alpha  occ. eigenvalues --  -10.31643 -10.31526 -10.31462 -10.31401 -10.31348
 Alpha  occ. eigenvalues --  -10.31207 -10.30807 -10.30623 -10.30619 -10.30527
 Alpha  occ. eigenvalues --  -10.30394 -10.30390 -10.30387 -10.30324 -10.30214
 Alpha  occ. eigenvalues --  -10.30127 -10.30067 -10.29904 -10.29892 -10.29830
 Alpha  occ. eigenvalues --  -10.29796 -10.29776 -10.29358 -10.29161 -10.28508
 Alpha  occ. eigenvalues --  -10.27843  -3.21795  -3.20502  -1.95387  -1.94920
 Alpha  occ. eigenvalues --   -1.94747  -1.94066  -1.93640  -1.93495  -1.18919
 Alpha  occ. eigenvalues --   -1.18689  -1.12447  -1.12286  -1.11849  -1.10947
 Alpha  occ. eigenvalues --   -1.10331  -1.09942  -1.06651  -1.06509  -1.05751
 Alpha  occ. eigenvalues --   -1.05646  -1.05474  -1.04778  -1.04095  -1.02735
 Alpha  occ. eigenvalues --   -0.95133  -0.94567  -0.91186  -0.91136  -0.91092
 Alpha  occ. eigenvalues --   -0.90627  -0.90524  -0.90418  -0.89931  -0.89306
 Alpha  occ. eigenvalues --   -0.89160  -0.88687  -0.88334  -0.87813  -0.87058
 Alpha  occ. eigenvalues --   -0.86178  -0.85838  -0.85381  -0.84991  -0.84439
 Alpha  occ. eigenvalues --   -0.84368  -0.83866  -0.83157  -0.82825  -0.82738
 Alpha  occ. eigenvalues --   -0.82217  -0.80797  -0.79624  -0.79351  -0.79182
 Alpha  occ. eigenvalues --   -0.78975  -0.78631  -0.78049  -0.77409  -0.77242
 Alpha  occ. eigenvalues --   -0.77188  -0.75124  -0.75086  -0.73949  -0.73705
 Alpha  occ. eigenvalues --   -0.71378  -0.71219  -0.70903  -0.70623  -0.69922
 Alpha  occ. eigenvalues --   -0.69664  -0.69576  -0.68664  -0.67908  -0.67619
 Alpha  occ. eigenvalues --   -0.67466  -0.67274  -0.67034  -0.66876  -0.66528
 Alpha  occ. eigenvalues --   -0.65926  -0.64593  -0.62875  -0.62245  -0.62218
 Alpha  occ. eigenvalues --   -0.61789  -0.61374  -0.61203  -0.61030  -0.60707
 Alpha  occ. eigenvalues --   -0.60459  -0.60362  -0.60281  -0.59683  -0.59481
 Alpha  occ. eigenvalues --   -0.58539  -0.58409  -0.57747  -0.57525  -0.57364
 Alpha  occ. eigenvalues --   -0.57279  -0.56754  -0.56225  -0.55880  -0.55867
 Alpha  occ. eigenvalues --   -0.55605  -0.55434  -0.55276  -0.55187  -0.55012
 Alpha  occ. eigenvalues --   -0.54957  -0.54626  -0.54489  -0.54275  -0.54110
 Alpha  occ. eigenvalues --   -0.53766  -0.53569  -0.53537  -0.53532  -0.53296
 Alpha  occ. eigenvalues --   -0.53117  -0.52718  -0.52700  -0.52567  -0.52528
 Alpha  occ. eigenvalues --   -0.52216  -0.52157  -0.52111  -0.51983  -0.51716
 Alpha  occ. eigenvalues --   -0.51715  -0.51602  -0.51161  -0.50957  -0.50888
 Alpha  occ. eigenvalues --   -0.50741  -0.50591  -0.50495  -0.50151  -0.50030
 Alpha  occ. eigenvalues --   -0.49979  -0.49962  -0.49395  -0.49248  -0.49242
 Alpha  occ. eigenvalues --   -0.49003  -0.48977  -0.48910  -0.48791  -0.48430
 Alpha  occ. eigenvalues --   -0.48327  -0.48252  -0.48085  -0.47986  -0.47939
 Alpha  occ. eigenvalues --   -0.47693  -0.47356  -0.47238  -0.47210  -0.46942
 Alpha  occ. eigenvalues --   -0.46919  -0.46647  -0.46544  -0.46109  -0.45994
 Alpha  occ. eigenvalues --   -0.45776  -0.45644  -0.45557  -0.45497  -0.45311
 Alpha  occ. eigenvalues --   -0.45205  -0.45077  -0.45024  -0.44885  -0.44793
 Alpha  occ. eigenvalues --   -0.44568  -0.44555  -0.44254  -0.44152  -0.44003
 Alpha  occ. eigenvalues --   -0.43999  -0.43732  -0.43646  -0.43337  -0.43325
 Alpha  occ. eigenvalues --   -0.43092  -0.42940  -0.42624  -0.42409  -0.42072
 Alpha  occ. eigenvalues --   -0.42061  -0.41856  -0.41683  -0.41519  -0.41040
 Alpha  occ. eigenvalues --   -0.40652  -0.40647  -0.40031  -0.39825  -0.39637
 Alpha  occ. eigenvalues --   -0.39578  -0.39269  -0.38783  -0.38455  -0.38051
 Alpha  occ. eigenvalues --   -0.37936  -0.37121  -0.36912  -0.36464  -0.36186
 Alpha  occ. eigenvalues --   -0.36088  -0.35835  -0.35424  -0.33902  -0.33697
 Alpha  occ. eigenvalues --   -0.33534  -0.32965  -0.32528  -0.32229  -0.32173
 Alpha  occ. eigenvalues --   -0.32037  -0.31865  -0.31403  -0.26523  -0.26336
 Alpha  occ. eigenvalues --   -0.23397  -0.23299
 Alpha virt. eigenvalues --   -0.07667  -0.07284  -0.00259   0.00062   0.01763
 Alpha virt. eigenvalues --    0.03076   0.04281   0.04914   0.05226   0.05287
 Alpha virt. eigenvalues --    0.07066   0.07519   0.07661   0.07870   0.08530

 Mulliken charges:
               1
     1  Mg   0.967512
     2  C    0.011623
     3  C   -0.103239
     4  C   -0.069825
     5  C   -0.098376
     6  N   -0.364201
     7  C   -0.034158
     8  C   -0.002661
     9  C   -0.138160
    10  C    0.093040
    11  C    0.019378
    12  C   -0.009141
    13  C   -0.148503
    14  H    0.036291
    15  N   -0.481792
    16  C    0.200834
    17  C   -0.180067
    18  C   -0.027796
    19  C    0.193863
    20  C    0.079859
    21  C    0.021662
    22  O   -0.252829
    23  C   -0.034247
    24  N   -0.410944
    25  C    0.038666
    26  C   -0.045292
    27  C   -0.088426
    28  C    0.134167
    29  C   -0.000931
    30  C   -0.040909
    31  C   -0.058075
    32  N   -0.418866
    33  C    0.119578
    34  C   -0.179199
    35  C   -0.042486
    36  C    0.138744
    37  C    0.103187
    38  C    0.093000
    39  O   -0.217802
    40  C   -0.114307
    41  C    0.257049
    42  O   -0.187453
    43  O   -0.389643
    44  C    0.148347
    45  H   -0.010807
    46  H    0.026010
    47  H   -0.021858
    48  H    0.032211
    49  H    0.032508
    50  H    0.050144
    51  H    0.027211
    52  H    0.046128
    53  H    0.042899
    54  H    0.040720
    55  H    0.074234
    56  H    0.060338
    57  H    0.058506
    58  H    0.036809
    59  H    0.054090
    60  H    0.050816
    61  H    0.073281
    62  H    0.053552
    63  H    0.052052
    64  H    0.039618
    65  H    0.034005
    66  H    0.046094
    67  H    0.057344
    68  H    0.033714
    69  H    0.029732
    70  H    0.026210
    71  H    0.038867
    72  H    0.035098
    73  H    0.041527
    74  H    0.054362
    75  H    0.067129
    76  H    0.052171
    77  H    0.050838
    78  H    0.037081
    79  H    0.059897
    80  Mg   0.953605
    81  C   -0.018688
    82  C   -0.078147
    83  C   -0.102544
    84  C   -0.070816
    85  N   -0.331825
    86  C   -0.062114
    87  C    0.031387
    88  C   -0.153776
    89  C    0.038917
    90  C    0.036010
    91  C    0.038043
    92  C   -0.109590
    93  H    0.041875
    94  N   -0.434348
    95  C    0.182020
    96  C   -0.135724
    97  C   -0.120962
    98  C    0.236464
    99  C    0.062890
   100  C    0.024927
   101  O   -0.229488
   102  C    0.001948
   103  N   -0.396328
   104  C    0.068686
   105  C   -0.119377
   106  C   -0.097004
   107  C    0.094197
   108  C    0.022094
   109  C   -0.030747
   110  C   -0.043154
   111  N   -0.425155
   112  C    0.086029
   113  C   -0.233637
   114  C    0.018340
   115  C    0.142772
   116  C    0.107297
   117  C    0.094393
   118  O   -0.186769
   119  C   -0.073628
   120  C    0.259947
   121  O   -0.213258
   122  O   -0.378329
   123  C    0.124853
   124  H   -0.006185
   125  H   -0.019699
   126  H   -0.006156
   127  H    0.020643
   128  H    0.031758
   129  H    0.043548
   130  H    0.049084
   131  H    0.028993
   132  H    0.030253
   133  H    0.035386
   134  H    0.036051
   135  H    0.040084
   136  H    0.058972
   137  H    0.019728
   138  H    0.074439
   139  H    0.052533
   140  H    0.058060
   141  H    0.078842
   142  H    0.040468
   143  H    0.042044
   144  H    0.035895
   145  H    0.049966
   146  H    0.035257
   147  H    0.033252
   148  H    0.029990
   149  H    0.038189
   150  H    0.042210
   151  H    0.038983
   152  H    0.070535
   153  H    0.005389
   154  H    0.057993
   155  H    0.072940
   156  H    0.056954
   157  H    0.062081
   158  H    0.040232
 Sum of Mulliken charges =  -0.00000

 Dipole moment (field-independent basis, Debye):
    X=             -3.0984    Y=              1.7993    Z=              0.3460  Tot=              3.5996
 Quadrupole moment (field-independent basis, Debye-Ang):
   XX=           -420.5517   YY=           -486.6075   ZZ=           -521.3220
   XY=           -101.2121   XZ=             29.9433   YZ=             60.0914

 Normal termination of Gaussian 16 at Mon Sep 20 14:58:14 2021.
