 Gaussian 16, Revision A.03,
 Gaussian 16:  ES64L-G16RevA.03 25-Dec-2016

 --------------------------------
 #p wB97XD/Def2SVP td=(nstates=5)
 --------------------------------

 --------------------------------
 TDDFT excited states in gaussian
 --------------------------------
 Symbolic Z-matrix:
 Charge =  0 Multiplicity = 1

                         Standard orientation:
 ---------------------------------------------------------------------
 Center     Atomic      Atomic             Coordinates (Angstroms)
 Number     Number       Type             X           Y           Z
 ---------------------------------------------------------------------
      1         12           0       13.261455    0.243031    0.315724
      2          6           0       10.054383   -0.918989   -0.773213
      3          6           0       14.108852    0.828521   -2.960406
      4          6           0       16.452316    0.911836    1.198290
      5          6           0       12.589157   -1.301452    3.414747
      6          7           0       12.181684   -0.013525   -1.611722
      7          6           0       10.862402   -0.431529   -1.846962
      8          6           0       10.558050   -0.299254   -3.317188
      9          6           0       12.007865   -0.251555   -3.960488
     10          6           0       12.868795    0.169117   -2.733266
     11          6           0       12.352995   -1.692710   -4.479925
     12          6           0        9.580270    0.877238   -3.668112
     13          6           0        8.590510    0.442869   -4.627793
     14          1           0        7.330203    1.431179   -4.799823
     15          7           0       14.938925    0.959497   -0.792606
     16          6           0       15.066110    1.165770   -2.108878
     17          6           0       16.343575    1.752669   -2.374289
     18          6           0       17.061691    1.776889   -1.197175
     19          6           0       16.116151    1.233186   -0.116305
     20          6           0       16.833041    2.057652   -3.825671
     21          6           0       18.474135    2.337293   -0.931931
     22          8           0       18.947029    2.233686    0.171517
     23          6           0       19.222808    3.087785   -2.008011
     24          7           0       14.427278   -0.403633    1.991358
     25          6           0       15.694171    0.146788    2.151430
     26          6           0       16.182098   -0.043288    3.550795
     27          6           0       14.931722   -0.738379    4.281131
     28          6           0       13.882437   -0.769479    3.194933
     29          6           0       17.474554   -0.783685    3.625875
     30          6           0       14.387383   -0.052565    5.651676
     31          6           0       14.426734   -0.852139    6.893640
     32          7           0       11.660424   -0.845415    1.222041
     33          6           0       11.575256   -1.393055    2.482228
     34          6           0       10.177501   -1.988937    2.637279
     35          6           0        9.506367   -1.725586    1.426304
     36          6           0       10.469983   -1.074248    0.579092
     37          6           0        9.684062   -2.736865    3.883335
     38          6           0        8.291501   -2.018396    0.727853
     39          8           0        7.253217   -2.600103    1.115654
     40          6           0        8.642094   -1.666044   -0.775880
     41          6           0        7.407603   -0.881791   -1.313731
     42          8           0        7.432532    0.359312   -1.404764
     43          8           0        6.446398   -1.751964   -1.709522
     44          6           0        5.197921   -0.977735   -2.028858
     45          1           0       14.309209    1.224909   -3.958365
     46          1           0       17.473923    1.137762    1.513046
     47          1           0       12.252343   -1.716225    4.366962
     48          1           0       10.132741   -1.256793   -3.616888
     49          1           0       12.055836    0.444387   -4.797270
     50          1           0       12.588042   -2.398703   -3.683801
     51          1           0       13.165219   -1.619244   -5.201860
     52          1           0       11.496328   -2.079618   -5.032251
     53          1           0       10.168007    1.602279   -4.231629
     54          1           0        9.167312    1.346128   -2.774652
     55          1           0        8.078269   -0.456206   -4.284773
     56          1           0        9.097443    0.317845   -5.584923
     57          1           0       17.094605    3.114552   -3.774979
     58          1           0       16.075777    1.938707   -4.600447
     59          1           0       17.659597    1.395871   -4.084078
     60          1           0       20.230086    3.334547   -1.672267
     61          1           0       18.546041    3.940956   -2.053740
     62          1           0       19.231791    2.470923   -2.906576
     63          1           0       16.299134    0.982676    3.900293
     64          1           0       15.247026   -1.749405    4.537822
     65          1           0       18.196949   -0.032757    3.943285
     66          1           0       17.835606   -1.110916    2.650974
     67          1           0       17.481409   -1.652918    4.283913
     68          1           0       13.330846    0.090734    5.425357
     69          1           0       14.857396    0.926062    5.739417
     70          1           0       13.423393   -1.030620    7.279486
     71          1           0       14.888691   -0.086754    7.516308
     72          1           0       15.091597   -1.714652    6.830461
     73          1           0        9.872274   -3.791450    3.685155
     74          1           0        8.620661   -2.585115    4.068158
     75          1           0       10.208141   -2.351188    4.757836
     76          1           0        8.744973   -2.646536   -1.238791
     77          1           0        4.657545   -0.600049   -1.160998
     78          1           0        4.476740   -1.510182   -2.648086
     79          1           0        5.521847   -0.157345   -2.669590
     80         12           0      -12.843671   -0.523927   -0.576788
     81          6           0      -12.486609    2.831222    0.581302
     82          6           0       -9.528658   -0.670896   -0.543962
     83          6           0      -13.052677   -3.895652   -0.673155
     84          6           0      -16.245248   -0.242318    0.447988
     85          7           0      -11.260063    0.898446   -0.175934
     86          6           0      -11.311985    2.257477    0.202686
     87          6           0       -9.900198    2.906037    0.356243
     88          6           0       -8.979483    1.730432   -0.077621
     89          6           0       -9.973735    0.588671   -0.377297
     90          6           0       -8.115925    2.228803   -1.248351
     91          6           0       -9.505134    3.483955    1.783400
     92          6           0       -9.309519    4.992429    1.882210
     93          1           0       -7.955325    5.499232    2.419033
     94          7           0      -11.535226   -2.053419   -0.698530
     95          6           0      -10.150363   -1.891711   -0.662919
     96          6           0       -9.503927   -3.117975   -0.903848
     97          6           0      -10.474733   -4.082374   -1.102027
     98          6           0      -11.732369   -3.417606   -0.826702
     99          6           0       -7.961820   -3.418788   -0.994958
    100          6           0      -10.152844   -5.510703   -1.474259
    101          8           0       -9.057146   -5.904628   -1.743374
    102          6           0      -11.421095   -6.485200   -1.634204
    103          7           0      -14.394855   -1.897513   -0.104336
    104          6           0      -14.223942   -3.244710   -0.271402
    105          6           0      -15.540903   -3.945797    0.259065
    106          6           0      -16.587534   -2.843216    0.490796
    107          6           0      -15.696670   -1.559138    0.285610
    108          6           0      -15.997342   -5.128033   -0.547761
    109          6           0      -17.070028   -2.896340    1.935036
    110          6           0      -18.416000   -2.292542    2.236311
    111          7           0      -14.199020    1.046125    0.101564
    112          6           0      -15.530473    1.000712    0.439771
    113          6           0      -15.994597    2.296376    0.780283
    114          6           0      -14.859118    3.140519    0.798331
    115          6           0      -13.778517    2.267488    0.487691
    116          6           0      -17.353205    2.681672    1.209801
    117          6           0      -14.283065    4.469765    1.042618
    118          8           0      -14.868302    5.526505    1.315236
    119          6           0      -12.717964    4.350396    0.891424
    120          6           0      -12.301863    5.065940   -0.285234
    121          8           0      -12.502413    4.600068   -1.431845
    122          8           0      -11.765178    6.232472    0.123437
    123          6           0      -11.073513    7.088293   -0.879154
    124          1           0       -8.439480   -0.744696   -0.581322
    125          1           0      -13.091271   -4.982092   -0.777289
    126          1           0      -17.302716   -0.068994    0.656609
    127          1           0       -9.793070    3.724973   -0.355004
    128          1           0       -8.326855    1.372098    0.717900
    129          1           0       -7.597969    1.357941   -1.649083
    130          1           0       -7.367296    2.981579   -1.001767
    131          1           0       -8.713978    2.666249   -2.048562
    132          1           0       -8.503061    3.090214    1.953589
    133          1           0      -10.197070    3.115797    2.540964
    134          1           0      -10.117004    5.382693    2.502642
    135          1           0       -9.393548    5.429379    0.886540
    136          1           0       -7.781129   -4.233669   -0.293646
    137          1           0       -7.360138   -2.556052   -0.709433
    138          1           0       -7.575046   -3.623251   -1.993274
    139          1           0      -11.021195   -7.425078   -2.013568
    140          1           0      -12.057565   -5.942370   -2.333423
    141          1           0      -11.808591   -6.515885   -0.615913
    142          1           0      -15.232570   -4.350241    1.223794
    143          1           0      -17.463149   -2.851158   -0.158233
    144          1           0      -17.081147   -5.201733   -0.462361
    145          1           0      -15.494806   -5.994056   -0.116533
    146          1           0      -15.655676   -5.127311   -1.582171
    147          1           0      -16.361970   -2.458523    2.639246
    148          1           0      -17.097494   -3.914945    2.322011
    149          1           0      -18.985119   -2.053995    1.337997
    150          1           0      -18.248808   -1.374152    2.799447
    151          1           0      -18.960071   -2.902894    2.957049
    152          1           0      -18.112257    2.024978    0.783538
    153          1           0      -17.490805    3.703484    0.855320
    154          1           0      -17.356717    2.565469    2.293826
    155          1           0      -12.151656    4.605099    1.787272
    156          1           0      -11.312787    8.075488   -0.481133
    157          1           0      -11.406013    6.928309   -1.904378
    158          1           0       -9.990821    7.056591   -0.752625
 ---------------------------------------------------------------------

 SCF Done:  E(RwB97XD) =  -4070.57899934     A.U. after   19 cycles

 Excitation energies and oscillator strengths:

 Excited State   1:      Singlet-A      1.6715 eV  741.75 nm  f=0.4943  <S**2>=0.000
     310 -> 316        0.15829
     311 -> 313        0.61853
     312 -> 314       -0.29334
     310 <- 316        0.10118
 This state for optimization and/or second-order correction.
 Total Energy, E(TD-HF/TD-DFT) =  -4070.51757236
 Copying the excited state density for this state as the 1-particle RhoCI density.

 Excited State   2:      Singlet-A      1.6782 eV  738.79 nm  f=0.2530  <S**2>=0.000
     309 -> 315       -0.17342
     311 -> 313        0.29523
     312 -> 314        0.61368
     309 <- 315       -0.10424

 Excited State   3:      Singlet-A      2.2045 eV  562.41 nm  f=0.1145  <S**2>=0.000
     310 -> 313        0.63532
     311 -> 316       -0.29118

 Excited State   4:      Singlet-A      2.2165 eV  559.38 nm  f=0.0062  <S**2>=0.000
     309 -> 314        0.55054
     312 -> 315        0.43362

 Excited State   5:      Singlet-A      3.5129 eV  352.94 nm  f=0.0000  <S**2>=0.000
     312 -> 313        0.70702

 The electronic state is 1-A.
 Alpha  occ. eigenvalues --  -46.95791 -46.94802 -19.31640 -19.31408 -19.24745
 Alpha  occ. eigenvalues --  -19.24628 -19.24560 -19.24524 -19.23805 -19.23706
 Alpha  occ. eigenvalues --  -14.47114 -14.46909 -14.46713 -14.46509 -14.44103
 Alpha  occ. eigenvalues --  -14.44005 -14.43748 -14.42977 -10.43608 -10.43266
 Alpha  occ. eigenvalues --  -10.39690 -10.39410 -10.39339 -10.38926 -10.36518
 Alpha  occ. eigenvalues --  -10.35646 -10.35473 -10.35445 -10.35426 -10.35379
 Alpha  occ. eigenvalues --  -10.35330 -10.35037 -10.34969 -10.34535 -10.34464
 Alpha  occ. eigenvalues --  -10.34450 -10.33632 -10.33146 -10.33080 -10.33039
 Alpha  occ. eigenvalues --  -10.32997 -10.32926 -10.32802 -10.32627 -10.32568
 Alpha  occ. eigenvalues --  -10.32344 -10.32339 -10.32252 -10.32204 -10.32123
 Alpha  occ. eigenvalues --  -10.32085 -10.32067 -10.31993 -10.31906 -10.31901
 Alpha  occ. eigenvalues --  -10.31743 -10.31584 -10.31463 -10.31417 -10.31270
 Alpha  occ. eigenvalues --  -10.31214 -10.31066 -10.31062 -10.30981 -10.30921
 Alpha  occ. eigenvalues --  -10.30896 -10.30858 -10.30527 -10.30407 -10.30377
 Alpha  occ. eigenvalues --  -10.30249 -10.30205 -10.30159 -10.30143 -10.29986
 Alpha  occ. eigenvalues --  -10.29810 -10.29805 -10.29636 -10.29596 -10.29238
 Alpha  occ. eigenvalues --  -10.29205 -10.29045 -10.28948 -10.28917 -10.28832
 Alpha  occ. eigenvalues --  -10.28787  -3.21595  -3.20842  -1.95175  -1.94700
 Alpha  occ. eigenvalues --   -1.94561  -1.94408  -1.93946  -1.93834  -1.18741
 Alpha  occ. eigenvalues --   -1.18252  -1.14156  -1.14009  -1.10811  -1.10076
 Alpha  occ. eigenvalues --   -1.09491  -1.09343  -1.06155  -1.06084  -1.05172
 Alpha  occ. eigenvalues --   -1.05092  -1.04778  -1.04708  -1.03694  -1.03449
 Alpha  occ. eigenvalues --   -0.94094  -0.93191  -0.91453  -0.91135  -0.90882
 Alpha  occ. eigenvalues --   -0.90625  -0.90614  -0.90062  -0.89519  -0.89218
 Alpha  occ. eigenvalues --   -0.89182  -0.88562  -0.88355  -0.87402  -0.86649
 Alpha  occ. eigenvalues --   -0.86306  -0.86062  -0.85690  -0.85114  -0.84577
 Alpha  occ. eigenvalues --   -0.84490  -0.83766  -0.83036  -0.82654  -0.82413
 Alpha  occ. eigenvalues --   -0.82192  -0.80233  -0.79586  -0.79489  -0.79263
 Alpha  occ. eigenvalues --   -0.78539  -0.78469  -0.78097  -0.77413  -0.77027
 Alpha  occ. eigenvalues --   -0.76899  -0.74659  -0.74175  -0.73641  -0.73436
 Alpha  occ. eigenvalues --   -0.71171  -0.70825  -0.70455  -0.69802  -0.69643
 Alpha  occ. eigenvalues --   -0.69436  -0.69167  -0.68344  -0.67580  -0.67433
 Alpha  occ. eigenvalues --   -0.67040  -0.66934  -0.66915  -0.66496  -0.66455
 Alpha  occ. eigenvalues --   -0.66308  -0.64148  -0.64070  -0.62115  -0.61978
 Alpha  occ. eigenvalues --   -0.61542  -0.61315  -0.61095  -0.60457  -0.60391
 Alpha  occ. eigenvalues --   -0.60237  -0.60126  -0.59410  -0.59077  -0.59060
 Alpha  occ. eigenvalues --   -0.58309  -0.58016  -0.57924  -0.57480  -0.57059
 Alpha  occ. eigenvalues --   -0.56894  -0.56558  -0.56290  -0.56137  -0.55979
 Alpha  occ. eigenvalues --   -0.55932  -0.55698  -0.55502  -0.55032  -0.54897
 Alpha  occ. eigenvalues --   -0.54754  -0.54636  -0.54574  -0.54419  -0.54355
 Alpha  occ. eigenvalues --   -0.54287  -0.53877  -0.53559  -0.53320  -0.53268
 Alpha  occ. eigenvalues --   -0.53077  -0.52505  -0.52391  -0.52330  -0.52198
 Alpha  occ. eigenvalues --   -0.52192  -0.52097  -0.52010  -0.51860  -0.51685
 Alpha  occ. eigenvalues --   -0.51491  -0.51098  -0.51073  -0.50896  -0.50816
 Alpha  occ. eigenvalues --   -0.50577  -0.50314  -0.50179  -0.50099  -0.49977
 Alpha  occ. eigenvalues --   -0.49897  -0.49802  -0.49383  -0.49382  -0.49351
 Alpha  occ. eigenvalues --   -0.48822  -0.48548  -0.48486  -0.48293  -0.48167
 Alpha  occ. eigenvalues --   -0.48164  -0.48022  -0.47959  -0.47781  -0.47505
 Alpha  occ. eigenvalues --   -0.47309  -0.47174  -0.46984  -0.46806  -0.46614
 Alpha  occ. eigenvalues --   -0.46548  -0.46483  -0.46311  -0.46172  -0.46041
 Alpha  occ. eigenvalues --   -0.45996  -0.45762  -0.45669  -0.45414  -0.45368
 Alpha  occ. eigenvalues --   -0.45219  -0.45179  -0.45016  -0.44923  -0.44800
 Alpha  occ. eigenvalues --   -0.44645  -0.44441  -0.44303  -0.44158  -0.43984
 Alpha  occ. eigenvalues --   -0.43860  -0.43765  -0.43505  -0.43485  -0.43416
 Alpha  occ. eigenvalues --   -0.43049  -0.42711  -0.42435  -0.42140  -0.42043
 Alpha  occ. eigenvalues --   -0.41933  -0.41728  -0.41018  -0.40782  -0.40474
 Alpha  occ. eigenvalues --   -0.40313  -0.40058  -0.39795  -0.39505  -0.39257
 Alpha  occ. eigenvalues --   -0.39195  -0.39177  -0.39008  -0.38702  -0.38100
 Alpha  occ. eigenvalues --   -0.37861  -0.36808  -0.36168  -0.36075  -0.36073
 Alpha  occ. eigenvalues --   -0.35852  -0.35223  -0.35126  -0.33962  -0.33950
 Alpha  occ. eigenvalues --   -0.33405  -0.32911  -0.32664  -0.32662  -0.32592
 Alpha  occ. eigenvalues --   -0.32263  -0.31489  -0.30994  -0.26229  -0.26141
 Alpha  occ. eigenvalues --   -0.22996  -0.22040
 Alpha virt. eigenvalues --   -0.07022  -0.05918  -0.00632   0.00296   0.02053
 Alpha virt. eigenvalues --    0.02725   0.04442   0.04861   0.05039   0.05511
 Alpha virt. eigenvalues --    0.06828   0.07229   0.07305   0.07740   0.08177

 Mulliken charges:
               1
     1  Mg   0.942917
     2  C    0.041557
     3  C   -0.129194
     4  C   -0.076099
     5  C   -0.077258
     6  N   -0.336219
     7  C   -0.017656
     8  C   -0.079469
     9  C   -0.155284
    10  C    0.135859
    11  C    0.022028
    12  C    0.093431
    13  C   -0.136382
    14  H    0.008715
    15  N   -0.446322
    16  C    0.165833
    17  C   -0.153298
    18  C   -0.107805
    19  C    0.164939
    20  C    0.056666
    21  C    0.032401
    22  O   -0.217378
    23  C    0.006474
    24  N   -0.392385
    25  C    0.060426
    26  C   -0.103399
    27  C   -0.058560
    28  C    0.088872
    29  C    0.029672
    30  C   -0.034521
    31  C   -0.028624
    32  N   -0.416578
    33  C    0.095712
    34  C   -0.195826
    35  C   -0.011767
    36  C    0.105045
    37  C    0.075131
    38  C    0.122559
    39  O   -0.234973
    40  C   -0.139098
    41  C    0.281225
    42  O   -0.275298
    43  O   -0.340322
    44  C    0.131828
    45  H   -0.010032
    46  H    0.029268
    47  H   -0.008217
    48  H    0.017252
    49  H    0.025385
    50  H    0.050796
    51  H    0.035186
    52  H    0.035680
    53  H    0.016167
    54  H    0.073533
    55  H    0.051871
    56  H    0.043354
    57  H    0.051713
    58  H    0.037598
    59  H    0.072702
    60  H    0.062117
    61  H    0.066173
    62  H    0.055536
    63  H    0.043048
    64  H    0.031551
    65  H    0.039742
    66  H    0.045890
    67  H    0.038612
    68  H    0.026745
    69  H    0.028184
    70  H    0.044919
    71  H    0.030330
    72  H    0.041896
    73  H    0.063189
    74  H    0.057503
    75  H    0.033396
    76  H    0.090131
    77  H    0.069734
    78  H    0.052480
    79  H    0.058996
    80  Mg   0.984440
    81  C   -0.043337
    82  C   -0.131998
    83  C   -0.102619
    84  C   -0.063622
    85  N   -0.377800
    86  C    0.011534
    87  C   -0.047426
    88  C   -0.123628
    89  C    0.121246
    90  C    0.014103
    91  C    0.012316
    92  C   -0.135731
    93  H    0.034189
    94  N   -0.504901
    95  C    0.212692
    96  C   -0.172286
    97  C   -0.054790
    98  C    0.150133
    99  C    0.106097
   100  C    0.008222
   101  O   -0.195092
   102  C   -0.027882
   103  N   -0.393400
   104  C    0.110710
   105  C   -0.081170
   106  C   -0.082658
   107  C    0.108064
   108  C    0.029358
   109  C   -0.045280
   110  C   -0.025398
   111  N   -0.385757
   112  C    0.093588
   113  C   -0.223202
   114  C    0.000565
   115  C    0.116238
   116  C    0.079650
   117  C    0.128992
   118  O   -0.222538
   119  C   -0.072579
   120  C    0.292498
   121  O   -0.280040
   122  O   -0.349439
   123  C    0.124694
   124  H   -0.016540
   125  H   -0.040329
   126  H   -0.012937
   127  H    0.028286
   128  H    0.045711
   129  H    0.027715
   130  H    0.042957
   131  H    0.042878
   132  H    0.041268
   133  H    0.048423
   134  H    0.069369
   135  H    0.032906
   136  H    0.062011
   137  H    0.011729
   138  H    0.062582
   139  H    0.058164
   140  H    0.066088
   141  H    0.068558
   142  H    0.046847
   143  H    0.038308
   144  H    0.041238
   145  H    0.031677
   146  H    0.038507
   147  H    0.030447
   148  H    0.021477
   149  H    0.035960
   150  H    0.030013
   151  H    0.032872
   152  H    0.030526
   153  H    0.066704
   154  H    0.060749
   155  H    0.055832
   156  H    0.061684
   157  H    0.085052
   158  H    0.056513
 Sum of Mulliken charges =  -0.00000

 Dipole moment (field-independent basis, Debye):
    X=              4.8576    Y=             -0.1595    Z=             -2.1777  Tot=              5.3258
 Quadrupole moment (field-independent basis, Debye-Ang):
   XX=           -441.2126   YY=           -522.8056   ZZ=           -480.4173
   XY=             79.2512   XZ=            -35.9454   YZ=            -15.5663

 Normal termination of Gaussian 16 at Sun Sep 19 14:03:59 2021.
