 Gaussian 16, Revision A.03,
 Gaussian 16:  ES64L-G16RevA.03 25-Dec-2016

 --------------------------------
 #p wB97XD/Def2SVP td=(nstates=5)
 --------------------------------

 --------------------------------
 TDDFT excited states in gaussian
 --------------------------------
 Symbolic Z-matrix:
 Charge =  0 Multiplicity = 1

                         Standard orientation:
 ---------------------------------------------------------------------
 Center     Atomic      Atomic             Coordinates (Angstroms)
 Number     Number       Type             X           Y           Z
 ---------------------------------------------------------------------
      1         12           0       12.845753   -0.090124    0.466817
      2          6           0        9.338586   -0.504579   -0.515735
      3          6           0       13.292127    1.540951   -2.601778
      4          6           0       16.041870    0.006927    1.101638
      5          6           0       12.135757   -1.552674    3.486549
      6          7           0       11.543223    0.264405   -1.409704
      7          6           0       10.098931    0.133758   -1.557532
      8          6           0        9.566958    0.612589   -2.925356
      9          6           0       10.980700    1.072902   -3.610882
     10          6           0       12.046535    0.954638   -2.503826
     11          6           0       11.335632    0.294176   -4.862648
     12          6           0        8.470958    1.704685   -2.736587
     13          6           0        8.092671    2.456207   -3.977393
     14          1           0        6.634877    2.725772   -4.277129
     15          7           0       14.497337    0.652217   -0.606721
     16          6           0       14.489184    1.298292   -1.848134
     17          6           0       15.847346    1.711025   -2.197033
     18          6           0       16.696384    1.270508   -1.100670
     19          6           0       15.775465    0.600816   -0.109447
     20          6           0       16.235937    2.550848   -3.468719
     21          6           0       18.167506    1.347465   -0.903521
     22          8           0       18.763060    0.960943    0.093306
     23          6           0       19.010011    2.030708   -1.899380
     24          7           0       13.894790   -0.585276    2.053438
     25          6           0       15.229023   -0.576015    2.059430
     26          6           0       15.824111   -1.089481    3.391549
     27          6           0       14.583822   -1.148401    4.258873
     28          6           0       13.421832   -1.161638    3.191525
     29          6           0       16.524413   -2.436856    3.258545
     30          6           0       14.290482   -0.138399    5.337888
     31          6           0       14.089635    1.273830    4.831139
     32          7           0       11.152583   -0.964293    1.307506
     33          6           0       11.009642   -1.437571    2.624332
     34          6           0        9.649745   -1.877577    2.816506
     35          6           0        9.014091   -1.439710    1.626221
     36          6           0        9.955353   -0.903871    0.726696
     37          6           0        9.014187   -2.446525    4.051378
     38          6           0        7.650267   -1.348209    1.018997
     39          8           0        6.522894   -1.595898    1.497768
     40          6           0        7.859399   -0.773776   -0.380366
     41          6           0        7.265198   -1.717510   -1.428032
     42          8           0        7.589535   -2.901219   -1.740309
     43          8           0        6.349264   -0.996247   -2.135285
     44          6           0        5.708203   -1.704617   -3.266263
     45          1           0       13.382825    2.218050   -3.452552
     46          1           0       17.113792   -0.028915    1.306716
     47          1           0       11.842519   -2.048889    4.414163
     48          1           0        9.061618   -0.254455   -3.350656
     49          1           0       10.947258    2.146432   -3.796777
     50          1           0       11.438428    0.997519   -5.689487
     51          1           0       10.494085   -0.369412   -5.058330
     52          1           0       12.106036   -0.472014   -4.778598
     53          1           0        8.809742    2.313817   -1.897845
     54          1           0        7.567816    1.225007   -2.359104
     55          1           0        8.382468    2.015271   -4.930893
     56          1           0        8.488063    3.469644   -3.915070
     57          1           0       16.642938    3.480600   -3.070158
     58          1           0       15.386354    2.787805   -4.108976
     59          1           0       16.984716    1.963970   -4.000852
     60          1           0       18.758440    1.786891   -2.931752
     61          1           0       20.012909    1.670540   -1.672797
     62          1           0       18.734744    3.079588   -1.793296
     63          1           0       16.558561   -0.352236    3.716022
     64          1           0       14.535045   -2.068524    4.841871
     65          1           0       17.431342   -2.414588    3.861664
     66          1           0       16.801831   -2.637450    2.224250
     67          1           0       15.928844   -3.219021    3.730680
     68          1           0       15.071387   -0.221874    6.094246
     69          1           0       13.320143   -0.328156    5.796430
     70          1           0       14.638202    2.003208    5.425981
     71          1           0       13.052884    1.603562    4.902041
     72          1           0       14.414300    1.432883    3.802765
     73          1           0        8.115844   -1.879469    4.294128
     74          1           0        9.573280   -2.516059    4.984449
     75          1           0        8.724361   -3.470038    3.812715
     76          1           0        7.276029    0.144015   -0.459459
     77          1           0        6.179373   -1.405321   -4.202260
     78          1           0        4.680256   -1.382094   -3.100658
     79          1           0        5.688125   -2.785799   -3.123472
     80         12           0      -12.284813   -0.469860   -0.365641
     81          6           0      -12.084625    2.789983    0.777546
     82          6           0       -8.888472   -0.421603   -1.018553
     83          6           0      -12.408224   -3.823012   -0.734397
     84          6           0      -15.649515   -0.415537    0.689573
     85          7           0      -10.614240    0.938752    0.127592
     86          6           0      -10.846985    2.226072    0.398620
     87          6           0       -9.496933    2.994224    0.543495
     88          6           0       -8.516599    2.046543   -0.296322
     89          6           0       -9.408631    0.761356   -0.491831
     90          6           0       -7.968106    2.726993   -1.573684
     91          6           0       -9.068304    3.039194    1.992518
     92          6           0       -8.468400    4.356837    2.457857
     93          1           0       -7.268986    4.435953    3.475834
     94          7           0      -10.819599   -1.888451   -0.997704
     95          6           0       -9.494135   -1.720452   -1.144955
     96          6           0       -8.948279   -2.966694   -1.575168
     97          6           0       -9.984360   -3.944094   -1.675707
     98          6           0      -11.168065   -3.244859   -1.160578
     99          6           0       -7.542707   -3.082493   -2.036985
    100          6           0       -9.753211   -5.374641   -2.011152
    101          8           0       -8.638421   -5.758882   -2.323441
    102          6           0      -10.896414   -6.381880   -2.044883
    103          7           0      -13.919596   -1.945496   -0.127977
    104          6           0      -13.626553   -3.266435   -0.287668
    105          6           0      -14.752198   -4.119176    0.200554
    106          6           0      -15.793903   -2.995384    0.666714
    107          6           0      -15.156621   -1.665016    0.350845
    108          6           0      -15.283433   -5.137547   -0.825511
    109          6           0      -16.295931   -3.092312    2.175194
    110          6           0      -17.807689   -3.085063    2.502539
    111          7           0      -13.608183    0.860132    0.506454
    112          6           0      -14.932190    0.766856    0.800659
    113          6           0      -15.466581    2.038320    1.013590
    114          6           0      -14.397911    2.923852    0.999516
    115          6           0      -13.286935    2.153812    0.762562
    116          6           0      -16.960419    2.323696    1.346449
    117          6           0      -14.004135    4.249117    1.118153
    118          8           0      -14.685346    5.212875    1.450229
    119          6           0      -12.403260    4.303880    1.027049
    120          6           0      -11.960793    5.028932   -0.108924
    121          8           0      -11.925890    4.718588   -1.302056
    122          8           0      -11.513076    6.255929    0.370959
    123          6           0      -10.985681    7.261715   -0.535186
    124          1           0       -7.856989   -0.366191   -1.372058
    125          1           0      -12.601627   -4.895060   -0.816166
    126          1           0      -16.718444   -0.490572    0.900359
    127          1           0       -9.643181    4.001198    0.153690
    128          1           0       -7.686901    1.641768    0.282303
    129          1           0       -8.426662    3.701219   -1.741982
    130          1           0       -8.144317    2.080703   -2.434135
    131          1           0       -6.886668    2.804356   -1.463784
    132          1           0       -8.396837    2.256227    2.345516
    133          1           0       -9.965386    2.763601    2.546922
    134          1           0       -9.300789    4.965230    2.811126
    135          1           0       -8.147729    4.786041    1.508633
    136          1           0       -7.642422   -3.019603   -3.120430
    137          1           0       -7.091614   -4.021590   -1.715924
    138          1           0       -6.901963   -2.281409   -1.668299
    139          1           0      -11.075992   -6.656434   -1.005314
    140          1           0      -10.479776   -7.281678   -2.496859
    141          1           0      -11.768675   -5.960800   -2.544669
    142          1           0      -14.263112   -4.610798    1.040887
    143          1           0      -16.745884   -3.090363    0.144369
    144          1           0      -14.923166   -6.111059   -0.491331
    145          1           0      -14.967772   -4.917371   -1.845830
    146          1           0      -16.371509   -5.167268   -0.773389
    147          1           0      -15.875959   -2.251887    2.727646
    148          1           0      -15.982267   -4.013047    2.667583
    149          1           0      -17.960087   -2.011917    2.616842
    150          1           0      -17.990108   -3.568713    3.461304
    151          1           0      -18.537516   -3.322939    1.728788
    152          1           0      -17.148334    2.016332    2.374401
    153          1           0      -17.696352    1.758655    0.774079
    154          1           0      -17.182348    3.387610    1.258683
    155          1           0      -12.067983    4.710535    1.981281
    156          1           0      -11.222850    8.233353   -0.102956
    157          1           0      -11.287362    7.152558   -1.577243
    158          1           0       -9.898093    7.211667   -0.480878
 ---------------------------------------------------------------------

 SCF Done:  E(RwB97XD) =  -4070.59762264     A.U. after   20 cycles

 Excitation energies and oscillator strengths:

 Excited State   1:      Singlet-A      1.6106 eV  769.79 nm  f=0.4349  <S**2>=0.000
     310 -> 316       -0.16956
     312 -> 313        0.68306
     310 <- 316       -0.11324
 This state for optimization and/or second-order correction.
 Total Energy, E(TD-HF/TD-DFT) =  -4070.53843324
 Copying the excited state density for this state as the 1-particle RhoCI density.

 Excited State   2:      Singlet-A      1.6378 eV  757.01 nm  f=0.3729  <S**2>=0.000
     309 -> 315       -0.19008
     311 -> 314        0.67907
     309 <- 315       -0.11908

 Excited State   3:      Singlet-A      2.1161 eV  585.90 nm  f=0.1358  <S**2>=0.000
     310 -> 313        0.64973
     312 -> 316        0.25749

 Excited State   4:      Singlet-A      2.1722 eV  570.78 nm  f=0.0967  <S**2>=0.000
     309 -> 314        0.63453
     311 -> 315        0.29662

 Excited State   5:      Singlet-A      3.2645 eV  379.80 nm  f=0.0056  <S**2>=0.000
     304 -> 313       -0.31812
     308 -> 313        0.60981

 The electronic state is 1-A.
 Alpha  occ. eigenvalues --  -46.95961 -46.94104 -19.30968 -19.29830 -19.25080
 Alpha  occ. eigenvalues --  -19.24591 -19.24259 -19.23852 -19.23485 -19.23290
 Alpha  occ. eigenvalues --  -14.47140 -14.46855 -14.46771 -14.46545 -14.44610
 Alpha  occ. eigenvalues --  -14.44351 -14.43748 -14.43425 -10.43809 -10.43398
 Alpha  occ. eigenvalues --  -10.39192 -10.38736 -10.38638 -10.38499 -10.36010
 Alpha  occ. eigenvalues --  -10.35624 -10.35571 -10.35512 -10.35494 -10.35372
 Alpha  occ. eigenvalues --  -10.35323 -10.35268 -10.35151 -10.35087 -10.34820
 Alpha  occ. eigenvalues --  -10.34798 -10.34742 -10.34593 -10.33739 -10.33363
 Alpha  occ. eigenvalues --  -10.33210 -10.33028 -10.32989 -10.32915 -10.32875
 Alpha  occ. eigenvalues --  -10.32718 -10.32698 -10.32617 -10.32599 -10.32590
 Alpha  occ. eigenvalues --  -10.32444 -10.32420 -10.32407 -10.32330 -10.32285
 Alpha  occ. eigenvalues --  -10.32167 -10.32152 -10.31848 -10.31843 -10.31820
 Alpha  occ. eigenvalues --  -10.31613 -10.31560 -10.31416 -10.31362 -10.31008
 Alpha  occ. eigenvalues --  -10.31005 -10.30990 -10.30789 -10.30677 -10.30671
 Alpha  occ. eigenvalues --  -10.30635 -10.30385 -10.30137 -10.29901 -10.29833
 Alpha  occ. eigenvalues --  -10.29797 -10.29788 -10.29735 -10.29669 -10.29630
 Alpha  occ. eigenvalues --  -10.29552 -10.29483 -10.28800 -10.28739 -10.28694
 Alpha  occ. eigenvalues --  -10.28364  -3.21751  -3.20260  -1.95348  -1.94863
 Alpha  occ. eigenvalues --   -1.94709  -1.93859  -1.93398  -1.93238  -1.18166
 Alpha  occ. eigenvalues --   -1.17856  -1.12649  -1.12223  -1.12116  -1.09987
 Alpha  occ. eigenvalues --   -1.09660  -1.07935  -1.07494  -1.07051  -1.06018
 Alpha  occ. eigenvalues --   -1.05805  -1.04803  -1.04599  -1.04353  -1.02610
 Alpha  occ. eigenvalues --   -0.95838  -0.94246  -0.91550  -0.91342  -0.90929
 Alpha  occ. eigenvalues --   -0.90818  -0.90557  -0.90202  -0.89766  -0.89261
 Alpha  occ. eigenvalues --   -0.88993  -0.88782  -0.88099  -0.87792  -0.87309
 Alpha  occ. eigenvalues --   -0.86674  -0.86466  -0.85925  -0.84886  -0.84857
 Alpha  occ. eigenvalues --   -0.84278  -0.84090  -0.83389  -0.83359  -0.82679
 Alpha  occ. eigenvalues --   -0.82041  -0.80525  -0.80070  -0.79492  -0.79183
 Alpha  occ. eigenvalues --   -0.78705  -0.78439  -0.78361  -0.77883  -0.77446
 Alpha  occ. eigenvalues --   -0.77057  -0.75436  -0.74733  -0.74318  -0.73916
 Alpha  occ. eigenvalues --   -0.72210  -0.71772  -0.71404  -0.71139  -0.70023
 Alpha  occ. eigenvalues --   -0.69626  -0.69280  -0.69163  -0.68031  -0.67775
 Alpha  occ. eigenvalues --   -0.67425  -0.67038  -0.66799  -0.66658  -0.66274
 Alpha  occ. eigenvalues --   -0.65799  -0.64653  -0.63907  -0.62422  -0.62246
 Alpha  occ. eigenvalues --   -0.61858  -0.61145  -0.61076  -0.61031  -0.61003
 Alpha  occ. eigenvalues --   -0.60289  -0.60102  -0.59937  -0.59666  -0.59385
 Alpha  occ. eigenvalues --   -0.58298  -0.58268  -0.58044  -0.57860  -0.57456
 Alpha  occ. eigenvalues --   -0.57392  -0.57218  -0.56730  -0.56708  -0.56260
 Alpha  occ. eigenvalues --   -0.56229  -0.55448  -0.55431  -0.55263  -0.55037
 Alpha  occ. eigenvalues --   -0.54698  -0.54522  -0.54397  -0.54191  -0.54088
 Alpha  occ. eigenvalues --   -0.53984  -0.53941  -0.53743  -0.53382  -0.53142
 Alpha  occ. eigenvalues --   -0.53074  -0.52797  -0.52702  -0.52293  -0.52233
 Alpha  occ. eigenvalues --   -0.52098  -0.52014  -0.51872  -0.51693  -0.51524
 Alpha  occ. eigenvalues --   -0.51455  -0.51355  -0.50908  -0.50861  -0.50747
 Alpha  occ. eigenvalues --   -0.50717  -0.50539  -0.50418  -0.50260  -0.50133
 Alpha  occ. eigenvalues --   -0.50029  -0.49660  -0.49537  -0.49377  -0.48923
 Alpha  occ. eigenvalues --   -0.48771  -0.48693  -0.48644  -0.48577  -0.48467
 Alpha  occ. eigenvalues --   -0.48433  -0.48086  -0.48008  -0.47929  -0.47832
 Alpha  occ. eigenvalues --   -0.47695  -0.47579  -0.47379  -0.47351  -0.47188
 Alpha  occ. eigenvalues --   -0.47027  -0.46822  -0.46591  -0.46471  -0.46423
 Alpha  occ. eigenvalues --   -0.46264  -0.46105  -0.45851  -0.45762  -0.45495
 Alpha  occ. eigenvalues --   -0.45378  -0.45313  -0.45154  -0.45017  -0.44757
 Alpha  occ. eigenvalues --   -0.44592  -0.44458  -0.44119  -0.44088  -0.43936
 Alpha  occ. eigenvalues --   -0.43843  -0.43790  -0.43727  -0.43721  -0.43266
 Alpha  occ. eigenvalues --   -0.43225  -0.42851  -0.42822  -0.42397  -0.42141
 Alpha  occ. eigenvalues --   -0.41877  -0.41556  -0.41151  -0.40995  -0.40794
 Alpha  occ. eigenvalues --   -0.40219  -0.40080  -0.39841  -0.39335  -0.39308
 Alpha  occ. eigenvalues --   -0.39167  -0.39139  -0.38784  -0.38473  -0.38230
 Alpha  occ. eigenvalues --   -0.38105  -0.37515  -0.36779  -0.36429  -0.36296
 Alpha  occ. eigenvalues --   -0.36053  -0.35695  -0.35295  -0.33969  -0.33723
 Alpha  occ. eigenvalues --   -0.33257  -0.33208  -0.32607  -0.32585  -0.32550
 Alpha  occ. eigenvalues --   -0.32288  -0.31574  -0.31289  -0.26415  -0.26177
 Alpha  occ. eigenvalues --   -0.23281  -0.23279
 Alpha virt. eigenvalues --   -0.07648  -0.07483  -0.00308   0.00259   0.01960
 Alpha virt. eigenvalues --    0.02375   0.04302   0.04516   0.05736   0.06257
 Alpha virt. eigenvalues --    0.06282   0.06695   0.07270   0.07697   0.08204

 Mulliken charges:
               1
     1  Mg   0.975041
     2  C   -0.025685
     3  C   -0.091618
     4  C   -0.091521
     5  C   -0.077750
     6  N   -0.366102
     7  C   -0.005898
     8  C   -0.064713
     9  C   -0.111850
    10  C    0.088877
    11  C    0.051891
    12  C   -0.005965
    13  C   -0.128031
    14  H    0.028974
    15  N   -0.467367
    16  C    0.163082
    17  C   -0.170442
    18  C   -0.057401
    19  C    0.152418
    20  C    0.067314
    21  C    0.022042
    22  O   -0.243524
    23  C    0.001878
    24  N   -0.422533
    25  C    0.103980
    26  C   -0.088141
    27  C   -0.066179
    28  C    0.109892
    29  C    0.042985
    30  C    0.010302
    31  C   -0.067807
    32  N   -0.449768
    33  C    0.078912
    34  C   -0.151518
    35  C   -0.101639
    36  C    0.167207
    37  C    0.064798
    38  C    0.158614
    39  O   -0.236391
    40  C   -0.063657
    41  C    0.279078
    42  O   -0.286633
    43  O   -0.366398
    44  C    0.125283
    45  H   -0.007313
    46  H    0.021587
    47  H    0.001319
    48  H    0.052121
    49  H    0.035044
    50  H    0.045572
    51  H    0.021965
    52  H    0.048145
    53  H    0.034750
    54  H    0.058159
    55  H    0.052601
    56  H    0.055169
    57  H    0.061359
    58  H    0.044205
    59  H    0.067027
    60  H    0.027205
    61  H    0.066569
    62  H    0.059720
    63  H    0.041402
    64  H    0.013879
    65  H    0.035634
    66  H    0.048300
    67  H    0.036564
    68  H    0.035152
    69  H    0.029053
    70  H    0.029045
    71  H    0.034914
    72  H    0.040807
    73  H    0.061423
    74  H    0.026445
    75  H    0.055597
    76  H    0.079478
    77  H    0.065864
    78  H    0.060778
    79  H    0.076428
    80  Mg   0.938908
    81  C   -0.063499
    82  C   -0.087877
    83  C   -0.039672
    84  C   -0.124333
    85  N   -0.332172
    86  C    0.013056
    87  C   -0.124744
    88  C   -0.102960
    89  C    0.083706
    90  C    0.035760
    91  C    0.029558
    92  C   -0.116672
    93  H    0.045207
    94  N   -0.455819
    95  C    0.158283
    96  C   -0.181858
    97  C   -0.057430
    98  C    0.198464
    99  C    0.076033
   100  C    0.004801
   101  O   -0.235794
   102  C    0.002871
   103  N   -0.353965
   104  C   -0.009573
   105  C   -0.086564
   106  C   -0.051219
   107  C    0.062131
   108  C    0.022927
   109  C   -0.053237
   110  C   -0.067781
   111  N   -0.434015
   112  C    0.194486
   113  C   -0.187503
   114  C    0.053602
   115  C    0.162176
   116  C    0.075209
   117  C    0.056146
   118  O   -0.207239
   119  C   -0.077369
   120  C    0.295291
   121  O   -0.257403
   122  O   -0.388842
   123  C    0.139830
   124  H    0.000076
   125  H   -0.030078
   126  H   -0.003743
   127  H    0.036929
   128  H    0.046177
   129  H    0.048743
   130  H    0.033813
   131  H    0.036245
   132  H    0.037572
   133  H    0.027137
   134  H    0.055588
   135  H    0.044326
   136  H    0.060443
   137  H    0.066048
   138  H    0.024833
   139  H    0.059469
   140  H    0.052033
   141  H    0.063444
   142  H    0.053140
   143  H    0.023968
   144  H    0.042424
   145  H    0.053086
   146  H    0.040335
   147  H    0.043681
   148  H    0.030944
   149  H    0.022285
   150  H    0.047970
   151  H    0.040037
   152  H    0.047424
   153  H    0.037711
   154  H    0.062100
   155  H    0.083031
   156  H    0.056740
   157  H    0.068713
   158  H    0.036454
 Sum of Mulliken charges =  -0.00000

 Dipole moment (field-independent basis, Debye):
    X=              1.3140    Y=              1.9818    Z=             -2.2071  Tot=              3.2443
 Quadrupole moment (field-independent basis, Debye-Ang):
   XX=           -429.1510   YY=           -520.4875   ZZ=           -479.0181
   XY=            102.4198   XZ=            -34.5412   YZ=            -27.0611

 Normal termination of Gaussian 16 at Sun Sep 19 01:19:39 2021.
