 Gaussian 16, Revision A.03,
 Gaussian 16:  ES64L-G16RevA.03 25-Dec-2016

 --------------------------------
 #p wB97XD/Def2SVP td=(nstates=5)
 --------------------------------

 --------------------------------
 TDDFT excited states in gaussian
 --------------------------------
 Symbolic Z-matrix:
 Charge =  0 Multiplicity = 1

                         Standard orientation:
 ---------------------------------------------------------------------
 Center     Atomic      Atomic             Coordinates (Angstroms)
 Number     Number       Type             X           Y           Z
 ---------------------------------------------------------------------
      1         12           0       25.560908   -0.913109    0.026711
      2          6           0       26.291379    2.577484   -0.421306
      3          6           0       24.980173   -0.125700    3.434587
      4          6           0       24.943010   -4.280680    0.715174
      5          6           0       26.512192   -1.600747   -3.100991
      6          7           0       25.850788    1.068493    1.386715
      7          6           0       26.030466    2.327013    0.931577
      8          6           0       26.065716    3.332552    2.138156
      9          6           0       25.851164    2.343974    3.339542
     10          6           0       25.451546    0.995069    2.698685
     11          6           0       27.112183    2.250949    4.267845
     12          6           0       24.986865    4.412460    2.059756
     13          6           0       25.419977    5.803494    2.388452
     14          1           0       24.409107    6.948740    2.232081
     15          7           0       24.849711   -2.019328    1.716275
     16          6           0       24.694497   -1.500174    2.997299
     17          6           0       24.202635   -2.559774    3.855383
     18          6           0       24.081304   -3.720784    3.109926
     19          6           0       24.713244   -3.396025    1.786835
     20          6           0       24.012109   -2.439048    5.340049
     21          6           0       23.619589   -5.179223    3.518806
     22          8           0       23.540145   -6.153033    2.810642
     23          6           0       23.048263   -5.394644    4.903518
     24          7           0       25.832685   -2.675293   -0.932931
     25          6           0       25.532360   -3.949300   -0.526602
     26          6           0       26.037165   -5.015937   -1.526256
     27          6           0       26.305191   -4.161076   -2.837265
     28          6           0       26.176336   -2.703096   -2.252161
     29          6           0       27.260480   -5.825909   -0.989597
     30          6           0       25.307194   -4.434101   -4.003492
     31          6           0       23.868975   -3.980280   -3.763946
     32          7           0       26.278631    0.163669   -1.464049
     33          6           0       26.587233   -0.237245   -2.793833
     34          6           0       27.039258    0.906395   -3.583125
     35          6           0       26.884420    2.003065   -2.716268
     36          6           0       26.416731    1.532357   -1.460790
     37          6           0       27.471753    0.873336   -4.975199
     38          6           0       27.063881    3.450672   -2.672388
     39          8           0       27.389536    4.219344   -3.561531
     40          6           0       26.770710    3.893317   -1.139199
     41          6           0       25.721432    4.980418   -1.383989
     42          8           0       24.538026    4.845468   -1.743798
     43          8           0       26.286777    6.162783   -1.213128
     44          6           0       25.408984    7.398750   -1.114206
     45          1           0       24.732268    0.141647    4.463622
     46          1           0       24.780080   -5.354308    0.837571
     47          1           0       26.736739   -1.885585   -4.130704
     48          1           0       27.026972    3.835281    2.037056
     49          1           0       24.996997    2.634567    3.952612
     50          1           0       26.944254    2.460749    5.324197
     51          1           0       27.988531    2.770891    3.880374
     52          1           0       27.521734    1.252455    4.422388
     53          1           0       24.438919    4.223121    2.982968
     54          1           0       24.341505    4.313063    1.186286
     55          1           0       26.332889    6.208257    1.948580
     56          1           0       25.626447    5.746324    3.457248
     57          1           0       24.115225   -1.405995    5.671125
     58          1           0       24.691691   -3.040581    5.945732
     59          1           0       23.025961   -2.716540    5.712715
     60          1           0       22.161287   -4.788019    5.085894
     61          1           0       23.906590   -5.152406    5.530253
     62          1           0       22.936693   -6.477538    4.958532
     63          1           0       25.222380   -5.740003   -1.560838
     64          1           0       27.337808   -4.071272   -3.175239
     65          1           0       27.014757   -6.866136   -0.776102
     66          1           0       27.823115   -5.414424   -0.152341
     67          1           0       27.942129   -5.751386   -1.837081
     68          1           0       25.491382   -5.448088   -4.358740
     69          1           0       25.635532   -3.837768   -4.854605
     70          1           0       23.646400   -3.610724   -2.763612
     71          1           0       23.255732   -4.867931   -3.917214
     72          1           0       23.543558   -3.113580   -4.338152
     73          1           0       27.780060    1.835198   -5.385416
     74          1           0       26.615259    0.484844   -5.526050
     75          1           0       28.278278    0.142556   -5.049974
     76          1           0       27.610136    4.427977   -0.694710
     77          1           0       26.035814    8.168474   -0.663434
     78          1           0       24.570298    7.269860   -0.430706
     79          1           0       24.978480    7.703909   -2.068668
     80         12           0      -26.282249   -0.391586   -0.169590
     81          6           0      -24.088720    2.371837   -0.427123
     82          6           0      -27.056598    0.681680    2.834020
     83          6           0      -27.423055   -3.449696    0.358187
     84          6           0      -24.700514   -1.605200   -3.111295
     85          7           0      -25.701708    1.494932    0.941940
     86          6           0      -24.919822    2.472417    0.660036
     87          6           0      -25.105304    3.631586    1.660743
     88          6           0      -25.696701    2.891140    2.965932
     89          6           0      -26.131902    1.548524    2.244018
     90          6           0      -24.690675    2.653685    4.160801
     91          6           0      -26.188497    4.697771    1.108630
     92          6           0      -26.049531    6.217181    1.448061
     93          1           0      -25.339607    6.563002    2.808675
     94          7           0      -27.313266   -1.208743    1.307635
     95          6           0      -27.584463   -0.534614    2.488800
     96          6           0      -28.399735   -1.440927    3.372078
     97          6           0      -28.532058   -2.667253    2.595881
     98          6           0      -27.763492   -2.561538    1.352669
     99          6           0      -28.838161   -1.003702    4.757008
    100          6           0      -29.329113   -3.897953    2.968476
    101          8           0      -29.377484   -4.936182    2.294278
    102          6           0      -30.142469   -3.868908    4.198554
    103          7           0      -26.169341   -2.302702   -1.321559
    104          6           0      -26.703010   -3.398707   -0.813269
    105          6           0      -26.779674   -4.535723   -1.926720
    106          6           0      -25.827610   -3.878212   -3.066166
    107          6           0      -25.576971   -2.490402   -2.482357
    108          6           0      -26.351652   -5.951659   -1.417300
    109          6           0      -26.379083   -3.797589   -4.527476
    110          6           0      -25.717754   -4.676315   -5.557970
    111          7           0      -24.855206    0.305894   -1.669127
    112          6           0      -24.349434   -0.335371   -2.782393
    113          6           0      -23.332778    0.438260   -3.362976
    114          6           0      -23.172115    1.491267   -2.442566
    115          6           0      -24.071197    1.385764   -1.407854
    116          6           0      -22.572715    0.165993   -4.561883
    117          6           0      -22.441059    2.687793   -2.281149
    118          8           0      -21.606130    3.337715   -2.967208
    119          6           0      -22.821692    3.171311   -0.809975
    120          6           0      -23.002454    4.644713   -0.782477
    121          8           0      -23.844765    5.313481   -1.377780
    122          8           0      -22.073051    5.163962    0.173126
    123          6           0      -22.058203    6.619086    0.370042
    124          1           0      -27.387391    1.148600    3.764540
    125          1           0      -27.859406   -4.436798    0.520647
    126          1           0      -24.277111   -1.950609   -4.057448
    127          1           0      -24.109687    3.934461    1.983916
    128          1           0      -26.452894    3.537923    3.409517
    129          1           0      -23.656547    2.825337    3.862886
    130          1           0      -24.709877    1.618956    4.502504
    131          1           0      -24.983527    3.360149    4.937412
    132          1           0      -27.201944    4.391470    1.368341
    133          1           0      -26.221128    4.609107    0.022551
    134          1           0      -27.001673    6.747454    1.485066
    135          1           0      -25.317855    6.624715    0.749340
    136          1           0      -29.882154   -1.249652    4.954448
    137          1           0      -28.698001    0.062532    4.934914
    138          1           0      -28.139800   -1.396590    5.495535
    139          1           0      -29.525197   -3.663802    5.073657
    140          1           0      -30.653147   -4.823437    4.326121
    141          1           0      -30.955635   -3.143131    4.209236
    142          1           0      -27.768783   -4.616412   -2.377409
    143          1           0      -24.818500   -4.292464   -3.047030
    144          1           0      -25.973783   -5.889512   -0.396625
    145          1           0      -25.665537   -6.250776   -2.209944
    146          1           0      -27.215456   -6.603200   -1.542850
    147          1           0      -26.250546   -2.768750   -4.864461
    148          1           0      -27.451057   -3.995917   -4.521220
    149          1           0      -25.070459   -5.316420   -4.959958
    150          1           0      -25.084690   -4.040543   -6.178026
    151          1           0      -26.417727   -5.310030   -6.101121
    152          1           0      -23.295992   -0.040057   -5.350428
    153          1           0      -22.036593   -0.782858   -4.582864
    154          1           0      -21.979393    1.041518   -4.826213
    155          1           0      -22.012382    2.881344   -0.139112
    156          1           0      -21.256259    6.908386    1.049731
    157          1           0      -22.949427    6.899870    0.931580
    158          1           0      -21.871462    7.107272   -0.585882
 ---------------------------------------------------------------------

 SCF Done:  E(RwB97XD) =  -4070.56149401     A.U. after   20 cycles

 Excitation energies and oscillator strengths:

 Excited State   1:      Singlet-A      1.5889 eV  780.34 nm  f=0.3670  <S**2>=0.000
     310 -> 316       -0.18993
     312 -> 313        0.68308
     310 <- 316       -0.12270
 This state for optimization and/or second-order correction.
 Total Energy, E(TD-HF/TD-DFT) =  -4070.50310454
 Copying the excited state density for this state as the 1-particle RhoCI density.

 Excited State   2:      Singlet-A      1.7434 eV  711.18 nm  f=0.3640  <S**2>=0.000
     309 -> 315        0.21776
     311 -> 314        0.67307
     309 <- 315        0.11925

 Excited State   3:      Singlet-A      2.1588 eV  574.31 nm  f=0.0885  <S**2>=0.000
     310 -> 313        0.62443
     312 -> 316        0.32204

 Excited State   4:      Singlet-A      2.1694 eV  571.50 nm  f=0.0792  <S**2>=0.000
     309 -> 314        0.62751
     311 -> 315       -0.30971

 Excited State   5:      Singlet-A      3.3073 eV  374.88 nm  f=0.0359  <S**2>=0.000
     306 -> 314        0.13241
     308 -> 314        0.60483
     311 -> 315        0.28138

 The electronic state is 1-A.
 Alpha  occ. eigenvalues --  -46.95731 -46.94611 -19.30124 -19.29187 -19.25155
 Alpha  occ. eigenvalues --  -19.24524 -19.24385 -19.24036 -19.23537 -19.22950
 Alpha  occ. eigenvalues --  -14.47053 -14.46724 -14.46301 -14.46117 -14.44712
 Alpha  occ. eigenvalues --  -14.44615 -14.44283 -14.43183 -10.43166 -10.42304
 Alpha  occ. eigenvalues --  -10.39559 -10.39401 -10.39093 -10.38531 -10.35964
 Alpha  occ. eigenvalues --  -10.35586 -10.35449 -10.35366 -10.35250 -10.35119
 Alpha  occ. eigenvalues --  -10.35113 -10.35031 -10.34838 -10.34808 -10.34706
 Alpha  occ. eigenvalues --  -10.34680 -10.34639 -10.34444 -10.34289 -10.34015
 Alpha  occ. eigenvalues --  -10.33924 -10.33319 -10.32916 -10.32878 -10.32761
 Alpha  occ. eigenvalues --  -10.32728 -10.32711 -10.32643 -10.32564 -10.32517
 Alpha  occ. eigenvalues --  -10.32486 -10.32461 -10.32450 -10.32396 -10.32389
 Alpha  occ. eigenvalues --  -10.32380 -10.32368 -10.32216 -10.31972 -10.31888
 Alpha  occ. eigenvalues --  -10.31662 -10.31661 -10.31635 -10.31583 -10.31471
 Alpha  occ. eigenvalues --  -10.31323 -10.31013 -10.30835 -10.30751 -10.30663
 Alpha  occ. eigenvalues --  -10.30411 -10.30243 -10.30172 -10.30075 -10.30072
 Alpha  occ. eigenvalues --  -10.30006 -10.29907 -10.29861 -10.29800 -10.29694
 Alpha  occ. eigenvalues --  -10.29673 -10.29585 -10.29444 -10.29223 -10.29194
 Alpha  occ. eigenvalues --  -10.28677  -3.21643  -3.20740  -1.95234  -1.94775
 Alpha  occ. eigenvalues --   -1.94590  -1.94317  -1.93880  -1.93713  -1.18110
 Alpha  occ. eigenvalues --   -1.16116  -1.13668  -1.12254  -1.11638  -1.09514
 Alpha  occ. eigenvalues --   -1.08939  -1.07799  -1.07455  -1.07222  -1.05763
 Alpha  occ. eigenvalues --   -1.05559  -1.05104  -1.04246  -1.03727  -1.03518
 Alpha  occ. eigenvalues --   -0.94960  -0.92804  -0.91431  -0.91081  -0.90589
 Alpha  occ. eigenvalues --   -0.90525  -0.89915  -0.89807  -0.89490  -0.89282
 Alpha  occ. eigenvalues --   -0.89274  -0.88879  -0.88862  -0.88381  -0.86223
 Alpha  occ. eigenvalues --   -0.86022  -0.85876  -0.85448  -0.84653  -0.84252
 Alpha  occ. eigenvalues --   -0.83960  -0.83455  -0.83424  -0.82955  -0.82638
 Alpha  occ. eigenvalues --   -0.82114  -0.80946  -0.80088  -0.79657  -0.79197
 Alpha  occ. eigenvalues --   -0.78897  -0.78865  -0.77881  -0.77834  -0.77177
 Alpha  occ. eigenvalues --   -0.77050  -0.75229  -0.74564  -0.74254  -0.73608
 Alpha  occ. eigenvalues --   -0.71953  -0.70948  -0.70714  -0.70512  -0.69899
 Alpha  occ. eigenvalues --   -0.69482  -0.69213  -0.68239  -0.67896  -0.67587
 Alpha  occ. eigenvalues --   -0.67562  -0.67409  -0.67050  -0.66603  -0.66581
 Alpha  occ. eigenvalues --   -0.66056  -0.63758  -0.63265  -0.62552  -0.62130
 Alpha  occ. eigenvalues --   -0.61585  -0.61305  -0.61276  -0.60900  -0.60359
 Alpha  occ. eigenvalues --   -0.59730  -0.59693  -0.59351  -0.59303  -0.58972
 Alpha  occ. eigenvalues --   -0.58172  -0.57763  -0.57626  -0.57416  -0.57396
 Alpha  occ. eigenvalues --   -0.57025  -0.56566  -0.56316  -0.55878  -0.55747
 Alpha  occ. eigenvalues --   -0.55479  -0.55261  -0.55136  -0.55122  -0.54891
 Alpha  occ. eigenvalues --   -0.54817  -0.54632  -0.54562  -0.54408  -0.54314
 Alpha  occ. eigenvalues --   -0.54192  -0.54040  -0.53465  -0.53444  -0.53089
 Alpha  occ. eigenvalues --   -0.52883  -0.52851  -0.52822  -0.52514  -0.52272
 Alpha  occ. eigenvalues --   -0.52044  -0.51841  -0.51730  -0.51542  -0.51503
 Alpha  occ. eigenvalues --   -0.51200  -0.51146  -0.51115  -0.50893  -0.50746
 Alpha  occ. eigenvalues --   -0.50624  -0.50548  -0.50348  -0.50317  -0.50058
 Alpha  occ. eigenvalues --   -0.49963  -0.49735  -0.49570  -0.49427  -0.49346
 Alpha  occ. eigenvalues --   -0.49252  -0.49011  -0.48733  -0.48658  -0.48563
 Alpha  occ. eigenvalues --   -0.48274  -0.48252  -0.48104  -0.48060  -0.47731
 Alpha  occ. eigenvalues --   -0.47529  -0.47412  -0.47299  -0.47193  -0.46877
 Alpha  occ. eigenvalues --   -0.46815  -0.46320  -0.46195  -0.46051  -0.45907
 Alpha  occ. eigenvalues --   -0.45875  -0.45857  -0.45578  -0.45504  -0.45449
 Alpha  occ. eigenvalues --   -0.45247  -0.45051  -0.44938  -0.44925  -0.44887
 Alpha  occ. eigenvalues --   -0.44560  -0.44493  -0.44045  -0.43895  -0.43765
 Alpha  occ. eigenvalues --   -0.43624  -0.43581  -0.43283  -0.43120  -0.42955
 Alpha  occ. eigenvalues --   -0.42811  -0.42664  -0.42540  -0.42252  -0.42243
 Alpha  occ. eigenvalues --   -0.42091  -0.41983  -0.41450  -0.41067  -0.40959
 Alpha  occ. eigenvalues --   -0.40515  -0.40428  -0.39960  -0.39915  -0.39526
 Alpha  occ. eigenvalues --   -0.39414  -0.38696  -0.38403  -0.38103  -0.38018
 Alpha  occ. eigenvalues --   -0.37633  -0.37618  -0.36589  -0.35901  -0.35883
 Alpha  occ. eigenvalues --   -0.35643  -0.35322  -0.34695  -0.34021  -0.33585
 Alpha  occ. eigenvalues --   -0.33233  -0.32972  -0.32788  -0.32624  -0.32493
 Alpha  occ. eigenvalues --   -0.32316  -0.32134  -0.31472  -0.26097  -0.26007
 Alpha  occ. eigenvalues --   -0.23499  -0.22740
 Alpha virt. eigenvalues --   -0.07047  -0.06972  -0.00741  -0.00109   0.01811
 Alpha virt. eigenvalues --    0.02723   0.04351   0.04499   0.05426   0.06525
 Alpha virt. eigenvalues --    0.06736   0.07611   0.07855   0.07992   0.08120

 Mulliken charges:
               1
     1  Mg   0.988148
     2  C    0.030643
     3  C   -0.071715
     4  C   -0.057311
     5  C   -0.104983
     6  N   -0.311470
     7  C   -0.008532
     8  C   -0.088499
     9  C   -0.082880
    10  C    0.047616
    11  C    0.016128
    12  C    0.051461
    13  C   -0.150283
    14  H    0.031606
    15  N   -0.450259
    16  C    0.180726
    17  C   -0.160699
    18  C   -0.081916
    19  C    0.134156
    20  C    0.054899
    21  C    0.056975
    22  O   -0.216000
    23  C   -0.009363
    24  N   -0.398590
    25  C    0.036598
    26  C   -0.083206
    27  C   -0.076435
    28  C    0.060681
    29  C    0.027349
    30  C   -0.006093
    31  C   -0.051453
    32  N   -0.527346
    33  C    0.158645
    34  C   -0.163652
    35  C   -0.041779
    36  C    0.162034
    37  C    0.081427
    38  C    0.128574
    39  O   -0.198768
    40  C   -0.130104
    41  C    0.252268
    42  O   -0.286955
    43  O   -0.341697
    44  C    0.147833
    45  H   -0.001398
    46  H    0.022946
    47  H   -0.006079
    48  H    0.039118
    49  H    0.035196
    50  H    0.033059
    51  H    0.038309
    52  H    0.025646
    53  H    0.023414
    54  H    0.069101
    55  H    0.048312
    56  H    0.037542
    57  H    0.022371
    58  H    0.055835
    59  H    0.037893
    60  H    0.076510
    61  H    0.035038
    62  H    0.053181
    63  H    0.040845
    64  H    0.042984
    65  H    0.048269
    66  H    0.047189
    67  H    0.024252
    68  H    0.039501
    69  H    0.022304
    70  H    0.040666
    71  H    0.045478
    72  H    0.042435
    73  H    0.065309
    74  H    0.051830
    75  H    0.044432
    76  H    0.067545
    77  H    0.057675
    78  H    0.052471
    79  H    0.073041
    80  Mg   0.950403
    81  C   -0.001497
    82  C   -0.092570
    83  C   -0.057244
    84  C   -0.097702
    85  N   -0.289348
    86  C   -0.079801
    87  C   -0.022138
    88  C   -0.152148
    89  C    0.044886
    90  C    0.020217
    91  C    0.019293
    92  C   -0.121956
    93  H   -0.003184
    94  N   -0.573430
    95  C    0.230507
    96  C   -0.157320
    97  C   -0.064135
    98  C    0.176484
    99  C    0.067586
   100  C    0.057073
   101  O   -0.243273
   102  C   -0.029453
   103  N   -0.281806
   104  C    0.040566
   105  C   -0.118706
   106  C   -0.082439
   107  C    0.022940
   108  C    0.039329
   109  C   -0.018084
   110  C   -0.034999
   111  N   -0.420819
   112  C    0.154711
   113  C   -0.152033
   114  C   -0.029599
   115  C    0.146134
   116  C    0.092509
   117  C    0.133328
   118  O   -0.250639
   119  C   -0.095390
   120  C    0.288853
   121  O   -0.246492
   122  O   -0.409269
   123  C    0.146594
   124  H   -0.006550
   125  H    0.019231
   126  H   -0.015402
   127  H    0.025018
   128  H    0.044104
   129  H    0.036951
   130  H    0.039606
   131  H    0.044098
   132  H    0.028270
   133  H    0.057668
   134  H    0.065762
   135  H    0.078871
   136  H    0.055777
   137  H    0.031557
   138  H    0.060659
   139  H    0.053873
   140  H    0.050854
   141  H    0.060045
   142  H    0.047714
   143  H    0.033935
   144  H    0.061748
   145  H    0.029001
   146  H    0.039261
   147  H    0.034201
   148  H    0.025062
   149  H    0.022687
   150  H    0.040442
   151  H    0.046567
   152  H    0.029889
   153  H    0.045574
   154  H    0.071964
   155  H    0.082481
   156  H    0.044133
   157  H    0.042298
   158  H    0.066711
 Sum of Mulliken charges =  -0.00000

 Dipole moment (field-independent basis, Debye):
    X=             -1.5184    Y=             -2.5514    Z=              7.4021  Tot=              7.9753
 Quadrupole moment (field-independent basis, Debye-Ang):
   XX=           -325.7329   YY=           -521.0501   ZZ=           -467.2710
   XY=            -24.9504   XZ=              6.6111   YZ=             62.6879

 Normal termination of Gaussian 16 at Sun Sep 19 08:15:03 2021.
