 Gaussian 16, Revision A.03,
 Gaussian 16:  ES64L-G16RevA.03 25-Dec-2016

 --------------------------------
 #p wB97XD/Def2SVP td=(nstates=5)
 --------------------------------

 --------------------------------
 TDDFT excited states in gaussian
 --------------------------------
 Symbolic Z-matrix:
 Charge =  0 Multiplicity = 1

                         Standard orientation:
 ---------------------------------------------------------------------
 Center     Atomic      Atomic             Coordinates (Angstroms)
 Number     Number       Type             X           Y           Z
 ---------------------------------------------------------------------
      1         12           0       -9.701511    0.447433    0.574877
      2          6           0       -9.031183   -2.352925   -1.415081
      3          6           0       -6.733230   -0.278700    2.194356
      4          6           0      -10.069486    3.288427    2.288164
      5          6           0      -12.154582    1.452430   -1.703897
      6          7           0       -7.905495   -1.143520    0.212778
      7          6           0       -7.958181   -2.233051   -0.577171
      8          6           0       -6.741671   -3.120216   -0.464616
      9          6           0       -6.224501   -2.543431    0.908113
     10          6           0       -6.930378   -1.211664    1.141508
     11          6           0       -6.602253   -3.508019    2.063824
     12          6           0       -5.865817   -3.029367   -1.720642
     13          6           0       -5.651408   -1.665770   -2.409927
     14          1           0       -4.207765   -1.305291   -2.739823
     15          7           0       -8.587965    1.364250    2.025468
     16          6           0       -7.475664    0.832867    2.622576
     17          6           0       -7.262565    1.503074    3.911970
     18          6           0       -8.124769    2.671593    3.917080
     19          6           0       -8.982948    2.451593    2.713104
     20          6           0       -6.036808    1.180528    4.849620
     21          6           0       -8.116840    3.815692    4.933959
     22          8           0       -7.441332    3.749102    5.922903
     23          6           0       -8.995297    5.014870    4.722392
     24          7           0      -10.840239    2.250091    0.151469
     25          6           0      -10.927988    3.295349    1.089594
     26          6           0      -11.982802    4.408357    0.679872
     27          6           0      -12.676399    3.726573   -0.593975
     28          6           0      -11.868862    2.353843   -0.714078
     29          6           0      -13.031956    4.973117    1.762522
     30          6           0      -12.710709    4.566397   -1.951364
     31          6           0      -14.050434    4.245661   -2.780984
     32          7           0      -10.531169   -0.284905   -1.197918
     33          6           0      -11.582202    0.191350   -1.954955
     34          6           0      -11.884977   -0.768479   -3.009625
     35          6           0      -10.976662   -1.846210   -2.847103
     36          6           0      -10.108347   -1.462524   -1.762228
     37          6           0      -13.053555   -0.720098   -3.958816
     38          6           0      -10.436765   -3.146811   -3.361662
     39          8           0      -10.722285   -3.772855   -4.357979
     40          6           0       -9.219937   -3.497950   -2.404096
     41          6           0       -9.565865   -4.797199   -1.730044
     42          8           0       -9.485515   -5.920717   -2.286868
     43          8           0       -9.833127   -4.568385   -0.388037
     44          6           0       -9.951017   -5.734990    0.421375
     45          1           0       -5.845769   -0.557213    2.766606
     46          1           0      -10.414226    4.136773    2.883455
     47          1           0      -13.050519    1.681771   -2.284767
     48          1           0       -7.014305   -4.154708   -0.256664
     49          1           0       -5.157145   -2.352957    1.011728
     50          1           0       -6.789696   -2.873533    2.930417
     51          1           0       -5.835241   -4.270454    2.192245
     52          1           0       -7.553301   -4.039931    2.022997
     53          1           0       -6.380419   -3.619716   -2.478153
     54          1           0       -4.898976   -3.477368   -1.490945
     55          1           0       -6.001292   -0.876443   -1.745070
     56          1           0       -6.178754   -1.683185   -3.363277
     57          1           0       -5.084671    1.602952    4.527388
     58          1           0       -5.930579    0.100389    4.950758
     59          1           0       -6.148853    1.459121    5.896811
     60          1           0       -8.776343    5.811781    5.433839
     61          1           0      -10.058888    4.785102    4.789340
     62          1           0       -8.638609    5.382320    3.759812
     63          1           0      -11.296082    5.198693    0.379084
     64          1           0      -13.706016    3.445803   -0.374139
     65          1           0      -12.563017    5.830403    2.244084
     66          1           0      -13.296246    4.213270    2.497450
     67          1           0      -13.947249    5.252905    1.240529
     68          1           0      -11.926749    4.239075   -2.634181
     69          1           0      -12.581134    5.631539   -1.757990
     70          1           0      -13.813734    3.811592   -3.752490
     71          1           0      -14.605935    5.169174   -2.941570
     72          1           0      -14.738804    3.490558   -2.402989
     73          1           0      -12.993825    0.206247   -4.529143
     74          1           0      -13.984838   -0.719983   -3.392007
     75          1           0      -13.036601   -1.536848   -4.680248
     76          1           0       -8.406404   -3.727700   -3.091834
     77          1           0      -10.062466   -5.437953    1.463931
     78          1           0       -9.140562   -6.436766    0.223705
     79          1           0      -10.890291   -6.260091    0.247989
     80         12           0        9.946777    0.551681   -0.169606
     81          6           0        8.304337   -2.267629    0.890425
     82          6           0        6.919432    1.918846   -1.020175
     83          6           0       11.597428    3.364020   -1.350388
     84          6           0       12.990114   -1.043476    0.292931
     85          7           0        7.803065   -0.110140   -0.131442
     86          6           0        7.416720   -1.287235    0.443546
     87          6           0        5.970814   -1.418112    0.442963
     88          6           0        5.455097   -0.220229   -0.338786
     89          6           0        6.795155    0.607217   -0.565380
     90          6           0        4.673784   -0.470776   -1.674718
     91          6           0        5.397340   -1.519682    1.897385
     92          6           0        4.116620   -2.401303    2.098562
     93          1           0        3.157393   -2.533919    0.899424
     94          7           0        9.298611    2.432497   -0.957884
     95          6           0        7.983218    2.783871   -1.208273
     96          6           0        7.952801    4.148990   -1.771306
     97          6           0        9.339940    4.598152   -1.870779
     98          6           0       10.148484    3.474481   -1.366656
     99          6           0        6.690054    4.882803   -2.192386
    100          6           0        9.838750    5.967359   -2.269864
    101          8           0       11.058888    6.202808   -2.222224
    102          6           0        8.977822    7.071421   -2.758646
    103          7           0       11.998190    1.072334   -0.563483
    104          6           0       12.385430    2.280604   -0.982149
    105          6           0       13.917598    2.405911   -0.943661
    106          6           0       14.415545    1.068222   -0.166893
    107          6           0       13.025249    0.347283   -0.066432
    108          6           0       14.509067    2.589691   -2.375219
    109          6           0       15.018982    1.300612    1.245435
    110          6           0       16.523173    1.020632    1.381106
    111          7           0       10.582160   -1.313066    0.398974
    112          6           0       11.866798   -1.844808    0.533079
    113          6           0       11.792014   -3.242779    1.012480
    114          6           0       10.392939   -3.413890    1.135497
    115          6           0        9.711636   -2.229674    0.746269
    116          6           0       12.878205   -4.147497    1.330567
    117          6           0        9.361018   -4.353647    1.620415
    118          8           0        9.445245   -5.438677    2.131645
    119          6           0        7.969348   -3.650568    1.434368
    120          6           0        7.099712   -4.541354    0.649509
    121          8           0        7.310487   -4.715078   -0.561657
    122          8           0        6.012535   -5.015859    1.317385
    123          6           0        4.989292   -5.737853    0.567815
    124          1           0        5.939601    2.325675   -1.278805
    125          1           0       12.099311    4.243133   -1.760528
    126          1           0       13.969055   -1.457097    0.543619
    127          1           0        5.718803   -2.331995   -0.096108
    128          1           0        4.891372    0.458892    0.301891
    129          1           0        4.466133   -1.476924   -2.040372
    130          1           0        5.201096    0.052145   -2.472212
    131          1           0        3.705943    0.029824   -1.712060
    132          1           0        5.256165   -0.518740    2.305341
    133          1           0        6.200543   -1.819903    2.570051
    134          1           0        3.538657   -2.031228    2.945853
    135          1           0        4.347409   -3.453233    2.264106
    136          1           0        5.774662    4.358403   -1.920402
    137          1           0        6.644157    4.994656   -3.276025
    138          1           0        6.576725    5.796096   -1.608576
    139          1           0        9.627664    7.938688   -2.871528
    140          1           0        8.148893    7.306779   -2.089843
    141          1           0        8.475740    6.760994   -3.675129
    142          1           0       14.148863    3.225537   -0.263221
    143          1           0       15.082282    0.456354   -0.774394
    144          1           0       15.210881    3.420249   -2.452080
    145          1           0       13.717608    2.782248   -3.100036
    146          1           0       14.953034    1.619988   -2.601576
    147          1           0       14.538789    0.706447    2.022022
    148          1           0       14.867797    2.324496    1.588050
    149          1           0       17.010166    1.182674    0.419434
    150          1           0       16.645522   -0.026924    1.654541
    151          1           0       16.876985    1.624583    2.215651
    152          1           0       12.567521   -4.971180    1.972932
    153          1           0       13.724612   -3.654104    1.807927
    154          1           0       13.130486   -4.690946    0.419890
    155          1           0        7.655558   -3.540732    2.472985
    156          1           0        5.322226   -6.692412    0.159381
    157          1           0        4.535885   -5.098502   -0.189590
    158          1           0        4.178119   -6.017744    1.239765
 ---------------------------------------------------------------------

 SCF Done:  E(RwB97XD) =  -4070.64513085     A.U. after   20 cycles

 Excitation energies and oscillator strengths:

 Excited State   1:      Singlet-A      1.6696 eV  742.58 nm  f=0.3879  <S**2>=0.000
     310 -> 316        0.19440
     312 -> 314        0.67927
     310 <- 316        0.11852
 This state for optimization and/or second-order correction.
 Total Energy, E(TD-HF/TD-DFT) =  -4070.58377265
 Copying the excited state density for this state as the 1-particle RhoCI density.

 Excited State   2:      Singlet-A      1.6935 eV  732.13 nm  f=0.3515  <S**2>=0.000
     309 -> 315        0.19901
     311 -> 313        0.67762
     309 <- 315        0.11853

 Excited State   3:      Singlet-A      2.1838 eV  567.74 nm  f=0.1054  <S**2>=0.000
     309 -> 313        0.63031
     311 -> 315       -0.29936

 Excited State   4:      Singlet-A      2.1971 eV  564.31 nm  f=0.0817  <S**2>=0.000
     310 -> 314        0.62089
     312 -> 316       -0.31687

 Excited State   5:      Singlet-A      3.4654 eV  357.77 nm  f=0.0000  <S**2>=0.000
     312 -> 313        0.70683

 The electronic state is 1-A.
 Alpha  occ. eigenvalues --  -46.96878 -46.95226 -19.31365 -19.31213 -19.25104
 Alpha  occ. eigenvalues --  -19.24695 -19.24275 -19.24212 -19.24093 -19.23405
 Alpha  occ. eigenvalues --  -14.46977 -14.46552 -14.46409 -14.46292 -14.45269
 Alpha  occ. eigenvalues --  -14.44176 -14.44120 -14.43831 -10.43969 -10.43435
 Alpha  occ. eigenvalues --  -10.39933 -10.39423 -10.38931 -10.38878 -10.37083
 Alpha  occ. eigenvalues --  -10.36107 -10.36082 -10.35814 -10.35323 -10.35096
 Alpha  occ. eigenvalues --  -10.34921 -10.34693 -10.34693 -10.34670 -10.34425
 Alpha  occ. eigenvalues --  -10.34341 -10.34122 -10.34078 -10.34073 -10.33950
 Alpha  occ. eigenvalues --  -10.33937 -10.33694 -10.33387 -10.33355 -10.33344
 Alpha  occ. eigenvalues --  -10.33140 -10.32720 -10.32678 -10.32671 -10.32659
 Alpha  occ. eigenvalues --  -10.32606 -10.32519 -10.32339 -10.32302 -10.32276
 Alpha  occ. eigenvalues --  -10.32175 -10.32070 -10.32047 -10.31964 -10.31950
 Alpha  occ. eigenvalues --  -10.31898 -10.31848 -10.31738 -10.31657 -10.31467
 Alpha  occ. eigenvalues --  -10.31430 -10.31322 -10.31272 -10.31031 -10.30990
 Alpha  occ. eigenvalues --  -10.30526 -10.30479 -10.30435 -10.30285 -10.30248
 Alpha  occ. eigenvalues --  -10.30220 -10.30099 -10.30065 -10.29964 -10.29931
 Alpha  occ. eigenvalues --  -10.29930 -10.29925 -10.29900 -10.29357 -10.29317
 Alpha  occ. eigenvalues --  -10.29157  -3.22723  -3.21095  -1.96266  -1.95856
 Alpha  occ. eigenvalues --   -1.95673  -1.94705  -1.94201  -1.94071  -1.18747
 Alpha  occ. eigenvalues --   -1.18638  -1.13887  -1.13195  -1.13008  -1.11131
 Alpha  occ. eigenvalues --   -1.09366  -1.09330  -1.07120  -1.06939  -1.06099
 Alpha  occ. eigenvalues --   -1.06059  -1.05396  -1.05085  -1.04039  -1.03006
 Alpha  occ. eigenvalues --   -0.94600  -0.94461  -0.91052  -0.91028  -0.90436
 Alpha  occ. eigenvalues --   -0.90169  -0.89708  -0.89593  -0.89399  -0.89128
 Alpha  occ. eigenvalues --   -0.88662  -0.88208  -0.88111  -0.87806  -0.86902
 Alpha  occ. eigenvalues --   -0.85896  -0.85453  -0.85373  -0.84758  -0.84221
 Alpha  occ. eigenvalues --   -0.83933  -0.83791  -0.83168  -0.82882  -0.82518
 Alpha  occ. eigenvalues --   -0.82478  -0.80404  -0.79631  -0.79502  -0.79347
 Alpha  occ. eigenvalues --   -0.79250  -0.78782  -0.78448  -0.78159  -0.77420
 Alpha  occ. eigenvalues --   -0.76820  -0.74925  -0.74598  -0.74175  -0.73491
 Alpha  occ. eigenvalues --   -0.71995  -0.71471  -0.71194  -0.70361  -0.70268
 Alpha  occ. eigenvalues --   -0.70034  -0.69345  -0.68929  -0.67949  -0.67787
 Alpha  occ. eigenvalues --   -0.67339  -0.67054  -0.67000  -0.66979  -0.66759
 Alpha  occ. eigenvalues --   -0.66335  -0.65819  -0.64725  -0.62216  -0.61843
 Alpha  occ. eigenvalues --   -0.61566  -0.61406  -0.61222  -0.61084  -0.60725
 Alpha  occ. eigenvalues --   -0.60288  -0.60221  -0.59840  -0.59465  -0.59280
 Alpha  occ. eigenvalues --   -0.58401  -0.58152  -0.58044  -0.57851  -0.57617
 Alpha  occ. eigenvalues --   -0.57354  -0.57148  -0.56690  -0.56335  -0.55928
 Alpha  occ. eigenvalues --   -0.55780  -0.55402  -0.55265  -0.55153  -0.54896
 Alpha  occ. eigenvalues --   -0.54877  -0.54734  -0.54343  -0.54153  -0.54001
 Alpha  occ. eigenvalues --   -0.53761  -0.53551  -0.53474  -0.53415  -0.53240
 Alpha  occ. eigenvalues --   -0.53155  -0.53092  -0.52779  -0.52602  -0.52156
 Alpha  occ. eigenvalues --   -0.52132  -0.52037  -0.51909  -0.51816  -0.51811
 Alpha  occ. eigenvalues --   -0.51627  -0.51301  -0.51013  -0.50936  -0.50713
 Alpha  occ. eigenvalues --   -0.50460  -0.50426  -0.50391  -0.50031  -0.49853
 Alpha  occ. eigenvalues --   -0.49655  -0.49414  -0.49408  -0.49309  -0.49164
 Alpha  occ. eigenvalues --   -0.49069  -0.49014  -0.48765  -0.48650  -0.48388
 Alpha  occ. eigenvalues --   -0.48184  -0.48151  -0.47814  -0.47743  -0.47637
 Alpha  occ. eigenvalues --   -0.47607  -0.47452  -0.47382  -0.47246  -0.47165
 Alpha  occ. eigenvalues --   -0.46966  -0.46850  -0.46480  -0.46299  -0.46258
 Alpha  occ. eigenvalues --   -0.46024  -0.45942  -0.45762  -0.45738  -0.45563
 Alpha  occ. eigenvalues --   -0.45527  -0.45399  -0.45368  -0.45096  -0.45061
 Alpha  occ. eigenvalues --   -0.44963  -0.44842  -0.44551  -0.44376  -0.44302
 Alpha  occ. eigenvalues --   -0.44091  -0.44059  -0.43816  -0.43759  -0.43377
 Alpha  occ. eigenvalues --   -0.43252  -0.43145  -0.42855  -0.42597  -0.42421
 Alpha  occ. eigenvalues --   -0.42247  -0.41952  -0.41869  -0.41411  -0.41128
 Alpha  occ. eigenvalues --   -0.41008  -0.40213  -0.40087  -0.39490  -0.39434
 Alpha  occ. eigenvalues --   -0.39399  -0.39220  -0.38912  -0.38787  -0.38736
 Alpha  occ. eigenvalues --   -0.38391  -0.37940  -0.36809  -0.36532  -0.36025
 Alpha  occ. eigenvalues --   -0.35930  -0.35520  -0.35367  -0.33694  -0.33362
 Alpha  occ. eigenvalues --   -0.33281  -0.33054  -0.32953  -0.32891  -0.32707
 Alpha  occ. eigenvalues --   -0.32232  -0.31990  -0.31699  -0.26093  -0.25799
 Alpha  occ. eigenvalues --   -0.23349  -0.22607
 Alpha virt. eigenvalues --   -0.07124  -0.06654  -0.00313   0.00183   0.02049
 Alpha virt. eigenvalues --    0.02586   0.03800   0.04015   0.04683   0.06115
 Alpha virt. eigenvalues --    0.06534   0.06596   0.07761   0.07884   0.08455

 Mulliken charges:
               1
     1  Mg   0.955151
     2  C    0.126618
     3  C   -0.087089
     4  C   -0.102670
     5  C   -0.086683
     6  N   -0.280309
     7  C   -0.106275
     8  C    0.024977
     9  C   -0.115354
    10  C    0.019556
    11  C    0.018015
    12  C    0.021038
    13  C   -0.132614
    14  H    0.031430
    15  N   -0.458864
    16  C    0.175327
    17  C   -0.148376
    18  C   -0.099971
    19  C    0.211560
    20  C    0.047906
    21  C    0.038086
    22  O   -0.200661
    23  C   -0.012744
    24  N   -0.368206
    25  C    0.007480
    26  C   -0.062979
    27  C   -0.084110
    28  C    0.069758
    29  C    0.005033
    30  C   -0.010011
    31  C   -0.094197
    32  N   -0.439799
    33  C    0.138911
    34  C   -0.213398
    35  C   -0.016172
    36  C    0.078955
    37  C    0.071689
    38  C    0.140096
    39  O   -0.173098
    40  C   -0.211215
    41  C    0.295859
    42  O   -0.266705
    43  O   -0.352111
    44  C    0.141161
    45  H    0.006697
    46  H   -0.024964
    47  H   -0.020594
    48  H    0.029660
    49  H    0.027607
    50  H    0.024700
    51  H    0.049904
    52  H    0.027771
    53  H    0.037303
    54  H    0.045687
    55  H    0.070701
    56  H    0.060797
    57  H    0.062588
    58  H    0.025822
    59  H    0.056195
    60  H    0.047076
    61  H    0.080367
    62  H    0.053538
    63  H    0.053619
    64  H    0.040462
    65  H    0.049455
    66  H    0.047620
    67  H    0.050658
    68  H    0.049641
    69  H    0.044055
    70  H    0.038497
    71  H    0.044651
    72  H    0.040193
    73  H    0.037544
    74  H    0.052186
    75  H    0.059086
    76  H    0.085063
    77  H    0.049583
    78  H    0.054969
    79  H    0.046868
    80  Mg   0.952576
    81  C   -0.030162
    82  C   -0.087454
    83  C   -0.053745
    84  C   -0.078997
    85  N   -0.317091
    86  C   -0.009095
    87  C   -0.053927
    88  C   -0.041713
    89  C   -0.009110
    90  C    0.019878
    91  C    0.021035
    92  C   -0.114889
    93  H    0.015063
    94  N   -0.461370
    95  C    0.197365
    96  C   -0.169560
    97  C   -0.061134
    98  C    0.119922
    99  C    0.061307
   100  C    0.038573
   101  O   -0.262797
   102  C    0.013247
   103  N   -0.333111
   104  C    0.064322
   105  C   -0.091913
   106  C   -0.098957
   107  C    0.041299
   108  C    0.031115
   109  C   -0.015254
   110  C   -0.053802
   111  N   -0.449288
   112  C    0.129848
   113  C   -0.162233
   114  C   -0.055524
   115  C    0.145071
   116  C    0.075980
   117  C    0.096395
   118  O   -0.183964
   119  C   -0.041883
   120  C    0.280434
   121  O   -0.275831
   122  O   -0.352556
   123  C    0.141123
   124  H   -0.023730
   125  H    0.028251
   126  H   -0.002383
   127  H    0.045947
   128  H    0.034363
   129  H    0.048917
   130  H    0.031419
   131  H    0.026897
   132  H    0.018723
   133  H    0.024954
   134  H    0.054615
   135  H    0.066937
   136  H    0.025699
   137  H    0.064322
   138  H    0.051425
   139  H    0.063692
   140  H    0.041677
   141  H    0.053195
   142  H    0.040554
   143  H    0.038399
   144  H    0.048253
   145  H    0.046111
   146  H    0.029772
   147  H    0.031736
   148  H    0.025729
   149  H    0.040619
   150  H    0.032176
   151  H    0.041530
   152  H    0.049724
   153  H    0.047500
   154  H    0.057564
   155  H    0.066678
   156  H    0.067459
   157  H    0.052516
   158  H    0.049566
 Sum of Mulliken charges =  -0.00000

 Dipole moment (field-independent basis, Debye):
    X=             -4.8838    Y=              6.0061    Z=              4.2582  Tot=              8.8350
 Quadrupole moment (field-independent basis, Debye-Ang):
   XX=           -467.4879   YY=           -532.7632   ZZ=           -546.5525
   XY=            -44.6289   XZ=            -27.0553   YZ=            -36.3498

 Normal termination of Gaussian 16 at Sun Sep 19 20:23:08 2021.
