 Gaussian 16, Revision A.03,
 Gaussian 16:  ES64L-G16RevA.03 25-Dec-2016

 --------------------------------
 #p wB97XD/Def2SVP td=(nstates=5)
 --------------------------------

 --------------------------------
 TDDFT excited states in gaussian
 --------------------------------
 Symbolic Z-matrix:
 Charge =  0 Multiplicity = 1

                         Standard orientation:
 ---------------------------------------------------------------------
 Center     Atomic      Atomic             Coordinates (Angstroms)
 Number     Number       Type             X           Y           Z
 ---------------------------------------------------------------------
      1         12           0       -0.769893    0.028382   -0.536872
      2          6           0        2.706398    0.184291    0.248483
      3          6           0       -0.584781   -3.199103    0.212169
      4          6           0       -4.137394   -0.038244   -0.259381
      5          6           0       -0.720146    3.583561   -0.295156
      6          7           0        0.835792   -1.318294    0.010744
      7          6           0        2.215073   -1.083973    0.199672
      8          6           0        3.012238   -2.375222    0.566488
      9          6           0        1.894468   -3.453134    0.484635
     10          6           0        0.635190   -2.636580    0.124885
     11          6           0        2.350965   -4.514778   -0.529879
     12          6           0        3.771809   -2.401616    1.962624
     13          6           0        5.294270   -2.458809    1.914022
     14          1           0        5.985381   -3.619853    2.657805
     15          7           0       -2.167115   -1.383760   -0.190723
     16          6           0       -1.866707   -2.710771    0.115966
     17          6           0       -3.041583   -3.483066    0.169599
     18          6           0       -4.112449   -2.653819   -0.108612
     19          6           0       -3.549992   -1.320927   -0.188675
     20          6           0       -3.196591   -5.025089    0.443496
     21          6           0       -5.533003   -3.154385   -0.225880
     22          8           0       -5.842753   -4.308449   -0.207284
     23          6           0       -6.639233   -2.028169   -0.528501
     24          7           0       -2.233137    1.540000   -0.236786
     25          6           0       -3.566928    1.237555   -0.196926
     26          6           0       -4.335475    2.583785    0.126039
     27          6           0       -3.323453    3.734124   -0.005689
     28          6           0       -1.986118    2.917106   -0.174841
     29          6           0       -5.634557    2.762315   -0.607105
     30          6           0       -3.273216    4.518414    1.299614
     31          6           0       -2.777113    5.938450    1.233590
     32          7           0        0.720815    1.612062   -0.358146
     33          6           0        0.579703    2.978267   -0.305385
     34          6           0        1.851625    3.600372   -0.232543
     35          6           0        2.800968    2.562327   -0.079479
     36          6           0        2.011255    1.378450   -0.045362
     37          6           0        2.143597    5.044909   -0.149976
     38          6           0        4.198753    2.154068    0.115285
     39          8           0        5.215199    2.861345    0.126155
     40          6           0        4.219323    0.589791    0.313432
     41          6           0        4.845971   -0.021991   -0.827928
     42          8           0        4.245702   -0.114543   -1.924780
     43          8           0        6.095960   -0.367656   -0.462030
     44          6           0        6.906757   -1.198640   -1.393744
     45          1           0       -0.554223   -4.272037    0.414725
     46          1           0       -5.227247   -0.103814   -0.234773
     47          1           0       -0.631243    4.670819   -0.337199
     48          1           0        3.759192   -2.576110   -0.201437
     49          1           0        1.687105   -3.938546    1.437817
     50          1           0        1.498489   -5.171213   -0.702052
     51          1           0        3.195513   -5.132867   -0.225536
     52          1           0        2.641518   -4.077643   -1.485836
     53          1           0        3.498758   -3.367590    2.387458
     54          1           0        3.418081   -1.588528    2.596645
     55          1           0        5.665432   -1.507714    2.297341
     56          1           0        5.614703   -2.564776    0.876988
     57          1           0       -3.912162   -5.106006    1.261988
     58          1           0       -2.253665   -5.483563    0.741076
     59          1           0       -3.464749   -5.636796   -0.417863
     60          1           0       -7.569435   -2.570163   -0.696356
     61          1           0       -6.237657   -1.523598   -1.407598
     62          1           0       -6.601780   -1.428687    0.381020
     63          1           0       -4.604823    2.467177    1.176371
     64          1           0       -3.485322    4.441743   -0.818757
     65          1           0       -5.805554    3.829759   -0.743787
     66          1           0       -6.397111    2.304979    0.023649
     67          1           0       -5.707865    2.201634   -1.538235
     68          1           0       -2.696707    4.017629    2.077942
     69          1           0       -4.243686    4.555489    1.794461
     70          1           0       -2.690762    6.311114    0.213083
     71          1           0       -1.793073    5.967942    1.701895
     72          1           0       -3.359772    6.581747    1.892896
     73          1           0        1.374394    5.640535   -0.642584
     74          1           0        3.104336    5.175777   -0.648518
     75          1           0        2.141157    5.279175    0.914796
     76          1           0        4.620584    0.255684    1.270242
     77          1           0        7.901582   -0.805249   -1.179746
     78          1           0        6.608833   -1.113506   -2.438363
     79          1           0        6.995407   -2.225967   -1.038809
 ---------------------------------------------------------------------

 SCF Done:  E(RwB97XD) =  -2035.30638510     A.U. after   20 cycles

 Excitation energies and oscillator strengths:

 Excited State   1:      Singlet-A      1.6724 eV  741.35 nm  f=0.3861  <S**2>=0.000
     155 ->158         0.17581
     156 ->157         0.68537
     155 <-158         0.11223
 This state for optimization and/or second-order correction.
 Total Energy, E(TD-HF/TD-DFT) =  -2035.24492478
 Copying the excited state density for this state as the 1-particle RhoCI density.

 Excited State   2:      Singlet-A      2.2043 eV  562.47 nm  f=0.1139  <S**2>=0.000
     155 ->157         0.63528
     156 ->158        -0.29122

 Excited State   3:      Singlet-A      3.2884 eV  377.04 nm  f=0.0022  <S**2>=0.000
     151 ->157        -0.11726
     154 ->157         0.66487

 Excited State   4:      Singlet-A      3.5022 eV  354.02 nm  f=0.1257  <S**2>=0.000
     150 ->157        -0.12942
     151 ->157        -0.32197
     152 ->157        -0.20905
     153 ->157         0.39878
     155 ->157        -0.11033
     156 ->158        -0.36750

 Excited State   5:      Singlet-A      3.6181 eV  342.68 nm  f=0.2016  <S**2>=0.000
     152 ->157         0.29169
     152 ->159        -0.24227
     153 ->157         0.39026
     153 ->159        -0.22812
     155 ->157         0.14731
     156 ->158         0.29423

 The electronic state is 1-A.
 Alpha  occ. eigenvalues --  -46.94878 -19.31709 -19.24706 -19.24594 -19.23778
 Alpha  occ. eigenvalues --  -14.47187 -14.46788 -14.44178 -14.43051 -10.43336
 Alpha  occ. eigenvalues --  -10.39488 -10.39410 -10.36586 -10.35717 -10.35518
 Alpha  occ. eigenvalues --  -10.35109 -10.34614 -10.34525 -10.33707 -10.33015
 Alpha  occ. eigenvalues --  -10.32645 -10.32422 -10.32421 -10.32207 -10.31979
 Alpha  occ. eigenvalues --  -10.31977 -10.31810 -10.31652 -10.31343 -10.31290
 Alpha  occ. eigenvalues --  -10.31142 -10.31070 -10.30996 -10.30973 -10.30334
 Alpha  occ. eigenvalues --  -10.30281 -10.30252 -10.30063 -10.29701 -10.29662
 Alpha  occ. eigenvalues --  -10.29272 -10.28979 -10.28862  -3.20918  -1.94483
 Alpha  occ. eigenvalues --   -1.94021  -1.93910  -1.18811  -1.14236  -1.10882
 Alpha  occ. eigenvalues --   -1.09561  -1.06159  -1.05247  -1.04853  -1.03767
 Alpha  occ. eigenvalues --   -0.94168  -0.91521  -0.91218  -0.90688  -0.89293
 Alpha  occ. eigenvalues --   -0.88638  -0.88427  -0.86725  -0.86132  -0.85192
 Alpha  occ. eigenvalues --   -0.83840  -0.83111  -0.82267  -0.79656  -0.79340
 Alpha  occ. eigenvalues --   -0.78619  -0.78172  -0.77105  -0.74734  -0.73715
 Alpha  occ. eigenvalues --   -0.71250  -0.70522  -0.69721  -0.69244  -0.67660
 Alpha  occ. eigenvalues --   -0.67502  -0.67010  -0.66568  -0.64220  -0.62191
 Alpha  occ. eigenvalues --   -0.61616  -0.61393  -0.60465  -0.60200  -0.59150
 Alpha  occ. eigenvalues --   -0.58384  -0.57997  -0.56971  -0.56628  -0.56206
 Alpha  occ. eigenvalues --   -0.55776  -0.55105  -0.54828  -0.54434  -0.54363
 Alpha  occ. eigenvalues --   -0.53635  -0.53398  -0.53149  -0.52457  -0.52276
 Alpha  occ. eigenvalues --   -0.52084  -0.51937  -0.51756  -0.51175  -0.50889
 Alpha  occ. eigenvalues --   -0.50390  -0.50168  -0.49976  -0.49464  -0.49420
 Alpha  occ. eigenvalues --   -0.48898  -0.48371  -0.48244  -0.48035  -0.47581
 Alpha  occ. eigenvalues --   -0.47247  -0.47058  -0.46888  -0.46687  -0.46247
 Alpha  occ. eigenvalues --   -0.46073  -0.45748  -0.45443  -0.45254  -0.44994
 Alpha  occ. eigenvalues --   -0.44719  -0.44520  -0.44231  -0.43837  -0.43584
 Alpha  occ. eigenvalues --   -0.43557  -0.42513  -0.42111  -0.42004  -0.41095
 Alpha  occ. eigenvalues --   -0.40394  -0.40128  -0.39581  -0.39252  -0.38776
 Alpha  occ. eigenvalues --   -0.37939  -0.36238  -0.36148  -0.35201  -0.34027
 Alpha  occ. eigenvalues --   -0.32988  -0.32738  -0.32667  -0.31067  -0.26215
 Alpha  occ. eigenvalues --   -0.23071
 Alpha virt. eigenvalues --   -0.07098   0.00222   0.02650   0.04784   0.05442
 Alpha virt. eigenvalues --    0.06754   0.07220   0.08095   0.10009   0.10945
 Alpha virt. eigenvalues --    0.11802   0.12432   0.12880   0.13002   0.13717

 Mulliken charges:
               1
     1  Mg   0.984540
     2  C   -0.043535
     3  C   -0.132110
     4  C   -0.102507
     5  C   -0.063528
     6  N   -0.377795
     7  C    0.011531
     8  C   -0.047457
     9  C   -0.123564
    10  C    0.121331
    11  C    0.014116
    12  C    0.012145
    13  C   -0.135587
    14  H    0.033925
    15  N   -0.504945
    16  C    0.212664
    17  C   -0.172124
    18  C   -0.054795
    19  C    0.150105
    20  C    0.105704
    21  C    0.008185
    22  O   -0.195245
    23  C   -0.027849
    24  N   -0.393363
    25  C    0.110609
    26  C   -0.081166
    27  C   -0.082642
    28  C    0.108158
    29  C    0.029362
    30  C   -0.045260
    31  C   -0.025540
    32  N   -0.385928
    33  C    0.093513
    34  C   -0.223135
    35  C    0.000615
    36  C    0.116556
    37  C    0.079601
    38  C    0.129015
    39  O   -0.222397
    40  C   -0.072171
    41  C    0.292415
    42  O   -0.279962
    43  O   -0.349472
    44  C    0.124667
    45  H   -0.016759
    46  H   -0.040279
    47  H   -0.012833
    48  H    0.028341
    49  H    0.045432
    50  H    0.027680
    51  H    0.042799
    52  H    0.043030
    53  H    0.041062
    54  H    0.048497
    55  H    0.069449
    56  H    0.032975
    57  H    0.061846
    58  H    0.011507
    59  H    0.062699
    60  H    0.058156
    61  H    0.066204
    62  H    0.068509
    63  H    0.046811
    64  H    0.038426
    65  H    0.041332
    66  H    0.031649
    67  H    0.038555
    68  H    0.030392
    69  H    0.021518
    70  H    0.036069
    71  H    0.030049
    72  H    0.032952
    73  H    0.030634
    74  H    0.066813
    75  H    0.060809
    76  H    0.055667
    77  H    0.061755
    78  H    0.085140
    79  H    0.056437
 Sum of Mulliken charges =  -0.00000

 Dipole moment (field-independent basis, Debye):
    X=             -1.3471    Y=             -1.0535    Z=              0.7392  Tot=              1.8630
 Quadrupole moment (field-independent basis, Debye-Ang):
   XX=           -257.1060   YY=           -249.2264   ZZ=           -256.1488
   XY=            -48.2135   XZ=             -2.5422   YZ=              1.4045

 Normal termination of Gaussian 16 at Sun Sep 19 15:13:44 2021.
