 Gaussian 16, Revision A.03,
 Gaussian 16:  ES64L-G16RevA.03 25-Dec-2016

 --------------------------------
 #p wB97XD/Def2SVP td=(nstates=5)
 --------------------------------

 --------------------------------
 TDDFT excited states in gaussian
 --------------------------------
 Symbolic Z-matrix:
 Charge =  0 Multiplicity = 1

                         Standard orientation:
 ---------------------------------------------------------------------
 Center     Atomic      Atomic             Coordinates (Angstroms)
 Number     Number       Type             X           Y           Z
 ---------------------------------------------------------------------
      1         12           0       25.303245   -0.707929    0.505427
      2          6           0       25.619246    2.143930   -1.669255
      3          6           0       24.639261    1.496105    3.026379
      4          6           0       25.311989   -3.343784    2.579953
      5          6           0       26.454446   -2.650144   -2.034986
      6          7           0       25.096102    1.658649    0.623977
      7          6           0       25.235997    2.524188   -0.421826
      8          6           0       24.820094    3.862220    0.059873
      9          6           0       24.635457    3.706467    1.594806
     10          6           0       24.837770    2.188627    1.855013
     11          6           0       25.678786    4.549265    2.395189
     12          6           0       23.616925    4.463402   -0.622563
     13          6           0       23.265466    5.918944   -0.360234
     14          1           0       23.016426    6.764626   -1.537829
     15          7           0       24.910352   -0.904478    2.473505
     16          6           0       24.747998    0.162577    3.399692
     17          6           0       24.405619   -0.455596    4.694394
     18          6           0       24.691944   -1.811383    4.557427
     19          6           0       25.057346   -2.066473    3.152234
     20          6           0       24.029647    0.390101    5.893118
     21          6           0       24.584401   -2.950296    5.594362
     22          8           0       25.075543   -4.084097    5.439458
     23          6           0       23.823289   -2.661844    6.823529
     24          7           0       25.875317   -2.741417    0.341183
     25          6           0       25.794288   -3.659529    1.282253
     26          6           0       26.277686   -5.061755    0.820567
     27          6           0       26.384621   -4.840572   -0.689844
     28          6           0       26.186055   -3.347167   -0.812462
     29          6           0       27.645742   -5.445053    1.479261
     30          6           0       25.428556   -5.619940   -1.564434
     31          6           0       26.014433   -6.240609   -2.845110
     32          7           0       25.816464   -0.346278   -1.454544
     33          6           0       26.262707   -1.270301   -2.373953
     34          6           0       26.479526   -0.643755   -3.712866
     35          6           0       26.241619    0.676647   -3.388495
     36          6           0       25.902334    0.834840   -2.039363
     37          6           0       26.720577   -1.311938   -5.028322
     38          6           0       26.224108    2.005842   -3.981290
     39          8           0       26.422644    2.304577   -5.153488
     40          6           0       25.816962    3.031912   -2.899042
     41          6           0       26.801872    4.082531   -2.940016
     42          8           0       27.969244    4.040427   -2.482204
     43          8           0       26.243832    5.233729   -3.406709
     44          6           0       26.983622    6.469341   -3.270057
     45          1           0       24.341434    2.180104    3.823490
     46          1           0       25.476239   -4.167795    3.277215
     47          1           0       27.029719   -3.303399   -2.694071
     48          1           0       25.699628    4.472281   -0.141697
     49          1           0       23.646893    4.021909    1.928930
     50          1           0       25.408849    5.236459    3.197683
     51          1           0       26.170386    5.152831    1.632374
     52          1           0       26.529890    3.986728    2.779892
     53          1           0       22.698441    3.963024   -0.315323
     54          1           0       23.565542    4.187497   -1.675449
     55          1           0       24.065973    6.415514    0.186086
     56          1           0       22.262665    5.896553    0.065579
     57          1           0       24.536647    0.109421    6.816068
     58          1           0       22.961072    0.407001    6.106556
     59          1           0       24.307964    1.441597    5.818255
     60          1           0       22.855049   -2.249324    6.539553
     61          1           0       24.439294   -1.901301    7.302070
     62          1           0       23.628493   -3.624217    7.295375
     63          1           0       25.480452   -5.757319    1.084914
     64          1           0       27.363872   -5.020357   -1.132599
     65          1           0       28.449544   -5.478206    0.744393
     66          1           0       27.610542   -6.445050    1.911575
     67          1           0       27.843367   -4.658561    2.207757
     68          1           0       24.560658   -5.024552   -1.846138
     69          1           0       24.917085   -6.281482   -0.866000
     70          1           0       25.410816   -7.119369   -3.070013
     71          1           0       27.090657   -6.406134   -2.786829
     72          1           0       25.862244   -5.429085   -3.556394
     73          1           0       25.834886   -1.393505   -5.658677
     74          1           0       27.242184   -2.237512   -4.786395
     75          1           0       27.538435   -0.804400   -5.541312
     76          1           0       24.918193    3.501166   -3.299086
     77          1           0       27.903255    6.387154   -2.690116
     78          1           0       26.336722    7.265983   -2.903676
     79          1           0       27.304180    6.862227   -4.235287
     80         12           0      -25.003650   -0.636715   -0.295160
     81          6           0      -26.351509    1.935597    1.716398
     82          6           0      -23.937475    1.593182   -2.478112
     83          6           0      -24.581106   -3.203329   -2.510284
     84          6           0      -27.139194   -2.943582    1.652404
     85          7           0      -25.205632    1.530251   -0.357204
     86          6           0      -25.558416    2.357710    0.647854
     87          6           0      -25.099619    3.789315    0.307876
     88          6           0      -24.334477    3.675929   -0.971595
     89          6           0      -24.515820    2.174562   -1.349309
     90          6           0      -24.739114    4.779243   -2.032843
     91          6           0      -24.355549    4.616242    1.409199
     92          6           0      -23.186457    5.635690    1.065748
     93          1           0      -23.191193    7.011724    1.747603
     94          7           0      -24.115406   -0.783558   -2.136495
     95          6           0      -23.725071    0.297741   -2.893788
     96          6           0      -23.109357   -0.206784   -4.088126
     97          6           0      -23.302610   -1.640248   -4.179330
     98          6           0      -24.067520   -1.922730   -2.944732
     99          6           0      -22.562550    0.767236   -5.051471
    100          6           0      -22.798912   -2.665072   -5.225495
    101          8           0      -23.108386   -3.807584   -5.139529
    102          6           0      -21.728579   -2.288369   -6.197420
    103          7           0      -25.824266   -2.765175   -0.408939
    104          6           0      -25.338294   -3.569019   -1.381297
    105          6           0      -25.843029   -5.040040   -1.233580
    106          6           0      -26.629904   -4.989600    0.111705
    107          6           0      -26.564866   -3.491878    0.500812
    108          6           0      -26.686852   -5.556590   -2.368469
    109          6           0      -26.135415   -5.896005    1.292765
    110          6           0      -24.944236   -5.474474    2.084903
    111          7           0      -26.449776   -0.647670    1.346683
    112          6           0      -27.135574   -1.627240    2.005928
    113          6           0      -27.806221   -1.054662    3.147615
    114          6           0      -27.553523    0.341851    3.107693
    115          6           0      -26.758562    0.539699    1.960473
    116          6           0      -28.748344   -1.726460    4.083171
    117          6           0      -27.812551    1.612159    3.723017
    118          8           0      -28.427769    1.951404    4.727353
    119          6           0      -27.006334    2.699940    2.880932
    120          6           0      -27.855163    3.898921    2.493052
    121          8           0      -28.798769    3.840473    1.747579
    122          8           0      -27.338121    5.036391    3.092467
    123          6           0      -28.113312    6.243898    2.805478
    124          1           0      -23.377834    2.250889   -3.147031
    125          1           0      -24.360856   -3.980101   -3.245154
    126          1           0      -27.686104   -3.638188    2.293245
    127          1           0      -26.083977    4.245891    0.204437
    128          1           0      -23.292539    3.908608   -0.750049
    129          1           0      -25.409145    5.501093   -1.566127
    130          1           0      -25.099667    4.262883   -2.922450
    131          1           0      -23.887678    5.408263   -2.293295
    132          1           0      -23.923982    3.892098    2.100624
    133          1           0      -25.049657    5.187589    2.026099
    134          1           0      -23.246214    5.756935   -0.016023
    135          1           0      -22.228983    5.160537    1.279565
    136          1           0      -22.767510    0.348715   -6.036573
    137          1           0      -21.481909    0.777711   -4.914340
    138          1           0      -22.878681    1.810476   -5.060906
    139          1           0      -22.306964   -1.942379   -7.053082
    140          1           0      -21.062541   -3.139825   -6.340420
    141          1           0      -21.130215   -1.422201   -5.914047
    142          1           0      -25.024671   -5.731761   -1.032793
    143          1           0      -27.709005   -5.140125    0.110667
    144          1           0      -26.657421   -4.883247   -3.226100
    145          1           0      -27.740131   -5.633958   -2.097510
    146          1           0      -26.262121   -6.525693   -2.629099
    147          1           0      -25.919662   -6.897266    0.919743
    148          1           0      -26.996348   -6.106501    1.927665
    149          1           0      -24.330537   -4.795172    1.492960
    150          1           0      -24.200893   -6.200564    2.414800
    151          1           0      -25.354894   -5.049302    3.001254
    152          1           0      -29.633238   -2.154717    3.613248
    153          1           0      -29.238892   -0.917337    4.624844
    154          1           0      -28.238583   -2.444992    4.725604
    155          1           0      -26.180071    3.011987    3.520011
    156          1           0      -27.288209    6.636412    2.211946
    157          1           0      -28.215341    6.712508    3.784016
    158          1           0      -29.044250    6.041584    2.275393
 ---------------------------------------------------------------------

 SCF Done:  E(RwB97XD) =  -4070.60374327     A.U. after   20 cycles

 Excitation energies and oscillator strengths:

 Excited State   1:      Singlet-A      1.6417 eV  755.21 nm  f=0.3811  <S**2>=0.000
     310 -> 316        0.19303
     311 -> 313        0.68166
     310 <- 316        0.12003
 This state for optimization and/or second-order correction.
 Total Energy, E(TD-HF/TD-DFT) =  -4070.54341120
 Copying the excited state density for this state as the 1-particle RhoCI density.

 Excited State   2:      Singlet-A      1.6934 eV  732.14 nm  f=0.3782  <S**2>=0.000
     309 -> 315       -0.20453
     312 -> 314        0.67932
     309 <- 315       -0.12255

 Excited State   3:      Singlet-A      2.1319 eV  581.57 nm  f=0.1058  <S**2>=0.000
     310 -> 313        0.64022
     311 -> 316       -0.28531

 Excited State   4:      Singlet-A      2.2627 eV  547.96 nm  f=0.0703  <S**2>=0.000
     309 -> 314        0.61590
     312 -> 315        0.33996

 Excited State   5:      Singlet-A      3.3483 eV  370.29 nm  f=0.0010  <S**2>=0.000
     307 -> 313       -0.21632
     308 -> 313        0.65074

 The electronic state is 1-A.
 Alpha  occ. eigenvalues --  -46.96346 -46.94871 -19.30436 -19.29993 -19.24965
 Alpha  occ. eigenvalues --  -19.24613 -19.24107 -19.23853 -19.23704 -19.23691
 Alpha  occ. eigenvalues --  -14.46809 -14.46506 -14.46389 -14.45742 -14.44419
 Alpha  occ. eigenvalues --  -14.44220 -14.44120 -14.43400 -10.43027 -10.42975
 Alpha  occ. eigenvalues --  -10.39702 -10.39252 -10.38825 -10.38510 -10.35691
 Alpha  occ. eigenvalues --  -10.35156 -10.35004 -10.34985 -10.34980 -10.34821
 Alpha  occ. eigenvalues --  -10.34757 -10.34635 -10.34615 -10.34590 -10.34491
 Alpha  occ. eigenvalues --  -10.34469 -10.34363 -10.34115 -10.33621 -10.33495
 Alpha  occ. eigenvalues --  -10.33227 -10.33042 -10.32842 -10.32569 -10.32568
 Alpha  occ. eigenvalues --  -10.32406 -10.32331 -10.32200 -10.32168 -10.32095
 Alpha  occ. eigenvalues --  -10.32081 -10.32063 -10.32047 -10.31890 -10.31751
 Alpha  occ. eigenvalues --  -10.31709 -10.31683 -10.31526 -10.31461 -10.31414
 Alpha  occ. eigenvalues --  -10.31329 -10.31288 -10.31140 -10.31060 -10.30993
 Alpha  occ. eigenvalues --  -10.30980 -10.30772 -10.30766 -10.30459 -10.30446
 Alpha  occ. eigenvalues --  -10.30432 -10.30269 -10.30257 -10.30119 -10.30062
 Alpha  occ. eigenvalues --  -10.29990 -10.29873 -10.29868 -10.29865 -10.29796
 Alpha  occ. eigenvalues --  -10.29592 -10.29277 -10.28958 -10.28925 -10.28786
 Alpha  occ. eigenvalues --  -10.28674  -3.22140  -3.20908  -1.95692  -1.95262
 Alpha  occ. eigenvalues --   -1.95090  -1.94508  -1.94026  -1.93890  -1.18467
 Alpha  occ. eigenvalues --   -1.18340  -1.15140  -1.11745  -1.11453  -1.11309
 Alpha  occ. eigenvalues --   -1.10753  -1.08187  -1.07800  -1.06646  -1.06228
 Alpha  occ. eigenvalues --   -1.05146  -1.05118  -1.04527  -1.04264  -1.03885
 Alpha  occ. eigenvalues --   -0.95190  -0.93585  -0.91980  -0.91219  -0.91173
 Alpha  occ. eigenvalues --   -0.90749  -0.90444  -0.90201  -0.89570  -0.89317
 Alpha  occ. eigenvalues --   -0.89126  -0.89038  -0.88607  -0.88045  -0.86658
 Alpha  occ. eigenvalues --   -0.85984  -0.85891  -0.85606  -0.84849  -0.84559
 Alpha  occ. eigenvalues --   -0.84463  -0.83915  -0.83228  -0.82892  -0.82793
 Alpha  occ. eigenvalues --   -0.82376  -0.80663  -0.80276  -0.79676  -0.79403
 Alpha  occ. eigenvalues --   -0.79072  -0.79024  -0.78513  -0.77816  -0.77211
 Alpha  occ. eigenvalues --   -0.76610  -0.75018  -0.74330  -0.73959  -0.73442
 Alpha  occ. eigenvalues --   -0.71738  -0.71485  -0.71256  -0.71201  -0.70221
 Alpha  occ. eigenvalues --   -0.70071  -0.68945  -0.68560  -0.68358  -0.67403
 Alpha  occ. eigenvalues --   -0.67138  -0.66940  -0.66596  -0.66241  -0.66099
 Alpha  occ. eigenvalues --   -0.66016  -0.64565  -0.63698  -0.62421  -0.62056
 Alpha  occ. eigenvalues --   -0.61929  -0.61522  -0.61519  -0.60814  -0.60792
 Alpha  occ. eigenvalues --   -0.60393  -0.60328  -0.59988  -0.59654  -0.59398
 Alpha  occ. eigenvalues --   -0.58502  -0.58059  -0.57858  -0.57727  -0.57551
 Alpha  occ. eigenvalues --   -0.57343  -0.57002  -0.56539  -0.56400  -0.56008
 Alpha  occ. eigenvalues --   -0.55991  -0.55858  -0.55685  -0.55449  -0.55307
 Alpha  occ. eigenvalues --   -0.55157  -0.54913  -0.54721  -0.54304  -0.53940
 Alpha  occ. eigenvalues --   -0.53828  -0.53686  -0.53668  -0.53158  -0.53152
 Alpha  occ. eigenvalues --   -0.52888  -0.52771  -0.52748  -0.52530  -0.52480
 Alpha  occ. eigenvalues --   -0.52249  -0.52245  -0.51964  -0.51893  -0.51614
 Alpha  occ. eigenvalues --   -0.51441  -0.51118  -0.51036  -0.50946  -0.50677
 Alpha  occ. eigenvalues --   -0.50631  -0.50532  -0.50341  -0.50305  -0.50297
 Alpha  occ. eigenvalues --   -0.49909  -0.49789  -0.49657  -0.49324  -0.49192
 Alpha  occ. eigenvalues --   -0.49188  -0.49082  -0.49005  -0.48737  -0.48498
 Alpha  occ. eigenvalues --   -0.48186  -0.47996  -0.47978  -0.47765  -0.47542
 Alpha  occ. eigenvalues --   -0.47473  -0.47381  -0.47120  -0.47042  -0.46567
 Alpha  occ. eigenvalues --   -0.46522  -0.46494  -0.46259  -0.46017  -0.45906
 Alpha  occ. eigenvalues --   -0.45862  -0.45659  -0.45656  -0.45582  -0.45367
 Alpha  occ. eigenvalues --   -0.45232  -0.45095  -0.44990  -0.44918  -0.44530
 Alpha  occ. eigenvalues --   -0.44493  -0.44381  -0.44343  -0.44010  -0.43975
 Alpha  occ. eigenvalues --   -0.43781  -0.43702  -0.43676  -0.43537  -0.43430
 Alpha  occ. eigenvalues --   -0.43242  -0.43008  -0.42818  -0.42795  -0.42494
 Alpha  occ. eigenvalues --   -0.42074  -0.42033  -0.41841  -0.41112  -0.40855
 Alpha  occ. eigenvalues --   -0.40740  -0.40052  -0.39871  -0.39857  -0.39347
 Alpha  occ. eigenvalues --   -0.39252  -0.39010  -0.38048  -0.37943  -0.37929
 Alpha  occ. eigenvalues --   -0.37695  -0.37678  -0.36609  -0.35913  -0.35573
 Alpha  occ. eigenvalues --   -0.35524  -0.35384  -0.35195  -0.33809  -0.33766
 Alpha  occ. eigenvalues --   -0.33044  -0.33019  -0.32786  -0.32642  -0.32562
 Alpha  occ. eigenvalues --   -0.32467  -0.32027  -0.31518  -0.26034  -0.25749
 Alpha  occ. eigenvalues --   -0.22863  -0.22754
 Alpha virt. eigenvalues --   -0.07012  -0.06539   0.00069   0.00281   0.02457
 Alpha virt. eigenvalues --    0.02758   0.04235   0.04590   0.04625   0.06099
 Alpha virt. eigenvalues --    0.06652   0.06997   0.07785   0.08100   0.08488

 Mulliken charges:
               1
     1  Mg   0.974379
     2  C    0.002908
     3  C   -0.074127
     4  C   -0.058888
     5  C   -0.108678
     6  N   -0.330515
     7  C   -0.063505
     8  C    0.015618
     9  C   -0.121726
    10  C    0.063856
    11  C    0.011224
    12  C    0.011728
    13  C   -0.119966
    14  H    0.035292
    15  N   -0.515859
    16  C    0.190108
    17  C   -0.128918
    18  C   -0.091676
    19  C    0.167215
    20  C    0.036575
    21  C    0.055180
    22  O   -0.254766
    23  C    0.008788
    24  N   -0.326397
    25  C   -0.014132
    26  C   -0.059938
    27  C   -0.104935
    28  C    0.037569
    29  C    0.034209
    30  C    0.005198
    31  C   -0.035264
    32  N   -0.421000
    33  C    0.133086
    34  C   -0.209251
    35  C   -0.009003
    36  C    0.152830
    37  C    0.108968
    38  C    0.073391
    39  O   -0.209184
    40  C   -0.032109
    41  C    0.264716
    42  O   -0.283635
    43  O   -0.351481
    44  C    0.134888
    45  H   -0.012358
    46  H    0.030645
    47  H    0.003627
    48  H    0.033964
    49  H    0.037501
    50  H    0.041030
    51  H    0.017676
    52  H    0.035950
    53  H    0.014263
    54  H    0.025742
    55  H    0.056602
    56  H    0.056690
    57  H    0.040384
    58  H    0.054010
    59  H    0.039001
    60  H    0.053116
    61  H    0.060439
    62  H    0.061916
    63  H    0.043774
    64  H    0.028159
    65  H    0.033593
    66  H    0.048040
    67  H    0.054521
    68  H    0.023052
    69  H    0.008865
    70  H    0.052188
    71  H    0.038569
    72  H    0.041108
    73  H    0.077453
    74  H    0.017118
    75  H    0.049460
    76  H    0.080841
    77  H    0.066857
    78  H    0.047326
    79  H    0.046103
    80  Mg   0.948393
    81  C   -0.025624
    82  C   -0.065267
    83  C   -0.063914
    84  C   -0.102297
    85  N   -0.370911
    86  C   -0.015726
    87  C   -0.028511
    88  C   -0.134632
    89  C    0.098522
    90  C    0.020653
    91  C   -0.029892
    92  C   -0.123632
    93  H    0.053511
    94  N   -0.508275
    95  C    0.144308
    96  C   -0.142077
    97  C   -0.082488
    98  C    0.113036
    99  C    0.033063
   100  C    0.056517
   101  O   -0.199123
   102  C   -0.017995
   103  N   -0.306678
   104  C    0.065579
   105  C   -0.068807
   106  C   -0.047954
   107  C    0.007233
   108  C    0.036423
   109  C   -0.047604
   110  C   -0.031037
   111  N   -0.393410
   112  C    0.166274
   113  C   -0.184883
   114  C   -0.031405
   115  C    0.105974
   116  C    0.061927
   117  C    0.130826
   118  O   -0.210234
   119  C   -0.060709
   120  C    0.252775
   121  O   -0.228662
   122  O   -0.379418
   123  C    0.117923
   124  H   -0.017350
   125  H    0.026222
   126  H   -0.005170
   127  H    0.048855
   128  H    0.042212
   129  H    0.042694
   130  H    0.050126
   131  H    0.032119
   132  H    0.030157
   133  H    0.046343
   134  H    0.034889
   135  H    0.055815
   136  H    0.037170
   137  H    0.055353
   138  H    0.058290
   139  H    0.064566
   140  H    0.073666
   141  H    0.037402
   142  H    0.039930
   143  H    0.035234
   144  H    0.044175
   145  H    0.034864
   146  H    0.041326
   147  H    0.023727
   148  H    0.022427
   149  H    0.035742
   150  H    0.033333
   151  H    0.037192
   152  H    0.045466
   153  H    0.051371
   154  H    0.052635
   155  H    0.070892
   156  H    0.051483
   157  H    0.068780
   158  H    0.086291
 Sum of Mulliken charges =  -0.00000

 Dipole moment (field-independent basis, Debye):
    X=              1.5528    Y=              0.5587    Z=              0.7129  Tot=              1.7976
 Quadrupole moment (field-independent basis, Debye-Ang):
   XX=           -923.7345   YY=           -460.2674   ZZ=           -527.5266
   XY=             -6.4737   XZ=            145.7516   YZ=              9.3516

 Normal termination of Gaussian 16 at Mon Sep 20 02:26:25 2021.
