 Gaussian 16, Revision A.03,
 Gaussian 16:  ES64L-G16RevA.03 25-Dec-2016

 --------------------------------
 #p wB97XD/Def2SVP td=(nstates=5)
 --------------------------------

 --------------------------------
 TDDFT excited states in gaussian
 --------------------------------
 Symbolic Z-matrix:
 Charge =  0 Multiplicity = 1

                         Standard orientation:
 ---------------------------------------------------------------------
 Center     Atomic      Atomic             Coordinates (Angstroms)
 Number     Number       Type             X           Y           Z
 ---------------------------------------------------------------------
      1         12           0      -28.236586    0.054789   -0.432781
      2          6           0      -24.894232   -0.548286   -0.251740
      3          6           0      -28.809551   -3.363454    0.271359
      4          6           0      -31.359505    0.855141    0.439574
      5          6           0      -27.564603    3.599098   -0.602890
      6          7           0      -26.981490   -1.685538   -0.075623
      7          6           0      -25.692998   -1.763374   -0.026106
      8          6           0      -25.160000   -3.240078   -0.006414
      9          6           0      -26.453399   -4.131641   -0.134502
     10          6           0      -27.544228   -3.012971   -0.008287
     11          6           0      -26.496723   -5.101331   -1.316306
     12          6           0      -24.214423   -3.540750    1.302170
     13          6           0      -24.375727   -2.666640    2.535325
     14          1           0      -23.873760   -3.144293    3.897950
     15          7           0      -29.850855   -1.107477    0.268350
     16          6           0      -29.922816   -2.470764    0.425385
     17          6           0      -31.185653   -2.822477    0.912140
     18          6           0      -31.968691   -1.608986    1.020486
     19          6           0      -31.047954   -0.519403    0.601797
     20          6           0      -31.586228   -4.279116    1.057579
     21          6           0      -33.430967   -1.563310    1.499530
     22          8           0      -33.974054   -2.645233    1.817173
     23          6           0      -34.236114   -0.382264    1.619169
     24          7           0      -29.308090    2.027674    0.039466
     25          6           0      -30.603655    1.985083    0.169640
     26          6           0      -31.266835    3.390906    0.118348
     27          6           0      -30.062117    4.276033   -0.269187
     28          6           0      -28.836233    3.276997   -0.317982
     29          6           0      -32.374346    3.516055   -0.864742
     30          6           0      -29.849156    5.508428    0.730468
     31          6           0      -30.143175    6.947277    0.136857
     32          7           0      -26.621530    1.330755   -0.547903
     33          6           0      -26.460077    2.718301   -0.648125
     34          6           0      -24.999548    3.021209   -0.764220
     35          6           0      -24.392778    1.772470   -0.568302
     36          6           0      -25.401179    0.776460   -0.407109
     37          6           0      -24.339872    4.298621   -0.956999
     38          6           0      -23.130276    1.204021   -0.437098
     39          8           0      -21.976119    1.651149   -0.508056
     40          6           0      -23.381696   -0.326287   -0.321197
     41          6           0      -22.609670   -1.028392   -1.463522
     42          8           0      -21.803813   -1.938071   -1.365422
     43          8           0      -22.928535   -0.512389   -2.701005
     44          6           0      -22.233757   -1.067269   -3.868756
     45          1           0      -28.882094   -4.419903    0.537427
     46          1           0      -32.400859    1.161828    0.556066
     47          1           0      -27.384502    4.652747   -0.825651
     48          1           0      -24.648563   -3.389317   -0.957714
     49          1           0      -26.625191   -4.736852    0.756158
     50          1           0      -27.291008   -4.807415   -2.002197
     51          1           0      -26.712710   -6.123510   -1.003351
     52          1           0      -25.564234   -5.215506   -1.869126
     53          1           0      -23.220479   -3.500471    0.855951
     54          1           0      -24.355745   -4.518535    1.763177
     55          1           0      -25.453060   -2.509752    2.581812
     56          1           0      -23.932616   -1.708454    2.263375
     57          1           0      -32.469930   -4.653405    0.540129
     58          1           0      -31.638699   -4.519773    2.119643
     59          1           0      -30.771913   -4.906111    0.694954
     60          1           0      -34.436364    0.191341    0.714369
     61          1           0      -33.714524    0.373659    2.205355
     62          1           0      -35.161827   -0.537703    2.172364
     63          1           0      -31.738340    3.779494    1.020906
     64          1           0      -30.105341    4.635836   -1.297253
     65          1           0      -33.375121    3.529037   -0.433305
     66          1           0      -32.453305    2.613268   -1.471474
     67          1           0      -32.237030    4.409179   -1.474092
     68          1           0      -28.790975    5.548235    0.992405
     69          1           0      -30.495948    5.494725    1.606679
     70          1           0      -30.744656    7.517784    0.843447
     71          1           0      -30.792528    6.823849   -0.729960
     72          1           0      -29.164037    7.419387    0.054137
     73          1           0      -25.050139    4.881755   -1.543620
     74          1           0      -23.416770    4.173193   -1.524041
     75          1           0      -24.078236    4.658514    0.037610
     76          1           0      -22.827103   -0.792171    0.493020
     77          1           0      -22.245676   -0.318765   -4.661259
     78          1           0      -22.655929   -1.950834   -4.347212
     79          1           0      -21.220543   -1.409839   -3.656606
     80         12           0       27.695194    0.744717   -0.427085
     81          6           0       26.842160   -2.616113    0.411274
     82          6           0       25.418275    1.662789    1.805575
     83          6           0       29.077422    3.828263   -0.375209
     84          6           0       30.607480   -0.644684   -1.939814
     85          7           0       26.263841   -0.309654    0.810322
     86          6           0       26.004295   -1.690053    0.952265
     87          6           0       24.844886   -1.996817    1.951774
     88          6           0       24.384969   -0.560394    2.330150
     89          6           0       25.350469    0.345382    1.536840
     90          6           0       22.888924   -0.450976    1.991632
     91          6           0       25.187299   -2.875146    3.231670
     92          6           0       24.529381   -4.247473    3.317611
     93          1           0       23.691787   -4.555907    4.575456
     94          7           0       27.280194    2.503233    0.468232
     95          6           0       26.256533    2.674624    1.399900
     96          6           0       26.124766    4.032478    1.744165
     97          6           0       27.065751    4.749242    1.028204
     98          6           0       27.866591    3.751443    0.348189
     99          6           0       25.091647    4.706387    2.721609
    100          6           0       27.164017    6.256033    1.075308
    101          8           0       26.378079    6.963861    1.631578
    102          6           0       28.342570    6.899137    0.191501
    103          7           0       29.601344    1.492177   -0.996309
    104          6           0       29.897031    2.824797   -0.902742
    105          6           0       31.413796    2.991307   -1.325827
    106          6           0       31.871487    1.654424   -1.932527
    107          6           0       30.626288    0.748860   -1.594847
    108          6           0       31.713182    4.219634   -2.137349
    109          6           0       33.088389    1.141805   -1.172380
    110          6           0       33.990610    0.170986   -1.886864
    111          7           0       28.457139   -1.234287   -0.942042
    112          6           0       29.619454   -1.615423   -1.568918
    113          6           0       29.654162   -3.024315   -1.723590
    114          6           0       28.535821   -3.535351   -1.023325
    115          6           0       27.919469   -2.377277   -0.470739
    116          6           0       30.724850   -3.836633   -2.333936
    117          6           0       27.762569   -4.696633   -0.562981
    118          8           0       27.934550   -5.893585   -0.829906
    119          6           0       26.608130   -4.165689    0.370838
    120          6           0       25.342985   -4.361382   -0.285500
    121          8           0       24.985551   -3.626325   -1.236240
    122          8           0       24.757188   -5.433072    0.283850
    123          6           0       23.345721   -5.745749   -0.071130
    124          1           0       24.651466    2.002786    2.505258
    125          1           0       29.459178    4.851297   -0.393876
    126          1           0       31.414968   -1.121612   -2.498657
    127          1           0       24.034680   -2.505349    1.429313
    128          1           0       24.529486   -0.320163    3.383043
    129          1           0       22.617759    0.598351    2.104093
    130          1           0       22.215263   -1.041030    2.612871
    131          1           0       22.672614   -0.749529    0.965260
    132          1           0       24.727547   -2.325579    4.053101
    133          1           0       26.267340   -2.935756    3.366042
    134          1           0       25.319955   -4.991512    3.214299
    135          1           0       23.832869   -4.362244    2.486320
    136          1           0       25.690165    5.283099    3.427086
    137          1           0       24.503203    3.967934    3.265926
    138          1           0       24.305022    5.295484    2.250208
    139          1           0       28.194247    7.977156    0.247010
    140          1           0       28.172905    6.463190   -0.793299
    141          1           0       29.231550    6.520157    0.695584
    142          1           0       31.920379    3.139363   -0.371470
    143          1           0       32.112089    1.652774   -2.995595
    144          1           0       32.561061    4.001861   -2.786220
    145          1           0       31.943141    5.003833   -1.415791
    146          1           0       30.858665    4.620213   -2.681480
    147          1           0       32.834753    0.690620   -0.212671
    148          1           0       33.726725    1.953358   -0.823141
    149          1           0       33.771895    0.092748   -2.951670
    150          1           0       33.853390   -0.808376   -1.428021
    151          1           0       35.036660    0.380066   -1.663103
    152          1           0       31.262857   -3.282017   -3.103388
    153          1           0       30.221648   -4.700657   -2.768606
    154          1           0       31.412941   -4.065350   -1.519783
    155          1           0       26.638535   -4.541414    1.393593
    156          1           0       23.372968   -6.834669   -0.009979
    157          1           0       23.036607   -5.361328   -1.042678
    158          1           0       22.664323   -5.496680    0.743056
 ---------------------------------------------------------------------

 SCF Done:  E(RwB97XD) =  -4070.57859590     A.U. after   19 cycles

 Excitation energies and oscillator strengths:

 Excited State   1:      Singlet-A      1.6548 eV  749.24 nm  f=0.4332  <S**2>=0.000
     309 -> 315       -0.16631
     311 -> 313        0.68659
     309 <- 315       -0.11151
 This state for optimization and/or second-order correction.
 Total Energy, E(TD-HF/TD-DFT) =  -4070.51778283
 Copying the excited state density for this state as the 1-particle RhoCI density.

 Excited State   2:      Singlet-A      1.6724 eV  741.35 nm  f=0.3868  <S**2>=0.000
     310 -> 316        0.17578
     312 -> 314        0.68532
     310 <- 316        0.11222

 Excited State   3:      Singlet-A      2.1981 eV  564.05 nm  f=0.1156  <S**2>=0.000
     309 -> 313        0.64039
     311 -> 315        0.27516

 Excited State   4:      Singlet-A      2.2043 eV  562.46 nm  f=0.1143  <S**2>=0.000
     310 -> 314        0.63531
     312 -> 316       -0.29116

 Excited State   5:      Singlet-A      3.2251 eV  384.44 nm  f=0.0080  <S**2>=0.000
     302 -> 313        0.15886
     307 -> 313        0.66802
     307 -> 317        0.10503

 The electronic state is 1-A.
 Alpha  occ. eigenvalues --  -46.96685 -46.94865 -19.31695 -19.30185 -19.25113
 Alpha  occ. eigenvalues --  -19.24695 -19.24580 -19.24137 -19.23764 -19.22405
 Alpha  occ. eigenvalues --  -14.47822 -14.47172 -14.46775 -14.46513 -14.45199
 Alpha  occ. eigenvalues --  -14.44394 -14.44168 -14.43037 -10.43649 -10.43322
 Alpha  occ. eigenvalues --  -10.39476 -10.39397 -10.38818 -10.38176 -10.37091
 Alpha  occ. eigenvalues --  -10.36570 -10.35932 -10.35704 -10.35506 -10.35346
 Alpha  occ. eigenvalues --  -10.35296 -10.35097 -10.34764 -10.34711 -10.34631
 Alpha  occ. eigenvalues --  -10.34599 -10.34511 -10.34497 -10.33881 -10.33694
 Alpha  occ. eigenvalues --  -10.33538 -10.33380 -10.32999 -10.32962 -10.32938
 Alpha  occ. eigenvalues --  -10.32632 -10.32568 -10.32411 -10.32408 -10.32406
 Alpha  occ. eigenvalues --  -10.32358 -10.32191 -10.31965 -10.31963 -10.31798
 Alpha  occ. eigenvalues --  -10.31749 -10.31640 -10.31611 -10.31330 -10.31276
 Alpha  occ. eigenvalues --  -10.31159 -10.31140 -10.31129 -10.31087 -10.31075
 Alpha  occ. eigenvalues --  -10.31054 -10.30983 -10.30960 -10.30858 -10.30811
 Alpha  occ. eigenvalues --  -10.30755 -10.30317 -10.30272 -10.30268 -10.30238
 Alpha  occ. eigenvalues --  -10.30049 -10.30009 -10.29871 -10.29750 -10.29689
 Alpha  occ. eigenvalues --  -10.29650 -10.29477 -10.29259 -10.28967 -10.28849
 Alpha  occ. eigenvalues --  -10.28785  -3.22558  -3.20905  -1.96119  -1.95708
 Alpha  occ. eigenvalues --   -1.95490  -1.94470  -1.94009  -1.93896  -1.18797
 Alpha  occ. eigenvalues --   -1.18369  -1.14224  -1.11383  -1.10868  -1.09775
 Alpha  occ. eigenvalues --   -1.09622  -1.09547  -1.07074  -1.06531  -1.06146
 Alpha  occ. eigenvalues --   -1.05739  -1.05234  -1.04839  -1.04248  -1.03754
 Alpha  occ. eigenvalues --   -0.95070  -0.94155  -0.91629  -0.91509  -0.91302
 Alpha  occ. eigenvalues --   -0.91203  -0.90928  -0.90675  -0.90347  -0.89703
 Alpha  occ. eigenvalues --   -0.89280  -0.88625  -0.88414  -0.87209  -0.86711
 Alpha  occ. eigenvalues --   -0.86578  -0.86119  -0.86081  -0.85178  -0.84844
 Alpha  occ. eigenvalues --   -0.84424  -0.83827  -0.83463  -0.83098  -0.82283
 Alpha  occ. eigenvalues --   -0.82254  -0.80462  -0.79643  -0.79357  -0.79327
 Alpha  occ. eigenvalues --   -0.78888  -0.78605  -0.78313  -0.78158  -0.77234
 Alpha  occ. eigenvalues --   -0.77091  -0.75424  -0.74721  -0.73960  -0.73701
 Alpha  occ. eigenvalues --   -0.71634  -0.71236  -0.70857  -0.70510  -0.70361
 Alpha  occ. eigenvalues --   -0.69707  -0.69231  -0.68839  -0.67961  -0.67649
 Alpha  occ. eigenvalues --   -0.67646  -0.67489  -0.66997  -0.66845  -0.66559
 Alpha  occ. eigenvalues --   -0.66554  -0.65372  -0.64206  -0.62906  -0.62179
 Alpha  occ. eigenvalues --   -0.62005  -0.61603  -0.61379  -0.60939  -0.60542
 Alpha  occ. eigenvalues --   -0.60451  -0.60187  -0.60027  -0.59246  -0.59137
 Alpha  occ. eigenvalues --   -0.58371  -0.58309  -0.57983  -0.57622  -0.57611
 Alpha  occ. eigenvalues --   -0.56957  -0.56758  -0.56614  -0.56501  -0.56193
 Alpha  occ. eigenvalues --   -0.55858  -0.55761  -0.55447  -0.55217  -0.55092
 Alpha  occ. eigenvalues --   -0.54815  -0.54803  -0.54611  -0.54420  -0.54350
 Alpha  occ. eigenvalues --   -0.54180  -0.53622  -0.53426  -0.53384  -0.53269
 Alpha  occ. eigenvalues --   -0.53136  -0.52855  -0.52619  -0.52445  -0.52269
 Alpha  occ. eigenvalues --   -0.52261  -0.52071  -0.51924  -0.51912  -0.51742
 Alpha  occ. eigenvalues --   -0.51491  -0.51176  -0.51163  -0.50937  -0.50875
 Alpha  occ. eigenvalues --   -0.50765  -0.50488  -0.50377  -0.50265  -0.50156
 Alpha  occ. eigenvalues --   -0.49961  -0.49576  -0.49451  -0.49408  -0.49353
 Alpha  occ. eigenvalues --   -0.49137  -0.48884  -0.48817  -0.48751  -0.48357
 Alpha  occ. eigenvalues --   -0.48230  -0.48119  -0.48021  -0.47865  -0.47673
 Alpha  occ. eigenvalues --   -0.47567  -0.47234  -0.47199  -0.47044  -0.46982
 Alpha  occ. eigenvalues --   -0.46874  -0.46843  -0.46674  -0.46551  -0.46400
 Alpha  occ. eigenvalues --   -0.46233  -0.46060  -0.45759  -0.45735  -0.45586
 Alpha  occ. eigenvalues --   -0.45429  -0.45240  -0.44982  -0.44717  -0.44706
 Alpha  occ. eigenvalues --   -0.44561  -0.44506  -0.44218  -0.44188  -0.44077
 Alpha  occ. eigenvalues --   -0.43904  -0.43824  -0.43570  -0.43544  -0.43430
 Alpha  occ. eigenvalues --   -0.42885  -0.42767  -0.42625  -0.42499  -0.42099
 Alpha  occ. eigenvalues --   -0.41991  -0.41987  -0.41772  -0.41081  -0.40989
 Alpha  occ. eigenvalues --   -0.40683  -0.40380  -0.40119  -0.40116  -0.39813
 Alpha  occ. eigenvalues --   -0.39567  -0.39238  -0.38827  -0.38762  -0.38522
 Alpha  occ. eigenvalues --   -0.38415  -0.37925  -0.36825  -0.36330  -0.36257
 Alpha  occ. eigenvalues --   -0.36224  -0.36135  -0.35187  -0.34013  -0.33806
 Alpha  occ. eigenvalues --   -0.33207  -0.33151  -0.32976  -0.32726  -0.32654
 Alpha  occ. eigenvalues --   -0.32030  -0.31145  -0.31054  -0.26880  -0.26201
 Alpha  occ. eigenvalues --   -0.23487  -0.23057
 Alpha virt. eigenvalues --   -0.07893  -0.07085   0.00019   0.00235   0.01984
 Alpha virt. eigenvalues --    0.02664   0.03799   0.04347   0.04797   0.05455
 Alpha virt. eigenvalues --    0.06768   0.07182   0.07235   0.07598   0.08015

 Mulliken charges:
               1
     1  Mg   0.957023
     2  C    0.004146
     3  C   -0.071994
     4  C   -0.044031
     5  C   -0.099296
     6  N   -0.349261
     7  C    0.011046
     8  C   -0.050985
     9  C   -0.100600
    10  C    0.039498
    11  C    0.023924
    12  C   -0.030423
    13  C   -0.101703
    14  H    0.062353
    15  N   -0.458907
    16  C    0.154506
    17  C   -0.150887
    18  C   -0.094596
    19  C    0.205465
    20  C    0.091868
    21  C    0.063202
    22  O   -0.267827
    23  C   -0.000088
    24  N   -0.297943
    25  C    0.011020
    26  C   -0.080693
    27  C   -0.046008
    28  C    0.048445
    29  C    0.002526
    30  C   -0.042780
    31  C   -0.065012
    32  N   -0.464744
    33  C    0.133713
    34  C   -0.171351
    35  C   -0.013133
    36  C    0.155585
    37  C    0.081416
    38  C    0.117869
    39  O   -0.220281
    40  C   -0.108071
    41  C    0.242751
    42  O   -0.244092
    43  O   -0.368871
    44  C    0.139796
    45  H    0.011734
    46  H   -0.042743
    47  H    0.000697
    48  H    0.052509
    49  H    0.038597
    50  H    0.039481
    51  H    0.034761
    52  H    0.041348
    53  H    0.057310
    54  H    0.041145
    55  H    0.052226
    56  H    0.036566
    57  H    0.060593
    58  H    0.046861
    59  H    0.000131
    60  H    0.063481
    61  H    0.040924
    62  H    0.054687
    63  H    0.045307
    64  H    0.032495
    65  H    0.028518
    66  H    0.031387
    67  H    0.039498
    68  H    0.036125
    69  H    0.041004
    70  H    0.033306
    71  H    0.036191
    72  H    0.047801
    73  H    0.043720
    74  H    0.066875
    75  H    0.074601
    76  H    0.058586
    77  H    0.052716
    78  H    0.037445
    79  H    0.061542
    80  Mg   0.984805
    81  C   -0.043525
    82  C   -0.132042
    83  C   -0.102542
    84  C   -0.063442
    85  N   -0.377771
    86  C    0.011573
    87  C   -0.047239
    88  C   -0.123602
    89  C    0.121264
    90  C    0.014123
    91  C    0.012038
    92  C   -0.135606
    93  H    0.033950
    94  N   -0.505072
    95  C    0.212702
    96  C   -0.172180
    97  C   -0.054744
    98  C    0.150051
    99  C    0.105820
   100  C    0.008095
   101  O   -0.195272
   102  C   -0.027559
   103  N   -0.393488
   104  C    0.110607
   105  C   -0.081159
   106  C   -0.082625
   107  C    0.108128
   108  C    0.029336
   109  C   -0.045309
   110  C   -0.025479
   111  N   -0.385865
   112  C    0.093455
   113  C   -0.223096
   114  C    0.000616
   115  C    0.116491
   116  C    0.079592
   117  C    0.129021
   118  O   -0.222390
   119  C   -0.072298
   120  C    0.292303
   121  O   -0.279931
   122  O   -0.349450
   123  C    0.124672
   124  H   -0.016729
   125  H   -0.040358
   126  H   -0.012865
   127  H    0.028299
   128  H    0.045433
   129  H    0.027685
   130  H    0.042819
   131  H    0.043030
   132  H    0.041070
   133  H    0.048500
   134  H    0.069461
   135  H    0.032983
   136  H    0.061804
   137  H    0.011503
   138  H    0.062683
   139  H    0.058133
   140  H    0.066122
   141  H    0.068447
   142  H    0.046799
   143  H    0.038413
   144  H    0.041322
   145  H    0.031655
   146  H    0.038558
   147  H    0.030399
   148  H    0.021509
   149  H    0.036051
   150  H    0.030036
   151  H    0.032934
   152  H    0.030631
   153  H    0.066810
   154  H    0.060803
   155  H    0.055750
   156  H    0.061756
   157  H    0.085146
   158  H    0.056452
 Sum of Mulliken charges =  -0.00000

 Dipole moment (field-independent basis, Debye):
    X=             -2.4097    Y=              4.7532    Z=             -2.2708  Tot=              5.7928
 Quadrupole moment (field-independent basis, Debye-Ang):
   XX=           -388.3894   YY=           -520.0833   ZZ=           -500.5193
   XY=            -50.5003   XZ=            111.4351   YZ=            -10.6257

 Normal termination of Gaussian 16 at Sat Sep 18 22:25:45 2021.
