 Gaussian 16, Revision A.03,
 Gaussian 16:  ES64L-G16RevA.03 25-Dec-2016

 --------------------------------
 #p wB97XD/Def2SVP td=(nstates=5)
 --------------------------------

 --------------------------------
 TDDFT excited states in gaussian
 --------------------------------
 Symbolic Z-matrix:
 Charge =  0 Multiplicity = 1

                         Standard orientation:
 ---------------------------------------------------------------------
 Center     Atomic      Atomic             Coordinates (Angstroms)
 Number     Number       Type             X           Y           Z
 ---------------------------------------------------------------------
      1         12           0      -28.876072    0.056677   -0.297883
      2          6           0      -25.554878    0.789711   -0.286056
      3          6           0      -28.291369   -2.175588   -2.978107
      4          6           0      -31.797126   -1.402407    0.404047
      5          6           0      -29.276541    1.927711    2.765037
      6          7           0      -27.139220   -0.551091   -1.457855
      7          6           0      -25.906707   -0.186074   -1.329816
      8          6           0      -24.995475   -0.645350   -2.523070
      9          6           0      -25.981765   -1.356071   -3.526204
     10          6           0      -27.277851   -1.360988   -2.644503
     11          6           0      -26.033850   -0.788829   -4.945486
     12          6           0      -23.720397   -1.548545   -2.017776
     13          6           0      -23.819945   -2.269120   -0.683001
     14          1           0      -22.895629   -3.443851   -0.362820
     15          7           0      -29.888305   -1.574121   -1.172066
     16          6           0      -29.538890   -2.307080   -2.280699
     17          6           0      -30.500447   -3.295223   -2.513879
     18          6           0      -31.540714   -3.140048   -1.518282
     19          6           0      -31.086445   -2.013667   -0.660870
     20          6           0      -30.433654   -4.170020   -3.752297
     21          6           0      -32.800182   -4.021675   -1.438962
     22          8           0      -32.929189   -4.931170   -2.289005
     23          6           0      -33.849315   -3.897245   -0.468765
     24          7           0      -30.309270    0.129132    1.492118
     25          6           0      -31.472111   -0.440082    1.347041
     26          6           0      -32.492307   -0.028662    2.446452
     27          6           0      -31.709508    1.081959    3.180430
     28          6           0      -30.302566    1.118546    2.457644
     29          6           0      -33.791801    0.471808    1.927264
     30          6           0      -31.615952    0.836603    4.759832
     31          6           0      -32.430891    1.843194    5.671838
     32          7           0      -27.755208    1.243871    0.960681
     33          6           0      -28.014560    1.969922    2.129861
     34          6           0      -26.767219    2.693683    2.528219
     35          6           0      -25.808757    2.208042    1.627438
     36          6           0      -26.431920    1.307505    0.713331
     37          6           0      -26.554335    3.620801    3.623322
     38          6           0      -24.444591    2.288120    1.368790
     39          8           0      -23.511713    2.930480    1.872922
     40          6           0      -24.225544    1.457839    0.072202
     41          6           0      -23.583844    2.383226   -0.988817
     42          8           0      -22.557655    2.191014   -1.618529
     43          8           0      -24.318633    3.531575   -1.190505
     44          6           0      -23.795804    4.514224   -2.147217
     45          1           0      -28.001841   -2.870508   -3.768929
     46          1           0      -32.823751   -1.725702    0.587261
     47          1           0      -29.454886    2.621779    3.588868
     48          1           0      -24.704506    0.264610   -3.048544
     49          1           0      -25.761354   -2.418351   -3.635960
     50          1           0      -27.018016   -0.359641   -5.132397
     51          1           0      -25.876178   -1.557547   -5.702886
     52          1           0      -25.265928   -0.054947   -5.190221
     53          1           0      -22.912845   -0.817870   -2.069079
     54          1           0      -23.470337   -2.397310   -2.654668
     55          1           0      -24.855074   -2.609272   -0.667950
     56          1           0      -23.738701   -1.484419    0.069374
     57          1           0      -31.275170   -4.195348   -4.445107
     58          1           0      -30.162743   -5.181314   -3.448089
     59          1           0      -29.587862   -3.853008   -4.362107
     60          1           0      -34.410533   -2.963365   -0.442544
     61          1           0      -33.434516   -3.891733    0.538709
     62          1           0      -34.535888   -4.743159   -0.455479
     63          1           0      -32.824259   -0.782852    3.159850
     64          1           0      -32.094502    2.082460    2.982887
     65          1           0      -34.624035   -0.226262    2.016377
     66          1           0      -33.758744    0.572412    0.841830
     67          1           0      -34.057368    1.407935    2.418156
     68          1           0      -30.579904    0.994487    5.062520
     69          1           0      -32.005462   -0.125401    5.090138
     70          1           0      -32.981027    1.286127    6.429171
     71          1           0      -33.207231    2.297199    5.055849
     72          1           0      -31.670633    2.446296    6.168546
     73          1           0      -27.517083    4.117630    3.745485
     74          1           0      -25.795405    4.358661    3.360689
     75          1           0      -26.174125    3.027273    4.454219
     76          1           0      -23.386081    0.766430    0.141666
     77          1           0      -24.203647    5.492041   -1.890314
     78          1           0      -24.056951    4.398199   -3.198967
     79          1           0      -22.707153    4.536846   -2.204599
     80         12           0       28.814062   -0.468616    0.100704
     81          6           0       25.967633    1.570025    0.291897
     82          6           0       29.787697    1.322149   -2.674075
     83          6           0       31.469307   -2.420511   -0.076667
     84          6           0       27.580908   -2.280190    2.846652
     85          7           0       27.975823    1.288594   -0.956177
     86          6           0       26.782870    1.980335   -0.745530
     87          6           0       26.702008    3.342129   -1.540916
     88          6           0       27.830398    3.102031   -2.525189
     89          6           0       28.608645    1.814649   -2.027471
     90          6           0       27.253096    2.766847   -3.976269
     91          6           0       27.118677    4.441720   -0.466064
     92          6           0       26.292352    5.802337   -0.463323
     93          1           0       25.863355    6.138158   -1.868760
     94          7           0       30.282216   -0.619063   -1.251270
     95          6           0       30.526018    0.161800   -2.300041
     96          6           0       31.731544   -0.204389   -2.995232
     97          6           0       32.347292   -1.168993   -2.173299
     98          6           0       31.319920   -1.499019   -1.115026
     99          6           0       32.231561    0.396721   -4.257513
    100          6           0       33.752188   -1.734658   -2.204272
    101          8           0       34.234928   -2.384752   -1.270066
    102          6           0       34.599757   -1.604271   -3.472822
    103          7           0       29.400024   -2.169096    1.226387
    104          6           0       30.623948   -2.726385    0.940218
    105          6           0       30.944498   -3.764067    2.013920
    106          6           0       29.730132   -3.649908    3.058713
    107          6           0       28.860318   -2.608003    2.405875
    108          6           0       31.202900   -5.160208    1.344859
    109          6           0       30.092103   -3.351918    4.505291
    110          6           0       29.469641   -4.353215    5.528091
    111          7           0       27.117656   -0.394055    1.303418
    112          6           0       26.730614   -1.228975    2.398289
    113          6           0       25.465104   -0.828882    2.901175
    114          6           0       25.145122    0.273171    2.090422
    115          6           0       26.156841    0.444045    1.122812
    116          6           0       24.652518   -1.362474    4.036702
    117          6           0       24.178849    1.295530    1.845343
    118          8           0       23.109761    1.552468    2.347117
    119          6           0       24.747786    2.228850    0.739450
    120          6           0       23.694221    2.463839   -0.281205
    121          8           0       23.253832    1.664026   -1.102052
    122          8           0       23.340851    3.749071   -0.182699
    123          6           0       22.375188    4.239374   -1.143665
    124          1           0       30.279539    1.884282   -3.470500
    125          1           0       32.363107   -3.037774   -0.197215
    126          1           0       27.190253   -2.774890    3.738417
    127          1           0       25.652625    3.442780   -1.816255
    128          1           0       28.508991    3.954320   -2.535059
    129          1           0       26.163324    2.743909   -3.995279
    130          1           0       27.634041    1.791452   -4.278290
    131          1           0       27.662635    3.553528   -4.610014
    132          1           0       28.154822    4.765357   -0.560338
    133          1           0       27.054460    3.952162    0.506044
    134          1           0       26.945834    6.646680   -0.243591
    135          1           0       25.577853    5.835112    0.359591
    136          1           0       33.135028    0.950930   -3.999524
    137          1           0       31.516049    1.105430   -4.672166
    138          1           0       32.470820   -0.340796   -5.023047
    139          1           0       35.326019   -2.395036   -3.286259
    140          1           0       35.047992   -0.619123   -3.607231
    141          1           0       34.138241   -1.898958   -4.415108
    142          1           0       31.860604   -3.591519    2.578716
    143          1           0       29.176359   -4.588699    3.042119
    144          1           0       32.102107   -5.551168    1.821098
    145          1           0       31.288042   -5.122379    0.258802
    146          1           0       30.490985   -5.906284    1.699883
    147          1           0       29.841493   -2.342982    4.831415
    148          1           0       31.156547   -3.584227    4.560915
    149          1           0       28.971190   -5.173021    5.010569
    150          1           0       28.632535   -3.909785    6.066898
    151          1           0       30.229199   -4.763114    6.194110
    152          1           0       25.207754   -0.977121    4.892320
    153          1           0       24.615813   -2.444246    3.910051
    154          1           0       23.656640   -0.923730    4.079791
    155          1           0       24.869994    3.179862    1.259568
    156          1           0       21.484670    3.610338   -1.130443
    157          1           0       22.671712    4.218408   -2.192890
    158          1           0       22.123022    5.251788   -0.827664
 ---------------------------------------------------------------------

 SCF Done:  E(RwB97XD) =  -4070.60153201     A.U. after   19 cycles

 Excitation energies and oscillator strengths:

 Excited State   1:      Singlet-A      1.6549 eV  749.21 nm  f=0.4349  <S**2>=0.000
     309 -> 315        0.16631
     311 -> 313        0.68660
     309 <- 315        0.11151
 This state for optimization and/or second-order correction.
 Total Energy, E(TD-HF/TD-DFT) =  -4070.54071722
 Copying the excited state density for this state as the 1-particle RhoCI density.

 Excited State   2:      Singlet-A      1.6810 eV  737.57 nm  f=0.3797  <S**2>=0.000
     310 -> 316        0.16571
     312 -> 314        0.68554
     310 <- 316        0.10524

 Excited State   3:      Singlet-A      2.1981 eV  564.06 nm  f=0.1161  <S**2>=0.000
     309 -> 313        0.64043
     311 -> 315       -0.27517

 Excited State   4:      Singlet-A      2.2342 eV  554.94 nm  f=0.1200  <S**2>=0.000
     310 -> 314        0.63519
     312 -> 316       -0.28429

 Excited State   5:      Singlet-A      3.2252 eV  384.42 nm  f=0.0080  <S**2>=0.000
     303 -> 313       -0.15956
     308 -> 313        0.66784
     308 -> 317        0.10500

 The electronic state is 1-A.
 Alpha  occ. eigenvalues --  -46.96663 -46.94091 -19.30421 -19.30160 -19.25086
 Alpha  occ. eigenvalues --  -19.24994 -19.24113 -19.23700 -19.22385 -19.22356
 Alpha  occ. eigenvalues --  -14.47800 -14.46832 -14.46491 -14.46202 -14.45175
 Alpha  occ. eigenvalues --  -14.44834 -14.44370 -14.43010 -10.43623 -10.42114
 Alpha  occ. eigenvalues --  -10.40255 -10.38794 -10.38154 -10.37074 -10.37068
 Alpha  occ. eigenvalues --  -10.35980 -10.35909 -10.35324 -10.35271 -10.35126
 Alpha  occ. eigenvalues --  -10.35061 -10.34740 -10.34724 -10.34722 -10.34689
 Alpha  occ. eigenvalues --  -10.34608 -10.34473 -10.34438 -10.34033 -10.33858
 Alpha  occ. eigenvalues --  -10.33515 -10.33356 -10.33271 -10.32945 -10.32938
 Alpha  occ. eigenvalues --  -10.32914 -10.32844 -10.32546 -10.32484 -10.32384
 Alpha  occ. eigenvalues --  -10.32374 -10.32333 -10.32146 -10.31802 -10.31727
 Alpha  occ. eigenvalues --  -10.31612 -10.31589 -10.31587 -10.31407 -10.31138
 Alpha  occ. eigenvalues --  -10.31118 -10.31103 -10.31080 -10.31076 -10.31064
 Alpha  occ. eigenvalues --  -10.31051 -10.30834 -10.30785 -10.30732 -10.30665
 Alpha  occ. eigenvalues --  -10.30574 -10.30533 -10.30248 -10.30139 -10.30116
 Alpha  occ. eigenvalues --  -10.29988 -10.29931 -10.29888 -10.29850 -10.29727
 Alpha  occ. eigenvalues --  -10.29593 -10.29568 -10.29456 -10.29216 -10.28762
 Alpha  occ. eigenvalues --  -10.27521  -3.22535  -3.20210  -1.96096  -1.95686
 Alpha  occ. eigenvalues --   -1.95466  -1.93817  -1.93320  -1.93213  -1.19240
 Alpha  occ. eigenvalues --   -1.18343  -1.12610  -1.11511  -1.11358  -1.09754
 Alpha  occ. eigenvalues --   -1.09596  -1.09222  -1.07060  -1.07051  -1.06508
 Alpha  occ. eigenvalues --   -1.05878  -1.05716  -1.04894  -1.04335  -1.04225
 Alpha  occ. eigenvalues --   -0.95046  -0.94572  -0.91606  -0.91593  -0.91281
 Alpha  occ. eigenvalues --   -0.90904  -0.90393  -0.90323  -0.90267  -0.89873
 Alpha  occ. eigenvalues --   -0.89679  -0.88918  -0.88563  -0.87185  -0.86555
 Alpha  occ. eigenvalues --   -0.86059  -0.85854  -0.85399  -0.84820  -0.84402
 Alpha  occ. eigenvalues --   -0.84238  -0.83750  -0.83439  -0.83189  -0.82294
 Alpha  occ. eigenvalues --   -0.82259  -0.80892  -0.80439  -0.79334  -0.79314
 Alpha  occ. eigenvalues --   -0.78864  -0.78651  -0.78291  -0.77480  -0.77211
 Alpha  occ. eigenvalues --   -0.76890  -0.75401  -0.75063  -0.73937  -0.73366
 Alpha  occ. eigenvalues --   -0.71611  -0.71150  -0.70836  -0.70768  -0.70337
 Alpha  occ. eigenvalues --   -0.69588  -0.69309  -0.68816  -0.67940  -0.67625
 Alpha  occ. eigenvalues --   -0.67349  -0.67142  -0.66973  -0.66821  -0.66535
 Alpha  occ. eigenvalues --   -0.66464  -0.65348  -0.64405  -0.62884  -0.62807
 Alpha  occ. eigenvalues --   -0.61982  -0.61516  -0.61127  -0.60916  -0.60581
 Alpha  occ. eigenvalues --   -0.60519  -0.60004  -0.59684  -0.59256  -0.59222
 Alpha  occ. eigenvalues --   -0.58644  -0.58286  -0.57599  -0.57586  -0.57550
 Alpha  occ. eigenvalues --   -0.57281  -0.56734  -0.56477  -0.56334  -0.55835
 Alpha  occ. eigenvalues --   -0.55728  -0.55475  -0.55424  -0.55194  -0.55131
 Alpha  occ. eigenvalues --   -0.54779  -0.54587  -0.54531  -0.54455  -0.54155
 Alpha  occ. eigenvalues --   -0.54035  -0.53653  -0.53403  -0.53245  -0.53194
 Alpha  occ. eigenvalues --   -0.53001  -0.52833  -0.52668  -0.52598  -0.52318
 Alpha  occ. eigenvalues --   -0.52245  -0.52197  -0.51928  -0.51889  -0.51522
 Alpha  occ. eigenvalues --   -0.51467  -0.51179  -0.51154  -0.50913  -0.50741
 Alpha  occ. eigenvalues --   -0.50590  -0.50468  -0.50466  -0.50421  -0.50242
 Alpha  occ. eigenvalues --   -0.49783  -0.49553  -0.49538  -0.49437  -0.49332
 Alpha  occ. eigenvalues --   -0.49114  -0.49077  -0.48794  -0.48728  -0.48624
 Alpha  occ. eigenvalues --   -0.48436  -0.48289  -0.48096  -0.47983  -0.47842
 Alpha  occ. eigenvalues --   -0.47650  -0.47188  -0.47176  -0.46958  -0.46910
 Alpha  occ. eigenvalues --   -0.46819  -0.46601  -0.46527  -0.46456  -0.46377
 Alpha  occ. eigenvalues --   -0.46364  -0.46209  -0.45735  -0.45642  -0.45576
 Alpha  occ. eigenvalues --   -0.45563  -0.44961  -0.44878  -0.44693  -0.44539
 Alpha  occ. eigenvalues --   -0.44517  -0.44251  -0.44165  -0.44052  -0.43881
 Alpha  occ. eigenvalues --   -0.43835  -0.43522  -0.43407  -0.42996  -0.42861
 Alpha  occ. eigenvalues --   -0.42744  -0.42677  -0.42603  -0.42280  -0.41966
 Alpha  occ. eigenvalues --   -0.41956  -0.41750  -0.41600  -0.40967  -0.40701
 Alpha  occ. eigenvalues --   -0.40659  -0.40169  -0.40095  -0.39789  -0.39591
 Alpha  occ. eigenvalues --   -0.39344  -0.38864  -0.38802  -0.38497  -0.38426
 Alpha  occ. eigenvalues --   -0.38392  -0.38299  -0.36800  -0.36307  -0.36234
 Alpha  occ. eigenvalues --   -0.36202  -0.35851  -0.34940  -0.34289  -0.33782
 Alpha  occ. eigenvalues --   -0.33554  -0.33183  -0.33127  -0.33096  -0.32010
 Alpha  occ. eigenvalues --   -0.31653  -0.31281  -0.31122  -0.26857  -0.26029
 Alpha  occ. eigenvalues --   -0.23464  -0.22854
 Alpha virt. eigenvalues --   -0.07870  -0.06903   0.00042   0.00254   0.02008
 Alpha virt. eigenvalues --    0.02559   0.03821   0.04370   0.04987   0.06478
 Alpha virt. eigenvalues --    0.07208   0.07621   0.08042   0.08139   0.08459

 Mulliken charges:
               1
     1  Mg   0.957129
     2  C    0.004164
     3  C   -0.071980
     4  C   -0.044152
     5  C   -0.099251
     6  N   -0.349383
     7  C    0.011092
     8  C   -0.051025
     9  C   -0.100587
    10  C    0.039621
    11  C    0.023939
    12  C   -0.030397
    13  C   -0.101679
    14  H    0.062401
    15  N   -0.458766
    16  C    0.154381
    17  C   -0.150865
    18  C   -0.094627
    19  C    0.205531
    20  C    0.091995
    21  C    0.063166
    22  O   -0.267848
    23  C    0.000009
    24  N   -0.297914
    25  C    0.010926
    26  C   -0.080667
    27  C   -0.046055
    28  C    0.048364
    29  C    0.002561
    30  C   -0.042799
    31  C   -0.065009
    32  N   -0.464861
    33  C    0.133691
    34  C   -0.171337
    35  C   -0.013174
    36  C    0.155716
    37  C    0.081415
    38  C    0.117945
    39  O   -0.220239
    40  C   -0.108320
    41  C    0.242932
    42  O   -0.244121
    43  O   -0.368880
    44  C    0.139781
    45  H    0.011729
    46  H   -0.042769
    47  H    0.000699
    48  H    0.052501
    49  H    0.038603
    50  H    0.039456
    51  H    0.034753
    52  H    0.041357
    53  H    0.057308
    54  H    0.041161
    55  H    0.052199
    56  H    0.036568
    57  H    0.060531
    58  H    0.046840
    59  H    0.000115
    60  H    0.063441
    61  H    0.040901
    62  H    0.054661
    63  H    0.045300
    64  H    0.032487
    65  H    0.028500
    66  H    0.031377
    67  H    0.039475
    68  H    0.036149
    69  H    0.041009
    70  H    0.033295
    71  H    0.036175
    72  H    0.047812
    73  H    0.043702
    74  H    0.066883
    75  H    0.074620
    76  H    0.058621
    77  H    0.052702
    78  H    0.037438
    79  H    0.061579
    80  Mg   0.983845
    81  C    0.006744
    82  C   -0.113569
    83  C   -0.075984
    84  C   -0.074337
    85  N   -0.351086
    86  C   -0.049282
    87  C   -0.050324
    88  C   -0.097836
    89  C    0.098365
    90  C    0.023310
    91  C    0.001844
    92  C   -0.114962
    93  H    0.031944
    94  N   -0.466409
    95  C    0.154001
    96  C   -0.174179
    97  C   -0.070268
    98  C    0.138037
    99  C    0.077673
   100  C    0.062777
   101  O   -0.243544
   102  C   -0.045525
   103  N   -0.389835
   104  C    0.116397
   105  C   -0.106931
   106  C   -0.048754
   107  C    0.073204
   108  C    0.009959
   109  C    0.001440
   110  C   -0.071385
   111  N   -0.414295
   112  C    0.082323
   113  C   -0.193353
   114  C   -0.037935
   115  C    0.138959
   116  C    0.088146
   117  C    0.083208
   118  O   -0.205350
   119  C   -0.074247
   120  C    0.226209
   121  O   -0.256826
   122  O   -0.333921
   123  C    0.142510
   124  H   -0.000098
   125  H    0.028382
   126  H   -0.008040
   127  H    0.049748
   128  H    0.040025
   129  H    0.052001
   130  H    0.043576
   131  H    0.040174
   132  H    0.030963
   133  H    0.043308
   134  H    0.042761
   135  H    0.062652
   136  H    0.053234
   137  H    0.041073
   138  H    0.058484
   139  H    0.058577
   140  H    0.065457
   141  H    0.052905
   142  H    0.043219
   143  H    0.032380
   144  H    0.027636
   145  H    0.060860
   146  H    0.025933
   147  H    0.049340
   148  H    0.028149
   149  H    0.020870
   150  H    0.037415
   151  H    0.045750
   152  H    0.054232
   153  H    0.052879
   154  H    0.061514
   155  H    0.067070
   156  H    0.054674
   157  H    0.045142
   158  H    0.056995
 Sum of Mulliken charges =  -0.00000

 Dipole moment (field-independent basis, Debye):
    X=              0.9838    Y=              5.0508    Z=             -1.5213  Tot=              5.3659
 Quadrupole moment (field-independent basis, Debye-Ang):
   XX=            -61.3157   YY=           -498.9356   ZZ=           -469.7965
   XY=            -72.0095   XZ=           -124.3306   YZ=            -29.5555

 Normal termination of Gaussian 16 at Sat Sep 18 23:10:10 2021.
