 Gaussian 16, Revision A.03,
 Gaussian 16:  ES64L-G16RevA.03 25-Dec-2016

 --------------------------------
 #p wB97XD/Def2SVP td=(nstates=5)
 --------------------------------

 --------------------------------
 TDDFT excited states in gaussian
 --------------------------------
 Symbolic Z-matrix:
 Charge =  0 Multiplicity = 1

                         Standard orientation:
 ---------------------------------------------------------------------
 Center     Atomic      Atomic             Coordinates (Angstroms)
 Number     Number       Type             X           Y           Z
 ---------------------------------------------------------------------
      1         12           0      -21.734579    0.399775   -0.290745
      2          6           0      -18.240648    0.512774    0.500507
      3          6           0      -20.818639   -1.121194   -3.351264
      4          6           0      -24.955811   -0.424734   -0.742560
      5          6           0      -22.411393    1.263169    2.981846
      6          7           0      -19.746994   -0.236161   -1.341854
      7          6           0      -18.522086   -0.088276   -0.753715
      8          6           0      -17.480987   -0.868291   -1.540822
      9          6           0      -18.316132   -1.103070   -2.868526
     10          6           0      -19.738430   -0.823774   -2.563439
     11          6           0      -17.885941   -0.295032   -4.138666
     12          6           0      -16.991502   -2.098816   -0.711755
     13          6           0      -15.444821   -2.430398   -0.630455
     14          1           0      -14.921828   -3.769357   -1.180943
     15          7           0      -22.765083   -0.422193   -1.835011
     16          6           0      -22.236289   -0.983010   -3.027420
     17          6           0      -23.307993   -1.441732   -3.891816
     18          6           0      -24.514910   -1.237170   -3.106917
     19          6           0      -24.085503   -0.663788   -1.845181
     20          6           0      -23.037478   -2.102650   -5.178740
     21          6           0      -25.919585   -1.576512   -3.635205
     22          8           0      -25.970349   -2.147226   -4.763734
     23          6           0      -27.247372   -1.277807   -2.907163
     24          7           0      -23.484163    0.142770    1.005500
     25          6           0      -24.710160   -0.030466    0.550256
     26          6           0      -25.658623    0.037094    1.703378
     27          6           0      -24.811302    0.638346    2.856490
     28          6           0      -23.428262    0.611574    2.282153
     29          6           0      -27.052514    0.781574    1.541824
     30          6           0      -24.910741   -0.143641    4.266291
     31          6           0      -25.533047    0.593191    5.477597
     32          7           0      -20.642115    0.990097    1.326775
     33          6           0      -21.033846    1.307305    2.572372
     34          6           0      -19.930744    1.644611    3.395338
     35          6           0      -18.816497    1.386171    2.593639
     36          6           0      -19.292419    0.940772    1.334520
     37          6           0      -19.873728    2.153501    4.779546
     38          6           0      -17.387410    1.392736    2.654744
     39          8           0      -16.674777    1.643940    3.600576
     40          6           0      -16.926453    0.737352    1.203920
     41          6           0      -16.084316    1.690420    0.471307
     42          8           0      -16.298972    2.904342    0.362522
     43          8           0      -15.051322    0.962225   -0.079307
     44          6           0      -14.071193    1.714197   -0.861091
     45          1           0      -20.600841   -1.590690   -4.311772
     46          1           0      -25.991776   -0.765391   -0.792338
     47          1           0      -22.577432    1.756643    3.941918
     48          1           0      -16.702522   -0.153065   -1.807667
     49          1           0      -18.211524   -2.187566   -2.917592
     50          1           0      -18.757340    0.268887   -4.474536
     51          1           0      -17.578887   -0.915633   -4.980203
     52          1           0      -17.120662    0.464775   -3.977190
     53          1           0      -17.510484   -2.890272   -1.251996
     54          1           0      -17.352461   -2.155890    0.314913
     55          1           0      -15.199369   -2.336630    0.427243
     56          1           0      -14.896852   -1.582640   -1.040594
     57          1           0      -22.335746   -2.909422   -4.965802
     58          1           0      -22.511200   -1.418821   -5.844384
     59          1           0      -23.890542   -2.414840   -5.781737
     60          1           0      -27.327489   -1.961568   -2.061925
     61          1           0      -27.977646   -1.198459   -3.711790
     62          1           0      -27.094029   -0.262289   -2.540492
     63          1           0      -25.948750   -0.989056    1.925665
     64          1           0      -25.108880    1.686551    2.825260
     65          1           0      -27.712028    0.271504    2.244390
     66          1           0      -27.371713    0.694827    0.503341
     67          1           0      -26.889143    1.812374    1.856727
     68          1           0      -23.879351   -0.430205    4.471098
     69          1           0      -25.399031   -1.098962    4.074288
     70          1           0      -24.917853    0.526409    6.373923
     71          1           0      -26.518362    0.168822    5.672192
     72          1           0      -25.755973    1.642721    5.284623
     73          1           0      -18.911391    2.613722    5.001360
     74          1           0      -20.016706    1.199856    5.288028
     75          1           0      -20.821399    2.646923    4.994943
     76          1           0      -16.504764   -0.258471    1.335582
     77          1           0      -13.687169    2.572436   -0.309215
     78          1           0      -14.518382    2.033609   -1.803573
     79          1           0      -13.223662    1.063024   -1.075157
     80         12           0       20.915990   -0.807274    0.018734
     81          6           0       21.653197    2.406518   -0.976248
     82          6           0       17.660012    0.336641    0.945205
     83          6           0       20.256574   -3.747018    1.317096
     84          6           0       24.160250   -1.833989   -0.745577
     85          7           0       19.862589    1.167269   -0.052838
     86          6           0       20.347023    2.319155   -0.526188
     87          6           0       19.212636    3.394801   -0.497460
     88          6           0       17.997043    2.689217    0.261312
     89          6           0       18.564110    1.269824    0.456712
     90          6           0       17.662767    3.198633    1.650159
     91          6           0       18.857270    3.994097   -1.866479
     92          6           0       18.864483    5.512965   -1.825492
     93          1           0       18.000671    6.335998   -2.792220
     94          7           0       19.161102   -1.600045    0.921099
     95          6           0       17.945369   -1.029774    1.166734
     96          6           0       17.037432   -1.932568    1.719474
     97          6           0       17.785840   -3.135291    1.969827
     98          6           0       19.144168   -2.873857    1.379781
     99          6           0       15.584198   -1.601672    2.026867
    100          6           0       17.355210   -4.394365    2.704429
    101          8           0       18.218295   -5.256436    2.959903
    102          6           0       15.985880   -4.567166    3.222524
    103          7           0       22.038219   -2.493356    0.202435
    104          6           0       21.542817   -3.666475    0.733610
    105          6           0       22.579161   -4.849689    0.788350
    106          6           0       23.710654   -4.240706   -0.145217
    107          6           0       23.300617   -2.758871   -0.226182
    108          6           0       23.169106   -5.368146    2.158969
    109          6           0       24.051982   -4.985506   -1.514931
    110          6           0       23.078369   -4.753581   -2.640096
    111          7           0       22.612375    0.054508   -0.567430
    112          6           0       23.873496   -0.435506   -0.848672
    113          6           0       24.744784    0.566235   -1.310570
    114          6           0       23.891573    1.671810   -1.404062
    115          6           0       22.585397    1.331815   -0.945810
    116          6           0       26.130378    0.279563   -1.706675
    117          6           0       23.965171    3.051406   -1.696889
    118          8           0       24.968543    3.709255   -1.979565
    119          6           0       22.478449    3.643101   -1.463367
    120          6           0       22.542781    4.716402   -0.487097
    121          8           0       22.690597    4.602192    0.708187
    122          8           0       22.529875    5.895923   -1.095685
    123          6           0       22.709772    7.083249   -0.316131
    124          1           0       16.686580    0.706694    1.272453
    125          1           0       20.186734   -4.763265    1.709748
    126          1           0       25.165772   -2.196690   -0.969013
    127          1           0       19.664290    4.127426    0.170637
    128          1           0       17.116157    2.914394   -0.340923
    129          1           0       18.226026    4.080257    1.957533
    130          1           0       17.903971    2.442005    2.396291
    131          1           0       16.582388    3.301964    1.755594
    132          1           0       17.907150    3.659285   -2.283105
    133          1           0       19.596757    3.636609   -2.582658
    134          1           0       19.875005    5.811998   -2.106275
    135          1           0       18.599049    5.784981   -0.804072
    136          1           0       15.280782   -0.658532    1.572298
    137          1           0       15.489061   -1.404853    3.094947
    138          1           0       14.934373   -2.448915    1.810966
    139          1           0       15.963453   -5.313099    4.017795
    140          1           0       15.387650   -4.968884    2.404107
    141          1           0       15.602442   -3.621039    3.603753
    142          1           0       22.250188   -5.715180    0.212313
    143          1           0       24.668667   -4.347323    0.362120
    144          1           0       22.711430   -4.785039    2.957131
    145          1           0       24.205826   -5.039369    2.241431
    146          1           0       23.104730   -6.433824    2.380613
    147          1           0       23.985304   -6.051487   -1.298729
    148          1           0       25.072529   -4.830368   -1.862871
    149          1           0       23.650405   -4.805241   -3.565833
    150          1           0       22.441379   -3.870188   -2.659936
    151          1           0       22.355283   -5.567738   -2.590908
    152          1           0       26.365313   -0.702680   -2.115898
    153          1           0       26.903133    0.587928   -1.003534
    154          1           0       26.268557    1.010836   -2.502666
    155          1           0       22.125437    4.035912   -2.416683
    156          1           0       21.765701    7.480779    0.058181
    157          1           0       23.112325    7.841876   -0.987098
    158          1           0       23.357914    6.872905    0.534749
 ---------------------------------------------------------------------

 SCF Done:  E(RwB97XD) =  -4070.60517996     A.U. after   20 cycles

 Excitation energies and oscillator strengths:

 Excited State   1:      Singlet-A      1.6376 eV  757.12 nm  f=0.4029  <S**2>=0.000
     309 -> 315       -0.19065
     312 -> 314        0.68216
     309 <- 315       -0.12102
 This state for optimization and/or second-order correction.
 Total Energy, E(TD-HF/TD-DFT) =  -4070.54499974
 Copying the excited state density for this state as the 1-particle RhoCI density.

 Excited State   2:      Singlet-A      1.6477 eV  752.48 nm  f=0.4026  <S**2>=0.000
     310 -> 316       -0.17784
     311 -> 313        0.68333
     310 <- 316       -0.11422

 Excited State   3:      Singlet-A      2.1651 eV  572.66 nm  f=0.1559  <S**2>=0.000
     310 -> 313        0.65110
     311 -> 316        0.25706

 Excited State   4:      Singlet-A      2.1989 eV  563.84 nm  f=0.1291  <S**2>=0.000
     309 -> 314        0.63869
     312 -> 315        0.29220

 Excited State   5:      Singlet-A      3.3066 eV  374.96 nm  f=0.0054  <S**2>=0.000
     308 -> 314        0.66957
     308 -> 317        0.10686

 The electronic state is 1-A.
 Alpha  occ. eigenvalues --  -46.95282 -46.94037 -19.31547 -19.30013 -19.25565
 Alpha  occ. eigenvalues --  -19.24848 -19.23653 -19.23536 -19.23299 -19.23213
 Alpha  occ. eigenvalues --  -14.46897 -14.46789 -14.46580 -14.46002 -14.44587
 Alpha  occ. eigenvalues --  -14.44456 -14.44326 -14.43565 -10.43991 -10.42092
 Alpha  occ. eigenvalues --  -10.39532 -10.39279 -10.38847 -10.38528 -10.36241
 Alpha  occ. eigenvalues --  -10.35564 -10.35248 -10.35243 -10.35161 -10.34926
 Alpha  occ. eigenvalues --  -10.34819 -10.34807 -10.34706 -10.34431 -10.34424
 Alpha  occ. eigenvalues --  -10.34359 -10.34142 -10.33806 -10.33417 -10.33132
 Alpha  occ. eigenvalues --  -10.33052 -10.33000 -10.32982 -10.32824 -10.32753
 Alpha  occ. eigenvalues --  -10.32616 -10.32484 -10.32439 -10.32407 -10.32306
 Alpha  occ. eigenvalues --  -10.32287 -10.32019 -10.31885 -10.31740 -10.31705
 Alpha  occ. eigenvalues --  -10.31665 -10.31652 -10.31648 -10.31637 -10.31623
 Alpha  occ. eigenvalues --  -10.31592 -10.31576 -10.31476 -10.31389 -10.31267
 Alpha  occ. eigenvalues --  -10.31235 -10.31223 -10.31139 -10.30721 -10.30697
 Alpha  occ. eigenvalues --  -10.30588 -10.30524 -10.30511 -10.30314 -10.30297
 Alpha  occ. eigenvalues --  -10.30262 -10.30174 -10.30159 -10.30025 -10.29925
 Alpha  occ. eigenvalues --  -10.29624 -10.29424 -10.29012 -10.28769 -10.28668
 Alpha  occ. eigenvalues --  -10.28651  -3.21279  -3.20229  -1.94857  -1.94391
 Alpha  occ. eigenvalues --   -1.94264  -1.93825  -1.93376  -1.93208  -1.20095
 Alpha  occ. eigenvalues --   -1.18770  -1.13122  -1.11084  -1.10728  -1.10412
 Alpha  occ. eigenvalues --   -1.09957  -1.09485  -1.07502  -1.06788  -1.06607
 Alpha  occ. eigenvalues --   -1.05787  -1.05756  -1.05333  -1.04583  -1.04427
 Alpha  occ. eigenvalues --   -0.95197  -0.94047  -0.91279  -0.91276  -0.90648
 Alpha  occ. eigenvalues --   -0.90239  -0.90209  -0.90038  -0.89922  -0.89582
 Alpha  occ. eigenvalues --   -0.89450  -0.89447  -0.88730  -0.88005  -0.86623
 Alpha  occ. eigenvalues --   -0.86521  -0.85795  -0.85752  -0.84834  -0.84640
 Alpha  occ. eigenvalues --   -0.84327  -0.83954  -0.83366  -0.83147  -0.82567
 Alpha  occ. eigenvalues --   -0.82479  -0.80315  -0.80221  -0.79626  -0.79253
 Alpha  occ. eigenvalues --   -0.78858  -0.78833  -0.78258  -0.77882  -0.77320
 Alpha  occ. eigenvalues --   -0.77215  -0.75438  -0.75234  -0.74230  -0.73423
 Alpha  occ. eigenvalues --   -0.71760  -0.71560  -0.71416  -0.70830  -0.70471
 Alpha  occ. eigenvalues --   -0.69747  -0.69089  -0.68779  -0.68101  -0.67658
 Alpha  occ. eigenvalues --   -0.67339  -0.67149  -0.66919  -0.66812  -0.66571
 Alpha  occ. eigenvalues --   -0.66352  -0.64995  -0.64300  -0.62422  -0.62177
 Alpha  occ. eigenvalues --   -0.61987  -0.61962  -0.61541  -0.60994  -0.60935
 Alpha  occ. eigenvalues --   -0.60495  -0.60436  -0.60304  -0.59667  -0.59628
 Alpha  occ. eigenvalues --   -0.58504  -0.58215  -0.58095  -0.57938  -0.57637
 Alpha  occ. eigenvalues --   -0.57097  -0.56885  -0.56588  -0.56505  -0.56295
 Alpha  occ. eigenvalues --   -0.55699  -0.55453  -0.55326  -0.55131  -0.54927
 Alpha  occ. eigenvalues --   -0.54701  -0.54607  -0.54451  -0.54237  -0.54094
 Alpha  occ. eigenvalues --   -0.54016  -0.53673  -0.53672  -0.53385  -0.53282
 Alpha  occ. eigenvalues --   -0.53214  -0.52562  -0.52280  -0.52272  -0.52217
 Alpha  occ. eigenvalues --   -0.52025  -0.51935  -0.51929  -0.51603  -0.51562
 Alpha  occ. eigenvalues --   -0.51418  -0.51384  -0.51158  -0.51076  -0.50869
 Alpha  occ. eigenvalues --   -0.50760  -0.50437  -0.50327  -0.50064  -0.49892
 Alpha  occ. eigenvalues --   -0.49710  -0.49685  -0.49634  -0.49576  -0.49431
 Alpha  occ. eigenvalues --   -0.49288  -0.49015  -0.48810  -0.48609  -0.48454
 Alpha  occ. eigenvalues --   -0.48423  -0.48310  -0.48123  -0.47948  -0.47924
 Alpha  occ. eigenvalues --   -0.47577  -0.47439  -0.47415  -0.47348  -0.47056
 Alpha  occ. eigenvalues --   -0.46996  -0.46860  -0.46516  -0.46512  -0.46295
 Alpha  occ. eigenvalues --   -0.45838  -0.45720  -0.45606  -0.45569  -0.45561
 Alpha  occ. eigenvalues --   -0.45437  -0.45242  -0.45200  -0.45054  -0.44945
 Alpha  occ. eigenvalues --   -0.44804  -0.44611  -0.44486  -0.44275  -0.43923
 Alpha  occ. eigenvalues --   -0.43523  -0.43522  -0.43423  -0.43333  -0.43175
 Alpha  occ. eigenvalues --   -0.43115  -0.43011  -0.42908  -0.42819  -0.42380
 Alpha  occ. eigenvalues --   -0.42278  -0.42172  -0.41110  -0.40901  -0.40861
 Alpha  occ. eigenvalues --   -0.40692  -0.40251  -0.40103  -0.39808  -0.39661
 Alpha  occ. eigenvalues --   -0.39626  -0.39168  -0.38630  -0.38585  -0.38332
 Alpha  occ. eigenvalues --   -0.38113  -0.37787  -0.37186  -0.36228  -0.36136
 Alpha  occ. eigenvalues --   -0.35795  -0.35383  -0.35326  -0.33672  -0.33589
 Alpha  occ. eigenvalues --   -0.33185  -0.32718  -0.32553  -0.32358  -0.32271
 Alpha  occ. eigenvalues --   -0.32221  -0.31944  -0.31585  -0.26118  -0.26045
 Alpha  occ. eigenvalues --   -0.23288  -0.23148
 Alpha virt. eigenvalues --   -0.07464  -0.07326   0.00144   0.00497   0.02352
 Alpha virt. eigenvalues --    0.02534   0.04466   0.04582   0.05445   0.06215
 Alpha virt. eigenvalues --    0.06363   0.07536   0.07925   0.08247   0.08478

 Mulliken charges:
               1
     1  Mg   0.980598
     2  C   -0.123945
     3  C   -0.080770
     4  C   -0.101687
     5  C   -0.096344
     6  N   -0.314548
     7  C   -0.024908
     8  C   -0.047562
     9  C   -0.085489
    10  C    0.061000
    11  C    0.030229
    12  C   -0.009539
    13  C   -0.101140
    14  H    0.050270
    15  N   -0.481242
    16  C    0.127787
    17  C   -0.142814
    18  C   -0.097823
    19  C    0.230119
    20  C    0.077145
    21  C    0.025875
    22  O   -0.277689
    23  C    0.020022
    24  N   -0.347081
    25  C    0.019115
    26  C   -0.090686
    27  C   -0.108998
    28  C    0.094254
    29  C    0.033643
    30  C    0.010062
    31  C   -0.047594
    32  N   -0.436753
    33  C    0.106259
    34  C   -0.206182
    35  C   -0.066851
    36  C    0.192825
    37  C    0.118147
    38  C    0.144220
    39  O   -0.188474
    40  C   -0.050644
    41  C    0.292223
    42  O   -0.254423
    43  O   -0.371171
    44  C    0.136629
    45  H   -0.000076
    46  H   -0.036443
    47  H    0.002980
    48  H    0.018523
    49  H    0.029551
    50  H    0.037194
    51  H    0.045321
    52  H    0.037025
    53  H    0.031087
    54  H    0.053720
    55  H    0.048072
    56  H    0.042387
    57  H    0.047721
    58  H    0.033295
    59  H    0.069405
    60  H    0.083989
    61  H    0.065133
    62  H    0.043380
    63  H    0.038426
    64  H    0.032692
    65  H    0.040694
    66  H    0.041135
    67  H    0.031851
    68  H    0.033589
    69  H    0.025568
    70  H    0.046675
    71  H    0.035617
    72  H    0.033287
    73  H    0.080941
    74  H    0.046770
    75  H    0.029927
    76  H    0.059508
    77  H    0.065626
    78  H    0.052770
    79  H    0.056596
    80  Mg   0.992354
    81  C   -0.044769
    82  C   -0.105167
    83  C   -0.051571
    84  C   -0.104107
    85  N   -0.349890
    86  C   -0.028359
    87  C   -0.021338
    88  C   -0.162789
    89  C    0.116233
    90  C    0.006199
    91  C    0.037883
    92  C   -0.145961
    93  H    0.028840
    94  N   -0.425470
    95  C    0.160115
    96  C   -0.175220
    97  C   -0.074193
    98  C    0.171486
    99  C    0.066725
   100  C    0.038173
   101  O   -0.260160
   102  C    0.004584
   103  N   -0.396059
   104  C    0.027582
   105  C   -0.070135
   106  C   -0.076079
   107  C    0.087143
   108  C    0.029252
   109  C   -0.031231
   110  C   -0.058212
   111  N   -0.470432
   112  C    0.132036
   113  C   -0.134412
   114  C   -0.037950
   115  C    0.195509
   116  C    0.072402
   117  C    0.096068
   118  O   -0.219404
   119  C   -0.078213
   120  C    0.235507
   121  O   -0.251473
   122  O   -0.328076
   123  C    0.135798
   124  H   -0.002106
   125  H    0.021819
   126  H   -0.004692
   127  H    0.033199
   128  H    0.042973
   129  H    0.043834
   130  H    0.040419
   131  H    0.035214
   132  H    0.039552
   133  H    0.030026
   134  H    0.063255
   135  H    0.056159
   136  H    0.042398
   137  H    0.057058
   138  H    0.056299
   139  H    0.055893
   140  H    0.067021
   141  H    0.044988
   142  H    0.038406
   143  H    0.027406
   144  H    0.039891
   145  H    0.027333
   146  H    0.056778
   147  H    0.029181
   148  H    0.032959
   149  H    0.037788
   150  H    0.047621
   151  H    0.028747
   152  H    0.045988
   153  H    0.055590
   154  H    0.045387
   155  H    0.065557
   156  H    0.042564
   157  H    0.055549
   158  H    0.066725
 Sum of Mulliken charges =  -0.00000

 Dipole moment (field-independent basis, Debye):
    X=             -5.1735    Y=             -2.1377    Z=              0.0434  Tot=              5.5979
 Quadrupole moment (field-independent basis, Debye-Ang):
   XX=           -597.5613   YY=           -516.7347   ZZ=           -523.5915
   XY=            -68.2483   XZ=            -80.1543   YZ=              0.3462

 Normal termination of Gaussian 16 at Sun Sep 19 04:09:26 2021.
