 Gaussian 16, Revision A.03,
 Gaussian 16:  ES64L-G16RevA.03 25-Dec-2016

 --------------------------------
 #p wB97XD/Def2SVP td=(nstates=5)
 --------------------------------

 --------------------------------
 TDDFT excited states in gaussian
 --------------------------------
 Symbolic Z-matrix:
 Charge =  0 Multiplicity = 1

                         Standard orientation:
 ---------------------------------------------------------------------
 Center     Atomic      Atomic             Coordinates (Angstroms)
 Number     Number       Type             X           Y           Z
 ---------------------------------------------------------------------
      1         12           0      -25.139334   -0.429056   -0.069370
      2          6           0      -23.975798    2.748699   -1.049652
      3          6           0      -25.666452    0.778854    3.060134
      4          6           0      -26.135911   -3.528418    0.847546
      5          6           0      -24.149820   -1.672151   -3.157107
      6          7           0      -24.769455    1.475584    0.910355
      7          6           0      -24.396156    2.670296    0.288683
      8          6           0      -24.534285    3.801738    1.262508
      9          6           0      -24.588749    3.066089    2.622517
     10          6           0      -25.046749    1.656776    2.166378
     11          6           0      -23.259417    2.948818    3.433017
     12          6           0      -25.761734    4.761502    1.031906
     13          6           0      -25.427207    6.218215    1.085606
     14          1           0      -26.383325    7.114254    1.894889
     15          7           0      -25.886945   -1.193400    1.643408
     16          6           0      -26.128653   -0.508688    2.846027
     17          6           0      -26.724847   -1.374782    3.783251
     18          6           0      -26.894770   -2.697083    3.154782
     19          6           0      -26.323503   -2.515212    1.850895
     20          6           0      -27.001084   -1.053807    5.223040
     21          6           0      -27.443809   -4.086005    3.700987
     22          8           0      -27.509805   -5.053559    2.980443
     23          6           0      -27.996629   -4.209164    5.113712
     24          7           0      -25.036978   -2.353899   -0.991305
     25          6           0      -25.505747   -3.471303   -0.377983
     26          6           0      -25.282666   -4.751709   -1.316682
     27          6           0      -24.921853   -4.101423   -2.723472
     28          6           0      -24.676246   -2.596418   -2.280484
     29          6           0      -24.200017   -5.765316   -0.853445
     30          6           0      -26.051535   -4.236585   -3.805691
     31          6           0      -25.534773   -4.827243   -5.049786
     32          7           0      -24.203870    0.337286   -1.748719
     33          6           0      -23.963033   -0.268832   -2.980790
     34          6           0      -23.413249    0.691717   -3.898254
     35          6           0      -23.376311    1.868376   -3.178197
     36          6           0      -23.870595    1.638597   -1.933025
     37          6           0      -23.082501    0.342608   -5.372799
     38          6           0      -22.990733    3.266845   -3.224464
     39          8           0      -22.395882    3.847760   -4.105353
     40          6           0      -23.354368    3.907054   -1.793953
     41          6           0      -22.122805    4.436651   -1.180238
     42          8           0      -21.095645    3.750712   -0.936252
     43          8           0      -22.287353    5.774742   -0.972260
     44          6           0      -21.022882    6.515521   -0.720509
     45          1           0      -25.769351    1.225076    4.051435
     46          1           0      -26.419537   -4.560034    1.065366
     47          1           0      -23.779669   -2.092031   -4.094195
     48          1           0      -23.642860    4.424197    1.348953
     49          1           0      -25.293087    3.507199    3.328015
     50          1           0      -22.595368    3.806778    3.320070
     51          1           0      -22.771106    2.029952    3.107430
     52          1           0      -23.370357    2.753821    4.499375
     53          1           0      -26.490728    4.471148    1.788214
     54          1           0      -26.270277    4.543562    0.092311
     55          1           0      -25.414272    6.466572    0.024239
     56          1           0      -24.468189    6.354313    1.585298
     57          1           0      -28.049591   -0.903063    5.480907
     58          1           0      -26.551417   -0.091923    5.466056
     59          1           0      -26.637547   -1.741846    5.985814
     60          1           0      -28.428828   -5.207371    5.171911
     61          1           0      -28.657590   -3.377923    5.360950
     62          1           0      -27.212170   -3.982340    5.836300
     63          1           0      -26.181921   -5.367885   -1.322498
     64          1           0      -23.991602   -4.548133   -3.077598
     65          1           0      -23.623306   -5.490450    0.030317
     66          1           0      -23.452028   -5.971972   -1.619296
     67          1           0      -24.719171   -6.701223   -0.645194
     68          1           0      -26.405655   -3.237612   -4.062870
     69          1           0      -26.890061   -4.867101   -3.510730
     70          1           0      -25.796888   -5.885471   -5.065382
     71          1           0      -24.482578   -4.698951   -5.301332
     72          1           0      -25.982761   -4.318129   -5.903209
     73          1           0      -23.591711   -0.584028   -5.638731
     74          1           0      -22.007975    0.369844   -5.559484
     75          1           0      -23.565074    1.133679   -5.945551
     76          1           0      -24.094252    4.702562   -1.886049
     77          1           0      -21.211614    7.588710   -0.698789
     78          1           0      -20.424869    6.360679   -1.618828
     79          1           0      -20.581387    6.085241    0.178838
     80         12           0       24.270893   -0.794853    0.234093
     81          6           0       26.032059    2.324044   -0.294257
     82          6           0       23.026504    0.598669    2.869804
     83          6           0       22.980757   -3.793729    0.686679
     84          6           0       26.377449   -2.399006   -2.255639
     85          7           0       24.436443    1.325573    1.102523
     86          6           0       25.185857    2.435666    0.772488
     87          6           0       24.953864    3.526371    1.755043
     88          6           0       24.387182    2.784608    2.992898
     89          6           0       23.951058    1.463324    2.316881
     90          6           0       25.424054    2.516764    4.105755
     91          6           0       23.872819    4.506732    1.206260
     92          6           0       24.167273    6.046914    1.381587
     93          1           0       23.413969    7.103671    0.479465
     94          7           0       23.057789   -1.484168    1.656492
     95          6           0       22.545896   -0.754201    2.611375
     96          6           0       21.592537   -1.568228    3.341544
     97          6           0       21.523065   -2.772985    2.603018
     98          6           0       22.567698   -2.718442    1.616599
     99          6           0       20.788550   -0.983097    4.516803
    100          6           0       20.582032   -3.918496    2.852550
    101          8           0       20.640124   -4.902129    2.176935
    102          6           0       19.511096   -3.770953    3.883671
    103          7           0       24.881618   -2.912416   -0.525948
    104          6           0       24.012475   -3.878639   -0.236748
    105          6           0       24.191082   -5.067735   -1.104071
    106          6           0       25.450975   -4.642037   -1.922518
    107          6           0       25.633028   -3.190069   -1.567033
    108          6           0       24.264139   -6.477433   -0.414387
    109          6           0       25.247686   -4.914914   -3.463981
    110          6           0       25.986402   -6.103556   -4.139900
    111          7           0       25.810579   -0.271533   -0.991752
    112          6           0       26.530059   -0.952169   -1.999290
    113          6           0       27.468198   -0.014868   -2.650762
    114          6           0       27.272231    1.212002   -2.030906
    115          6           0       26.331237    1.038813   -1.030089
    116          6           0       28.545042   -0.408887   -3.690591
    117          6           0       27.753549    2.630583   -2.061406
    118          8           0       28.533384    3.235884   -2.758278
    119          6           0       27.083136    3.380808   -0.804247
    120          6           0       26.600351    4.665971   -1.154513
    121          8           0       25.431873    4.851863   -1.522135
    122          8           0       27.514973    5.713512   -1.108427
    123          6           0       27.019677    7.114723   -1.271991
    124          1           0       22.502430    0.960624    3.756114
    125          1           0       22.507134   -4.771716    0.793849
    126          1           0       27.011198   -2.863445   -3.012683
    127          1           0       25.906618    3.960126    2.059842
    128          1           0       23.556271    3.264740    3.509406
    129          1           0       25.121853    3.002311    5.034143
    130          1           0       26.372034    2.927821    3.759919
    131          1           0       25.612516    1.461994    4.307824
    132          1           0       22.970546    4.263860    1.767825
    133          1           0       23.720243    4.225588    0.164450
    134          1           0       25.243495    6.188076    1.285743
    135          1           0       23.884967    6.215098    2.421556
    136          1           0       19.736008   -0.954014    4.232029
    137          1           0       21.116998   -0.011061    4.883124
    138          1           0       20.771661   -1.688588    5.347031
    139          1           0       18.809626   -2.971999    3.644870
    140          1           0       19.826499   -3.455280    4.878080
    141          1           0       18.915298   -4.683887    3.901069
    142          1           0       23.343007   -5.104817   -1.787818
    143          1           0       26.330803   -5.137040   -1.510881
    144          1           0       24.045877   -6.311128    0.639997
    145          1           0       25.164544   -7.070117   -0.579745
    146          1           0       23.492395   -7.111767   -0.850755
    147          1           0       25.576940   -4.038582   -4.022977
    148          1           0       24.170930   -4.838240   -3.614991
    149          1           0       25.293496   -6.657869   -4.772714
    150          1           0       26.417355   -6.746717   -3.372426
    151          1           0       26.784656   -5.741062   -4.788691
    152          1           0       28.150194   -1.238000   -4.277089
    153          1           0       29.412069   -0.814683   -3.168830
    154          1           0       28.815988    0.425959   -4.337320
    155          1           0       27.845534    3.483398   -0.032585
    156          1           0       26.338721    7.386992   -0.464360
    157          1           0       26.712289    7.313274   -2.298027
    158          1           0       27.852850    7.767274   -1.011332
 ---------------------------------------------------------------------

 SCF Done:  E(RwB97XD) =  -4070.59876174     A.U. after   19 cycles

 Excitation energies and oscillator strengths:

 Excited State   1:      Singlet-A      1.6894 eV  733.90 nm  f=0.3853  <S**2>=0.000
     309 -> 315        0.18338
     312 -> 314        0.68250
     309 <- 315        0.11554
 This state for optimization and/or second-order correction.
 Total Energy, E(TD-HF/TD-DFT) =  -4070.53667767
 Copying the excited state density for this state as the 1-particle RhoCI density.

 Excited State   2:      Singlet-A      1.6949 eV  731.52 nm  f=0.3891  <S**2>=0.000
     310 -> 316        0.16833
     311 -> 313        0.68663
     310 <- 316        0.11048

 Excited State   3:      Singlet-A      2.1227 eV  584.09 nm  f=0.2190  <S**2>=0.000
     310 -> 313        0.67195
     311 -> 316       -0.20544

 Excited State   4:      Singlet-A      2.1431 eV  578.52 nm  f=0.1560  <S**2>=0.000
     309 -> 314        0.65151
     312 -> 315       -0.25248

 Excited State   5:      Singlet-A      3.1998 eV  387.47 nm  f=0.0021  <S**2>=0.000
     306 -> 314       -0.29684
     308 -> 314        0.62293

 The electronic state is 1-A.
 Alpha  occ. eigenvalues --  -46.95775 -46.93555 -19.30885 -19.29183 -19.24946
 Alpha  occ. eigenvalues --  -19.24618 -19.24487 -19.24308 -19.24080 -19.23446
 Alpha  occ. eigenvalues --  -14.46686 -14.46381 -14.46101 -14.44727 -14.44408
 Alpha  occ. eigenvalues --  -14.44362 -14.43980 -14.43162 -10.43291 -10.42316
 Alpha  occ. eigenvalues --  -10.40369 -10.39926 -10.39118 -10.39049 -10.35922
 Alpha  occ. eigenvalues --  -10.35362 -10.35286 -10.35089 -10.35082 -10.34745
 Alpha  occ. eigenvalues --  -10.34731 -10.34700 -10.34663 -10.34431 -10.34067
 Alpha  occ. eigenvalues --  -10.34019 -10.34019 -10.33823 -10.33577 -10.33349
 Alpha  occ. eigenvalues --  -10.33162 -10.33091 -10.32953 -10.32841 -10.32625
 Alpha  occ. eigenvalues --  -10.32261 -10.32236 -10.32193 -10.32163 -10.32127
 Alpha  occ. eigenvalues --  -10.32047 -10.31968 -10.31891 -10.31859 -10.31841
 Alpha  occ. eigenvalues --  -10.31829 -10.31709 -10.31682 -10.31489 -10.31308
 Alpha  occ. eigenvalues --  -10.31293 -10.31292 -10.31208 -10.31039 -10.30849
 Alpha  occ. eigenvalues --  -10.30639 -10.30554 -10.30432 -10.30386 -10.30362
 Alpha  occ. eigenvalues --  -10.30266 -10.30161 -10.30012 -10.29983 -10.29967
 Alpha  occ. eigenvalues --  -10.29871 -10.29864 -10.29616 -10.29591 -10.29541
 Alpha  occ. eigenvalues --  -10.29390 -10.29339 -10.29195 -10.29074 -10.28449
 Alpha  occ. eigenvalues --  -10.28351  -3.21754  -3.19689  -1.95328  -1.94885
 Alpha  occ. eigenvalues --   -1.94715  -1.93290  -1.92806  -1.92690  -1.17944
 Alpha  occ. eigenvalues --   -1.16314  -1.14420  -1.13969  -1.13037  -1.12557
 Alpha  occ. eigenvalues --   -1.08527  -1.08524  -1.07819  -1.06967  -1.06963
 Alpha  occ. eigenvalues --   -1.06910  -1.05360  -1.04581  -1.03520  -1.02955
 Alpha  occ. eigenvalues --   -0.94554  -0.93183  -0.91140  -0.91084  -0.90808
 Alpha  occ. eigenvalues --   -0.90564  -0.89948  -0.89875  -0.89762  -0.89614
 Alpha  occ. eigenvalues --   -0.88974  -0.88393  -0.87778  -0.87119  -0.86267
 Alpha  occ. eigenvalues --   -0.86227  -0.85713  -0.84937  -0.84824  -0.84069
 Alpha  occ. eigenvalues --   -0.84063  -0.83908  -0.83154  -0.82868  -0.82645
 Alpha  occ. eigenvalues --   -0.82370  -0.80766  -0.80243  -0.79254  -0.79030
 Alpha  occ. eigenvalues --   -0.78700  -0.78597  -0.78123  -0.77660  -0.77378
 Alpha  occ. eigenvalues --   -0.76840  -0.74877  -0.74720  -0.73082  -0.72927
 Alpha  occ. eigenvalues --   -0.71200  -0.70711  -0.70615  -0.70037  -0.69964
 Alpha  occ. eigenvalues --   -0.69532  -0.69274  -0.68538  -0.68048  -0.67526
 Alpha  occ. eigenvalues --   -0.67472  -0.67112  -0.66973  -0.66597  -0.66230
 Alpha  occ. eigenvalues --   -0.66063  -0.63946  -0.63485  -0.63042  -0.62351
 Alpha  occ. eigenvalues --   -0.62108  -0.62064  -0.61265  -0.61052  -0.60162
 Alpha  occ. eigenvalues --   -0.60025  -0.59703  -0.59602  -0.59521  -0.59164
 Alpha  occ. eigenvalues --   -0.58567  -0.58197  -0.57656  -0.57630  -0.57473
 Alpha  occ. eigenvalues --   -0.57432  -0.56902  -0.55911  -0.55825  -0.55730
 Alpha  occ. eigenvalues --   -0.55547  -0.55400  -0.55360  -0.55012  -0.54590
 Alpha  occ. eigenvalues --   -0.54584  -0.54515  -0.54370  -0.53924  -0.53838
 Alpha  occ. eigenvalues --   -0.53767  -0.53759  -0.53526  -0.53215  -0.52983
 Alpha  occ. eigenvalues --   -0.52823  -0.52524  -0.52457  -0.52177  -0.52069
 Alpha  occ. eigenvalues --   -0.52065  -0.51791  -0.51757  -0.51631  -0.51529
 Alpha  occ. eigenvalues --   -0.51372  -0.51361  -0.51164  -0.51122  -0.50750
 Alpha  occ. eigenvalues --   -0.50660  -0.50643  -0.50229  -0.49936  -0.49904
 Alpha  occ. eigenvalues --   -0.49690  -0.49595  -0.49460  -0.49344  -0.49181
 Alpha  occ. eigenvalues --   -0.48769  -0.48584  -0.48399  -0.48368  -0.48137
 Alpha  occ. eigenvalues --   -0.48077  -0.47790  -0.47704  -0.47690  -0.47450
 Alpha  occ. eigenvalues --   -0.47331  -0.47298  -0.47002  -0.46871  -0.46725
 Alpha  occ. eigenvalues --   -0.46706  -0.46600  -0.46516  -0.46422  -0.46416
 Alpha  occ. eigenvalues --   -0.46299  -0.45933  -0.45418  -0.45366  -0.45270
 Alpha  occ. eigenvalues --   -0.45267  -0.44900  -0.44878  -0.44801  -0.44722
 Alpha  occ. eigenvalues --   -0.44655  -0.44586  -0.44314  -0.44152  -0.43888
 Alpha  occ. eigenvalues --   -0.43802  -0.43768  -0.43197  -0.43150  -0.42905
 Alpha  occ. eigenvalues --   -0.42894  -0.42546  -0.42361  -0.42262  -0.42085
 Alpha  occ. eigenvalues --   -0.41980  -0.41780  -0.41755  -0.41058  -0.40747
 Alpha  occ. eigenvalues --   -0.40288  -0.40249  -0.39912  -0.39770  -0.39559
 Alpha  occ. eigenvalues --   -0.39092  -0.38780  -0.38463  -0.38419  -0.38163
 Alpha  occ. eigenvalues --   -0.37933  -0.37712  -0.36248  -0.36117  -0.35550
 Alpha  occ. eigenvalues --   -0.35391  -0.35032  -0.34754  -0.33968  -0.33758
 Alpha  occ. eigenvalues --   -0.33614  -0.33497  -0.33273  -0.32845  -0.32757
 Alpha  occ. eigenvalues --   -0.32175  -0.31787  -0.31764  -0.25897  -0.25458
 Alpha  occ. eigenvalues --   -0.23458  -0.23354
 Alpha virt. eigenvalues --   -0.07417  -0.07385   0.00626   0.01581   0.02768
 Alpha virt. eigenvalues --    0.03048   0.04718   0.04857   0.05493   0.06460
 Alpha virt. eigenvalues --    0.06681   0.06741   0.07732   0.08033   0.08645

 Mulliken charges:
               1
     1  Mg   0.978331
     2  C   -0.032838
     3  C   -0.099758
     4  C   -0.063580
     5  C   -0.089472
     6  N   -0.322089
     7  C    0.015335
     8  C   -0.082543
     9  C   -0.128301
    10  C    0.030523
    11  C    0.020653
    12  C    0.044927
    13  C   -0.121176
    14  H    0.030814
    15  N   -0.522999
    16  C    0.241940
    17  C   -0.149241
    18  C   -0.081255
    19  C    0.154521
    20  C    0.041787
    21  C    0.076101
    22  O   -0.213763
    23  C   -0.007449
    24  N   -0.359177
    25  C    0.071694
    26  C   -0.108357
    27  C   -0.079658
    28  C    0.063476
    29  C    0.008314
    30  C    0.027439
    31  C   -0.074065
    32  N   -0.443631
    33  C    0.130186
    34  C   -0.214692
    35  C    0.007897
    36  C    0.121345
    37  C    0.094282
    38  C    0.108369
    39  O   -0.190829
    40  C   -0.041876
    41  C    0.275564
    42  O   -0.281942
    43  O   -0.372047
    44  C    0.141509
    45  H   -0.011132
    46  H    0.021685
    47  H   -0.003581
    48  H    0.026688
    49  H    0.025651
    50  H    0.045037
    51  H    0.043247
    52  H    0.033135
    53  H    0.030108
    54  H    0.030100
    55  H    0.065271
    56  H    0.054082
    57  H    0.051120
    58  H    0.023058
    59  H    0.045359
    60  H    0.070843
    61  H    0.046598
    62  H    0.048633
    63  H    0.037848
    64  H    0.037776
    65  H    0.044146
    66  H    0.029740
    67  H    0.037021
    68  H    0.035368
    69  H    0.037553
    70  H    0.038910
    71  H    0.028197
    72  H    0.026680
    73  H    0.030854
    74  H    0.066462
    75  H    0.049399
    76  H    0.057601
    77  H    0.060445
    78  H    0.064186
    79  H    0.067641
    80  Mg   0.973774
    81  C   -0.020960
    82  C   -0.054172
    83  C   -0.053593
    84  C   -0.109970
    85  N   -0.301985
    86  C   -0.007230
    87  C   -0.073189
    88  C   -0.132797
    89  C    0.070294
    90  C    0.036910
    91  C    0.034156
    92  C   -0.096319
    93  H    0.049887
    94  N   -0.460682
    95  C    0.091508
    96  C   -0.147448
    97  C   -0.078534
    98  C    0.134391
    99  C    0.063159
   100  C    0.051851
   101  O   -0.201392
   102  C   -0.020545
   103  N   -0.271119
   104  C    0.014689
   105  C   -0.095375
   106  C   -0.044705
   107  C    0.058201
   108  C    0.023240
   109  C   -0.029579
   110  C   -0.028126
   111  N   -0.485368
   112  C    0.125846
   113  C   -0.223613
   114  C   -0.055437
   115  C    0.152239
   116  C    0.077599
   117  C    0.163242
   118  O   -0.174801
   119  C   -0.083203
   120  C    0.267202
   121  O   -0.273052
   122  O   -0.390018
   123  C    0.157582
   124  H   -0.025694
   125  H    0.021043
   126  H   -0.000254
   127  H    0.020582
   128  H    0.035018
   129  H    0.041924
   130  H    0.027848
   131  H    0.045267
   132  H    0.025021
   133  H    0.073854
   134  H    0.043845
   135  H    0.037057
   136  H    0.048560
   137  H    0.053692
   138  H    0.042049
   139  H    0.049844
   140  H    0.042910
   141  H    0.056134
   142  H    0.045889
   143  H    0.031647
   144  H    0.049289
   145  H    0.037543
   146  H    0.032036
   147  H    0.020918
   148  H    0.014748
   149  H    0.040158
   150  H    0.034896
   151  H    0.038239
   152  H    0.028664
   153  H    0.052696
   154  H    0.061914
   155  H    0.080193
   156  H    0.043679
   157  H    0.073804
   158  H    0.042430
 Sum of Mulliken charges =  -0.00000

 Dipole moment (field-independent basis, Debye):
    X=             -4.6424    Y=             -0.3657    Z=              8.4565  Tot=              9.6539
 Quadrupole moment (field-independent basis, Debye-Ang):
   XX=           -515.8100   YY=           -492.2931   ZZ=           -473.8965
   XY=            -37.4892   XZ=             22.6042   YZ=             49.6010

 Normal termination of Gaussian 16 at Sat Sep 18 17:57:05 2021.
