 Gaussian 16, Revision A.03,
 Gaussian 16:  ES64L-G16RevA.03 25-Dec-2016

 --------------------------------
 #p wB97XD/Def2SVP td=(nstates=5)
 --------------------------------

 --------------------------------
 TDDFT excited states in gaussian
 --------------------------------
 Symbolic Z-matrix:
 Charge =  0 Multiplicity = 1

                         Standard orientation:
 ---------------------------------------------------------------------
 Center     Atomic      Atomic             Coordinates (Angstroms)
 Number     Number       Type             X           Y           Z
 ---------------------------------------------------------------------
      1         12           0       24.930714    0.628816   -0.421416
      2          6           0       26.014619   -1.925779    1.674440
      3          6           0       23.376447   -1.707723   -2.388065
      4          6           0       24.173653    3.134810   -2.603407
      5          6           0       26.826600    2.833090    1.623119
      6          7           0       24.749182   -1.556141   -0.384516
      7          6           0       25.180297   -2.350763    0.644802
      8          6           0       24.688174   -3.766561    0.334442
      9          6           0       24.133970   -3.710353   -1.077993
     10          6           0       24.047479   -2.202498   -1.285031
     11          6           0       24.845600   -4.430057   -2.192036
     12          6           0       23.690531   -4.403065    1.415098
     13          6           0       23.011454   -5.749695    1.006329
     14          1           0       23.710308   -7.079813    1.391625
     15          7           0       23.792341    0.698129   -2.155235
     16          6           0       23.266865   -0.359765   -2.821779
     17          6           0       22.651053    0.167457   -4.011686
     18          6           0       22.893379    1.571511   -4.067552
     19          6           0       23.661618    1.866206   -2.942691
     20          6           0       21.923267   -0.740484   -4.954421
     21          6           0       22.522244    2.525375   -5.240183
     22          8           0       23.053381    3.613135   -5.375242
     23          6           0       21.620328    2.159339   -6.320201
     24          7           0       25.408207    2.565866   -0.455612
     25          6           0       24.954136    3.454823   -1.429423
     26          6           0       25.406287    4.901277   -1.163822
     27          6           0       25.976782    4.790861    0.291015
     28          6           0       26.029973    3.288586    0.515081
     29          6           0       26.194008    5.552956   -2.223877
     30          6           0       25.249745    5.606355    1.497875
     31          6           0       26.024987    6.643458    2.315962
     32          7           0       26.259647    0.505877    1.322390
     33          6           0       26.938720    1.486914    1.988918
     34          6           0       27.667906    0.952771    3.089441
     35          6           0       27.270779   -0.438671    3.064124
     36          6           0       26.478320   -0.656881    1.902419
     37          6           0       28.488900    1.762110    4.019497
     38          6           0       27.356756   -1.678767    3.800589
     39          8           0       27.851224   -1.998322    4.863837
     40          6           0       26.510615   -2.729170    2.867583
     41          6           0       27.289963   -3.963274    2.592983
     42          8           0       28.295451   -3.987606    1.917608
     43          8           0       26.748187   -5.052784    3.165075
     44          6           0       27.300011   -6.399354    2.749871
     45          1           0       22.834346   -2.441085   -2.989157
     46          1           0       23.923141    3.917598   -3.322153
     47          1           0       27.318571    3.664187    2.133080
     48          1           0       25.635554   -4.304065    0.372776
     49          1           0       23.144298   -4.166165   -1.094213
     50          1           0       25.274733   -3.570018   -2.705199
     51          1           0       24.174261   -5.045014   -2.791570
     52          1           0       25.702267   -5.003108   -1.836652
     53          1           0       22.940797   -3.616917    1.506866
     54          1           0       24.214771   -4.553362    2.358123
     55          1           0       22.897811   -5.831330   -0.073926
     56          1           0       22.006894   -5.757249    1.429276
     57          1           0       21.800675   -1.786854   -4.673076
     58          1           0       22.534960   -0.774892   -5.855339
     59          1           0       20.959167   -0.343058   -5.272312
     60          1           0       21.744358    1.207847   -6.836268
     61          1           0       21.493673    2.910081   -7.100121
     62          1           0       20.652947    2.179323   -5.818766
     63          1           0       24.414321    5.351338   -1.115930
     64          1           0       27.003952    5.095348    0.090884
     65          1           0       25.745731    6.418372   -2.712683
     66          1           0       26.394839    4.802423   -2.988830
     67          1           0       27.150206    5.952321   -1.886039
     68          1           0       24.883176    4.869110    2.211902
     69          1           0       24.347341    6.167595    1.252479
     70          1           0       26.328020    6.311625    3.309359
     71          1           0       25.580193    7.638004    2.334248
     72          1           0       26.995492    6.772212    1.836554
     73          1           0       29.097458    2.449870    3.432824
     74          1           0       29.086333    1.150153    4.694748
     75          1           0       27.819175    2.472052    4.505898
     76          1           0       25.658393   -3.030425    3.475873
     77          1           0       26.985941   -7.035502    3.577076
     78          1           0       28.383322   -6.319460    2.661842
     79          1           0       26.777521   -6.681128    1.835582
     80         12           0      -24.781715    0.717485    0.442023
     81          6           0      -25.329942   -2.008141   -1.817453
     82          6           0      -24.433648   -1.732717    2.955771
     83          6           0      -24.973864    3.043278    2.735042
     84          6           0      -25.507620    2.888392   -2.072473
     85          7           0      -24.826931   -1.594886    0.507725
     86          6           0      -24.960002   -2.402287   -0.571947
     87          6           0      -24.701112   -3.836308   -0.140211
     88          6           0      -24.377211   -3.829053    1.380380
     89          6           0      -24.515557   -2.317394    1.644819
     90          6           0      -25.361094   -4.784351    2.264361
     91          6           0      -23.506411   -4.512926   -0.939401
     92          6           0      -23.766240   -5.909253   -1.505709
     93          1           0      -24.705694   -6.933121   -0.750749
     94          7           0      -24.765121    0.654631    2.578727
     95          6           0      -24.591593   -0.394280    3.354638
     96          6           0      -24.626772    0.067403    4.713704
     97          6           0      -24.633594    1.485057    4.742484
     98          6           0      -24.830488    1.776148    3.346550
     99          6           0      -24.352660   -0.849702    5.904478
    100          6           0      -24.409187    2.527592    5.826527
    101          8           0      -24.531777    3.723026    5.631779
    102          6           0      -23.959561    2.005095    7.163230
    103          7           0      -25.534281    2.621310    0.364700
    104          6           0      -25.305065    3.470522    1.448857
    105          6           0      -25.393312    4.974784    1.073477
    106          6           0      -25.399965    4.840955   -0.496046
    107          6           0      -25.483160    3.340137   -0.774165
    108          6           0      -26.637458    5.622659    1.698231
    109          6           0      -24.061397    5.380595   -1.190526
    110          6           0      -24.111948    6.683004   -1.916597
    111          7           0      -25.190626    0.532539   -1.525695
    112          6           0      -25.500532    1.527383   -2.427685
    113          6           0      -25.890797    1.005453   -3.734795
    114          6           0      -25.834600   -0.422082   -3.549957
    115          6           0      -25.533725   -0.644441   -2.185438
    116          6           0      -26.055809    1.840310   -4.952876
    117          6           0      -25.917279   -1.712795   -4.216113
    118          8           0      -26.141520   -1.922249   -5.422210
    119          6           0      -25.613944   -2.846350   -3.080136
    120          6           0      -26.832656   -3.636822   -3.009125
    121          8           0      -27.926192   -3.168799   -2.778736
    122          8           0      -26.587798   -4.935916   -3.217373
    123          6           0      -27.679609   -5.958792   -3.255146
    124          1           0      -24.244620   -2.446936    3.759787
    125          1           0      -24.640969    3.891825    3.337461
    126          1           0      -25.650502    3.625040   -2.865473
    127          1           0      -25.629511   -4.386902   -0.292019
    128          1           0      -23.398318   -4.260050    1.591089
    129          1           0      -25.808608   -5.560618    1.643607
    130          1           0      -26.103384   -4.104760    2.683806
    131          1           0      -24.798130   -5.233531    3.082373
    132          1           0      -22.555508   -4.545483   -0.409351
    133          1           0      -23.281592   -3.912597   -1.820886
    134          1           0      -22.836134   -6.447029   -1.690764
    135          1           0      -24.158932   -5.693015   -2.499262
    136          1           0      -23.323529   -0.820726    6.262844
    137          1           0      -24.709850   -1.863630    5.721786
    138          1           0      -25.001938   -0.500376    6.706973
    139          1           0      -23.220701    1.204090    7.124660
    140          1           0      -24.759091    1.627189    7.798910
    141          1           0      -23.351408    2.766446    7.651763
    142          1           0      -24.497223    5.457625    1.462381
    143          1           0      -26.254850    5.401566   -0.874410
    144          1           0      -27.147813    5.002953    2.435396
    145          1           0      -27.395016    5.844664    0.947439
    146          1           0      -26.353033    6.565291    2.166976
    147          1           0      -23.629975    4.711001   -1.934561
    148          1           0      -23.226589    5.448950   -0.493986
    149          1           0      -23.464071    7.410779   -1.429698
    150          1           0      -25.161205    6.967040   -1.833958
    151          1           0      -23.777784    6.559147   -2.946647
    152          1           0      -25.730429    1.308056   -5.846062
    153          1           0      -25.551458    2.783862   -4.745268
    154          1           0      -27.123369    2.043811   -5.047077
    155          1           0      -24.785561   -3.493196   -3.365899
    156          1           0      -28.466446   -5.622255   -3.930479
    157          1           0      -28.130467   -6.127545   -2.276905
    158          1           0      -27.329725   -6.965005   -3.484178
 ---------------------------------------------------------------------

 SCF Done:  E(RwB97XD) =  -4070.60604206     A.U. after   20 cycles

 Excitation energies and oscillator strengths:

 Excited State   1:      Singlet-A      1.6235 eV  763.69 nm  f=0.3914  <S**2>=0.000
     310 -> 316        0.17883
     312 -> 314        0.68446
     310 <- 316        0.11639
 This state for optimization and/or second-order correction.
 Total Energy, E(TD-HF/TD-DFT) =  -4070.54637967
 Copying the excited state density for this state as the 1-particle RhoCI density.

 Excited State   2:      Singlet-A      1.6386 eV  756.63 nm  f=0.4077  <S**2>=0.000
     309 -> 315       -0.18462
     311 -> 313        0.68347
     309 <- 315       -0.11770

 Excited State   3:      Singlet-A      2.1423 eV  578.73 nm  f=0.1276  <S**2>=0.000
     310 -> 314        0.64802
     312 -> 316       -0.26641

 Excited State   4:      Singlet-A      2.1629 eV  573.23 nm  f=0.0924  <S**2>=0.000
     309 -> 313        0.63064
     311 -> 315        0.30291

 Excited State   5:      Singlet-A      3.2554 eV  380.85 nm  f=0.0003  <S**2>=0.000
     306 -> 313       -0.22779
     308 -> 313        0.64131

 The electronic state is 1-A.
 Alpha  occ. eigenvalues --  -46.94995 -46.94241 -19.30486 -19.29652 -19.24576
 Alpha  occ. eigenvalues --  -19.24135 -19.24123 -19.23737 -19.23473 -19.23215
 Alpha  occ. eigenvalues --  -14.47354 -14.46634 -14.46516 -14.46331 -14.44025
 Alpha  occ. eigenvalues --  -14.43706 -14.43679 -14.43044 -10.42334 -10.41814
 Alpha  occ. eigenvalues --  -10.39775 -10.39568 -10.39560 -10.38693 -10.36303
 Alpha  occ. eigenvalues --  -10.35876 -10.35681 -10.35399 -10.35156 -10.35139
 Alpha  occ. eigenvalues --  -10.34816 -10.34529 -10.34466 -10.34297 -10.33881
 Alpha  occ. eigenvalues --  -10.33763 -10.33700 -10.33635 -10.33617 -10.33233
 Alpha  occ. eigenvalues --  -10.33046 -10.33005 -10.32769 -10.32655 -10.32473
 Alpha  occ. eigenvalues --  -10.32358 -10.32288 -10.32223 -10.32195 -10.32188
 Alpha  occ. eigenvalues --  -10.32126 -10.32018 -10.31880 -10.31863 -10.31703
 Alpha  occ. eigenvalues --  -10.31649 -10.31596 -10.31507 -10.31335 -10.31251
 Alpha  occ. eigenvalues --  -10.31214 -10.31177 -10.31152 -10.31022 -10.30994
 Alpha  occ. eigenvalues --  -10.30986 -10.30971 -10.30932 -10.30914 -10.30681
 Alpha  occ. eigenvalues --  -10.30631 -10.30332 -10.30282 -10.30145 -10.30033
 Alpha  occ. eigenvalues --  -10.29974 -10.29950 -10.29767 -10.29672 -10.29646
 Alpha  occ. eigenvalues --  -10.29611 -10.29417 -10.29344 -10.29331 -10.29326
 Alpha  occ. eigenvalues --  -10.28837  -3.21059  -3.20319  -1.94614  -1.94191
 Alpha  occ. eigenvalues --   -1.94037  -1.93930  -1.93444  -1.93295  -1.18749
 Alpha  occ. eigenvalues --   -1.18031  -1.13215  -1.13083  -1.11755  -1.10721
 Alpha  occ. eigenvalues --   -1.09581  -1.08940  -1.07254  -1.06708  -1.06149
 Alpha  occ. eigenvalues --   -1.05546  -1.05357  -1.05169  -1.04433  -1.03954
 Alpha  occ. eigenvalues --   -0.94418  -0.94166  -0.91090  -0.90596  -0.90534
 Alpha  occ. eigenvalues --   -0.90296  -0.90181  -0.89994  -0.89515  -0.89082
 Alpha  occ. eigenvalues --   -0.88978  -0.88936  -0.88668  -0.88389  -0.86554
 Alpha  occ. eigenvalues --   -0.86176  -0.86037  -0.85622  -0.84586  -0.84580
 Alpha  occ. eigenvalues --   -0.84393  -0.83773  -0.83363  -0.83253  -0.82728
 Alpha  occ. eigenvalues --   -0.82685  -0.80783  -0.80250  -0.79735  -0.79629
 Alpha  occ. eigenvalues --   -0.79217  -0.78826  -0.78207  -0.77854  -0.77116
 Alpha  occ. eigenvalues --   -0.76813  -0.74791  -0.74508  -0.73816  -0.73424
 Alpha  occ. eigenvalues --   -0.71322  -0.70857  -0.70773  -0.70249  -0.69778
 Alpha  occ. eigenvalues --   -0.69636  -0.68953  -0.68951  -0.67560  -0.67500
 Alpha  occ. eigenvalues --   -0.67389  -0.67124  -0.66654  -0.66635  -0.66517
 Alpha  occ. eigenvalues --   -0.66226  -0.64436  -0.63442  -0.62551  -0.62519
 Alpha  occ. eigenvalues --   -0.61723  -0.61202  -0.60982  -0.60848  -0.60836
 Alpha  occ. eigenvalues --   -0.60492  -0.60058  -0.59986  -0.59488  -0.59250
 Alpha  occ. eigenvalues --   -0.58353  -0.58114  -0.57770  -0.57692  -0.57310
 Alpha  occ. eigenvalues --   -0.57173  -0.56737  -0.56507  -0.56313  -0.55783
 Alpha  occ. eigenvalues --   -0.55471  -0.55281  -0.55123  -0.54966  -0.54925
 Alpha  occ. eigenvalues --   -0.54877  -0.54570  -0.54560  -0.54278  -0.54249
 Alpha  occ. eigenvalues --   -0.54049  -0.54029  -0.53268  -0.53236  -0.53137
 Alpha  occ. eigenvalues --   -0.52935  -0.52788  -0.52565  -0.52492  -0.52473
 Alpha  occ. eigenvalues --   -0.52283  -0.52024  -0.51953  -0.51861  -0.51402
 Alpha  occ. eigenvalues --   -0.51277  -0.51196  -0.51067  -0.51031  -0.50926
 Alpha  occ. eigenvalues --   -0.50729  -0.50570  -0.50513  -0.50351  -0.50197
 Alpha  occ. eigenvalues --   -0.50056  -0.49698  -0.49666  -0.49393  -0.49381
 Alpha  occ. eigenvalues --   -0.49066  -0.48797  -0.48683  -0.48556  -0.48527
 Alpha  occ. eigenvalues --   -0.48522  -0.48194  -0.48187  -0.48074  -0.48039
 Alpha  occ. eigenvalues --   -0.47849  -0.47251  -0.47094  -0.47062  -0.47045
 Alpha  occ. eigenvalues --   -0.46757  -0.46484  -0.46346  -0.46216  -0.46207
 Alpha  occ. eigenvalues --   -0.45943  -0.45779  -0.45669  -0.45565  -0.45301
 Alpha  occ. eigenvalues --   -0.45290  -0.44998  -0.44812  -0.44715  -0.44669
 Alpha  occ. eigenvalues --   -0.44626  -0.44468  -0.43999  -0.43793  -0.43748
 Alpha  occ. eigenvalues --   -0.43507  -0.43484  -0.43365  -0.43238  -0.43222
 Alpha  occ. eigenvalues --   -0.42935  -0.42845  -0.42459  -0.42309  -0.42211
 Alpha  occ. eigenvalues --   -0.42123  -0.41637  -0.41462  -0.41287  -0.41206
 Alpha  occ. eigenvalues --   -0.40720  -0.40309  -0.39878  -0.39776  -0.39231
 Alpha  occ. eigenvalues --   -0.39080  -0.38912  -0.38559  -0.38303  -0.38252
 Alpha  occ. eigenvalues --   -0.38146  -0.38086  -0.36474  -0.36239  -0.36061
 Alpha  occ. eigenvalues --   -0.35727  -0.35259  -0.34990  -0.33719  -0.33426
 Alpha  occ. eigenvalues --   -0.33278  -0.33198  -0.32809  -0.32292  -0.32244
 Alpha  occ. eigenvalues --   -0.31923  -0.31607  -0.31236  -0.26144  -0.25776
 Alpha  occ. eigenvalues --   -0.22949  -0.22790
 Alpha virt. eigenvalues --   -0.07179  -0.07105   0.00017   0.00776   0.02188
 Alpha virt. eigenvalues --    0.02659   0.04130   0.04811   0.04909   0.06458
 Alpha virt. eigenvalues --    0.07320   0.07342   0.07841   0.07910   0.08133

 Mulliken charges:
               1
     1  Mg   0.970174
     2  C    0.027160
     3  C   -0.088515
     4  C   -0.071845
     5  C   -0.105487
     6  N   -0.331622
     7  C   -0.006722
     8  C   -0.044260
     9  C   -0.151639
    10  C    0.059806
    11  C    0.050722
    12  C    0.000300
    13  C   -0.115535
    14  H    0.029166
    15  N   -0.488314
    16  C    0.172494
    17  C   -0.166647
    18  C   -0.057433
    19  C    0.125883
    20  C    0.053118
    21  C    0.071542
    22  O   -0.233735
    23  C   -0.004349
    24  N   -0.423032
    25  C    0.060759
    26  C   -0.086721
    27  C   -0.053577
    28  C    0.048532
    29  C    0.042967
    30  C   -0.002763
    31  C   -0.069049
    32  N   -0.374055
    33  C    0.160017
    34  C   -0.166757
    35  C   -0.076260
    36  C    0.113081
    37  C    0.102529
    38  C    0.145505
    39  O   -0.193132
    40  C   -0.138834
    41  C    0.241376
    42  O   -0.254345
    43  O   -0.372508
    44  C    0.133524
    45  H   -0.016259
    46  H    0.028737
    47  H    0.001733
    48  H    0.035344
    49  H    0.021804
    50  H    0.039189
    51  H    0.043584
    52  H    0.038599
    53  H    0.034467
    54  H    0.060941
    55  H    0.043681
    56  H    0.059084
    57  H    0.039676
    58  H    0.049921
    59  H    0.047215
    60  H    0.056554
    61  H    0.050136
    62  H    0.049690
    63  H    0.038392
    64  H    0.031817
    65  H    0.040577
    66  H    0.046743
    67  H    0.027955
    68  H    0.036093
    69  H    0.035518
    70  H    0.039395
    71  H    0.045775
    72  H    0.018546
    73  H    0.034844
    74  H    0.072755
    75  H    0.044362
    76  H    0.067440
    77  H    0.062655
    78  H    0.082036
    79  H    0.059482
    80  Mg   0.966256
    81  C   -0.049327
    82  C   -0.089629
    83  C   -0.059787
    84  C   -0.106213
    85  N   -0.317459
    86  C    0.011358
    87  C   -0.040455
    88  C   -0.105333
    89  C    0.050306
    90  C   -0.005197
    91  C   -0.008622
    92  C   -0.109770
    93  H    0.017157
    94  N   -0.387904
    95  C    0.163824
    96  C   -0.188108
    97  C   -0.059223
    98  C    0.115293
    99  C    0.051778
   100  C    0.080691
   101  O   -0.219423
   102  C   -0.036749
   103  N   -0.403357
   104  C    0.019075
   105  C   -0.074829
   106  C   -0.054005
   107  C    0.103395
   108  C    0.032747
   109  C   -0.056499
   110  C   -0.031333
   111  N   -0.481596
   112  C    0.161718
   113  C   -0.187052
   114  C   -0.019308
   115  C    0.159855
   116  C    0.089887
   117  C    0.119827
   118  O   -0.226477
   119  C   -0.061730
   120  C    0.258035
   121  O   -0.245660
   122  O   -0.357605
   123  C    0.146429
   124  H   -0.009385
   125  H    0.024555
   126  H    0.001000
   127  H    0.044182
   128  H    0.046789
   129  H    0.047928
   130  H    0.045200
   131  H    0.037814
   132  H    0.030167
   133  H    0.028298
   134  H    0.044347
   135  H    0.052399
   136  H    0.066434
   137  H    0.038123
   138  H    0.031187
   139  H    0.036004
   140  H    0.074656
   141  H    0.049256
   142  H    0.043686
   143  H    0.035676
   144  H    0.053053
   145  H    0.026351
   146  H    0.041776
   147  H    0.029336
   148  H    0.020466
   149  H    0.036571
   150  H    0.025305
   151  H    0.038906
   152  H    0.066611
   153  H    0.037262
   154  H    0.055625
   155  H    0.057910
   156  H    0.070438
   157  H    0.046847
   158  H    0.060249
 Sum of Mulliken charges =  -0.00000

 Dipole moment (field-independent basis, Debye):
    X=             -0.9760    Y=             -1.1505    Z=              0.2176  Tot=              1.5243
 Quadrupole moment (field-independent basis, Debye-Ang):
   XX=           -928.2908   YY=           -447.9754   ZZ=           -533.4550
   XY=             58.4300   XZ=           -151.2364   YZ=              0.2260

 Normal termination of Gaussian 16 at Mon Sep 20 03:00:54 2021.
