 Gaussian 16, Revision A.03,
 Gaussian 16:  ES64L-G16RevA.03 25-Dec-2016

 --------------------------------
 #p wB97XD/Def2SVP td=(nstates=5)
 --------------------------------

 --------------------------------
 TDDFT excited states in gaussian
 --------------------------------
 Symbolic Z-matrix:
 Charge =  0 Multiplicity = 1

                         Standard orientation:
 ---------------------------------------------------------------------
 Center     Atomic      Atomic             Coordinates (Angstroms)
 Number     Number       Type             X           Y           Z
 ---------------------------------------------------------------------
      1         12           0       -8.948843   -0.378285   -0.280212
      2          6           0       -7.386606    2.385757    1.164644
      3          6           0      -10.789388    1.647141   -2.174127
      4          6           0      -11.218772   -2.917648   -0.570312
      5          6           0       -7.034922   -2.454824    1.759682
      6          7           0       -8.953145    1.796515   -0.600603
      7          6           0       -8.234915    2.684555    0.075948
      8          6           0       -8.454175    4.106350   -0.556643
      9          6           0       -9.623131    3.849212   -1.537534
     10          6           0       -9.840167    2.342512   -1.434381
     11          6           0      -11.007650    4.543835   -1.102631
     12          6           0       -7.183443    4.724320   -1.298723
     13          6           0       -7.017296    6.178844   -1.020043
     14          1           0       -6.843656    7.148759   -2.178643
     15          7           0      -10.738556   -0.593164   -1.264053
     16          6           0      -11.338880    0.371011   -2.029674
     17          6           0      -12.403539   -0.257288   -2.824206
     18          6           0      -12.518706   -1.591913   -2.344589
     19          6           0      -11.484197   -1.719688   -1.304749
     20          6           0      -13.267605    0.524549   -3.864474
     21          6           0      -13.554404   -2.685080   -2.745983
     22          8           0      -13.574478   -3.818614   -2.279562
     23          6           0      -14.563009   -2.341432   -3.775971
     24          7           0       -9.130520   -2.323192    0.477127
     25          6           0      -10.195066   -3.209771    0.288860
     26          6           0      -10.020697   -4.435573    1.223164
     27          6           0       -8.442718   -4.512134    1.415393
     28          6           0       -8.206873   -2.992675    1.183584
     29          6           0      -10.861897   -4.341998    2.514276
     30          6           0       -7.669661   -5.341129    0.429421
     31          6           0       -7.356400   -4.821518   -0.942252
     32          7           0       -7.362811   -0.185132    1.028540
     33          6           0       -6.701617   -1.094881    1.820893
     34          6           0       -5.667287   -0.459243    2.640330
     35          6           0       -5.958848    0.971643    2.497339
     36          6           0       -7.012581    1.049438    1.505431
     37          6           0       -4.779063   -1.116852    3.566965
     38          6           0       -5.617397    2.315651    2.947190
     39          8           0       -4.889817    2.713432    3.777870
     40          6           0       -6.499459    3.301600    2.017672
     41          6           0       -7.228267    4.382736    2.774998
     42          8           0       -8.376550    4.298412    3.200449
     43          8           0       -6.416671    5.515790    2.821374
     44          6           0       -6.953395    6.712363    3.494606
     45          1           0      -11.343800    2.123301   -2.985963
     46          1           0      -11.993901   -3.677091   -0.695342
     47          1           0       -6.407375   -3.167900    2.297670
     48          1           0       -8.813692    4.830627    0.174722
     49          1           0       -9.475240    4.184019   -2.564227
     50          1           0      -11.036960    5.517513   -1.592124
     51          1           0      -11.105995    4.762867   -0.039715
     52          1           0      -11.823324    3.925575   -1.479334
     53          1           0       -7.253508    4.610900   -2.380668
     54          1           0       -6.229768    4.246054   -1.074967
     55          1           0       -6.062070    6.219478   -0.497314
     56          1           0       -7.746899    6.661508   -0.370405
     57          1           0      -14.122285    0.907211   -3.307334
     58          1           0      -13.533510   -0.100551   -4.717249
     59          1           0      -12.841302    1.481791   -4.166445
     60          1           0      -15.053923   -1.368536   -3.794173
     61          1           0      -15.375183   -3.067473   -3.749051
     62          1           0      -14.184245   -2.630605   -4.756703
     63          1           0      -10.343837   -5.271300    0.603149
     64          1           0       -8.163032   -4.853110    2.412035
     65          1           0      -10.325918   -4.459591    3.456103
     66          1           0      -11.780965   -4.927473    2.480538
     67          1           0      -11.288908   -3.343418    2.605317
     68          1           0       -8.113932   -6.312561    0.215918
     69          1           0       -6.707576   -5.579460    0.883181
     70          1           0       -6.353766   -4.415320   -0.809929
     71          1           0       -7.983004   -4.002773   -1.296659
     72          1           0       -7.364065   -5.650489   -1.650696
     73          1           0       -3.838381   -0.568529    3.513219
     74          1           0       -4.623629   -2.129935    3.196847
     75          1           0       -5.183671   -1.065631    4.577310
     76          1           0       -5.806684    3.799382    1.339147
     77          1           0       -7.281770    6.397260    4.485419
     78          1           0       -7.827905    7.094124    2.968391
     79          1           0       -6.318431    7.589326    3.621619
     80         12           0        8.628239   -1.134068   -0.167436
     81          6           0       10.967999    1.658540   -0.572727
     82          6           0        6.082980    1.177767   -0.840492
     83          6           0        6.464315   -3.472538    0.522906
     84          6           0       11.288394   -3.251079    0.283974
     85          7           0        8.521846    1.159032   -0.439425
     86          6           0        9.604246    2.099145   -0.703054
     87          6           0        9.123915    3.538982   -0.984774
     88          6           0        7.509010    3.310016   -0.842800
     89          6           0        7.309333    1.790371   -0.680402
     90          6           0        6.872856    4.115268    0.273527
     91          6           0        9.660579    4.037613   -2.360595
     92          6           0        9.027119    5.293034   -2.880338
     93          1           0        9.892528    6.376577   -3.484218
     94          7           0        6.523882   -1.171911   -0.128275
     95          6           0        5.644470   -0.129581   -0.442548
     96          6           0        4.265198   -0.604807   -0.350606
     97          6           0        4.346120   -2.001042    0.050532
     98          6           0        5.818676   -2.309534    0.175092
     99          6           0        2.993059    0.241827   -0.722580
    100          6           0        3.288654   -2.998420    0.360356
    101          8           0        3.492730   -4.167090    0.660876
    102          6           0        1.868980   -2.641109    0.201531
    103          7           0        8.830799   -3.048490    0.228770
    104          6           0        7.804193   -3.812716    0.606047
    105          6           0        8.230221   -5.260092    0.946524
    106          6           0        9.657623   -5.268295    0.440069
    107          6           0       10.000660   -3.730128    0.362640
    108          6           0        8.121550   -5.586247    2.431564
    109          6           0       10.070769   -5.960350   -0.833035
    110          6           0        9.438167   -5.391076   -2.084940
    111          7           0       10.692207   -0.884821   -0.042270
    112          6           0       11.663075   -1.898386    0.050227
    113          6           0       12.972194   -1.294136    0.019453
    114          6           0       12.679222    0.057725   -0.295507
    115          6           0       11.288354    0.275636   -0.311158
    116          6           0       14.314767   -1.962534    0.076797
    117          6           0       13.378246    1.335573   -0.635477
    118          8           0       14.586453    1.577205   -0.843783
    119          6           0       12.276013    2.382037   -0.783534
    120          6           0       12.537331    3.555403    0.163165
    121          8           0       12.563877    3.595050    1.428709
    122          8           0       12.606415    4.677655   -0.608287
    123          6           0       12.773194    5.952578    0.125617
    124          1           0        5.319406    1.843686   -1.245476
    125          1           0        5.759838   -4.252253    0.819746
    126          1           0       12.180742   -3.859897    0.444413
    127          1           0        9.612475    4.152463   -0.227830
    128          1           0        7.040178    3.511102   -1.806078
    129          1           0        6.102713    4.755349   -0.157863
    130          1           0        7.664181    4.737023    0.690739
    131          1           0        6.607915    3.586716    1.188990
    132          1           0        9.610940    3.172190   -3.022322
    133          1           0       10.729535    4.228491   -2.264942
    134          1           0        8.471185    5.899503   -2.165704
    135          1           0        8.379918    5.044395   -3.720924
    136          1           0        2.542986   -0.291988   -1.560084
    137          1           0        3.225435    1.258039   -1.040673
    138          1           0        2.357520    0.236790    0.163043
    139          1           0        1.615367   -1.656260    0.594315
    140          1           0        1.348965   -3.408053    0.774459
    141          1           0        1.747300   -2.542945   -0.876770
    142          1           0        7.561032   -5.924694    0.399973
    143          1           0       10.339592   -5.744684    1.144956
    144          1           0        7.729677   -6.597515    2.534247
    145          1           0        7.444021   -4.899783    2.938207
    146          1           0        9.115277   -5.656497    2.875373
    147          1           0        9.894794   -7.028674   -0.704299
    148          1           0       11.126188   -5.789911   -1.044855
    149          1           0        9.055631   -6.172233   -2.740848
    150          1           0       10.150373   -4.850132   -2.708433
    151          1           0        8.594117   -4.726558   -1.899861
    152          1           0       14.922040   -1.635111   -0.766717
    153          1           0       14.396243   -3.049408    0.087223
    154          1           0       14.792695   -1.629369    0.998276
    155          1           0       12.343494    2.804179   -1.786608
    156          1           0       11.812581    6.461616    0.201591
    157          1           0       13.530603    6.410498   -0.510593
    158          1           0       13.263589    5.817169    1.090461
 ---------------------------------------------------------------------

 SCF Done:  E(RwB97XD) =  -4070.62835996     A.U. after   19 cycles

 Excitation energies and oscillator strengths:

 Excited State   1:      Singlet-A      1.6037 eV  773.10 nm  f=0.6938  <S**2>=0.000
     309 -> 315        0.14414
     311 -> 313        0.58658
     312 -> 314        0.35671
 This state for optimization and/or second-order correction.
 Total Energy, E(TD-HF/TD-DFT) =  -4070.56942367
 Copying the excited state density for this state as the 1-particle RhoCI density.

 Excited State   2:      Singlet-A      1.6296 eV  760.82 nm  f=0.1142  <S**2>=0.000
     310 -> 316        0.15710
     311 -> 313       -0.35675
     312 -> 314        0.58390
     310 <- 316        0.10061

 Excited State   3:      Singlet-A      2.1161 eV  585.91 nm  f=0.1242  <S**2>=0.000
     309 -> 313        0.64967
     311 -> 315       -0.25731

 Excited State   4:      Singlet-A      2.1995 eV  563.70 nm  f=0.1027  <S**2>=0.000
     310 -> 314        0.63104
     312 -> 316       -0.30753

 Excited State   5:      Singlet-A      3.2563 eV  380.75 nm  f=0.0000  <S**2>=0.000
     312 -> 313        0.70633

 The electronic state is 1-A.
 Alpha  occ. eigenvalues --  -46.94437 -46.94080 -19.30952 -19.30463 -19.25234
 Alpha  occ. eigenvalues --  -19.24956 -19.24575 -19.24328 -19.23841 -19.23463
 Alpha  occ. eigenvalues --  -14.47115 -14.46944 -14.46747 -14.46190 -14.44585
 Alpha  occ. eigenvalues --  -14.44086 -14.43967 -14.43399 -10.43791 -10.43748
 Alpha  occ. eigenvalues --  -10.39751 -10.39740 -10.38726 -10.38616 -10.35982
 Alpha  occ. eigenvalues --  -10.35732 -10.35614 -10.35544 -10.35543 -10.35486
 Alpha  occ. eigenvalues --  -10.35132 -10.34777 -10.34770 -10.34748 -10.34717
 Alpha  occ. eigenvalues --  -10.34570 -10.34189 -10.34055 -10.33972 -10.33710
 Alpha  occ. eigenvalues --  -10.33558 -10.33184 -10.33083 -10.33021 -10.32997
 Alpha  occ. eigenvalues --  -10.32964 -10.32889 -10.32840 -10.32667 -10.32594
 Alpha  occ. eigenvalues --  -10.32563 -10.32559 -10.32553 -10.32550 -10.32459
 Alpha  occ. eigenvalues --  -10.32420 -10.32120 -10.31842 -10.31747 -10.31621
 Alpha  occ. eigenvalues --  -10.31585 -10.31535 -10.31402 -10.31315 -10.31048
 Alpha  occ. eigenvalues --  -10.30981 -10.30974 -10.30914 -10.30763 -10.30369
 Alpha  occ. eigenvalues --  -10.30322 -10.30170 -10.30084 -10.29965 -10.29794
 Alpha  occ. eigenvalues --  -10.29787 -10.29766 -10.29730 -10.29599 -10.29544
 Alpha  occ. eigenvalues --  -10.29533 -10.29491 -10.29468 -10.28669 -10.28499
 Alpha  occ. eigenvalues --  -10.28356  -3.20558  -3.20235  -1.94155  -1.93835
 Alpha  occ. eigenvalues --   -1.93660  -1.93561  -1.93373  -1.93214  -1.18150
 Alpha  occ. eigenvalues --   -1.17525  -1.15432  -1.12640  -1.12490  -1.09966
 Alpha  occ. eigenvalues --   -1.09853  -1.07918  -1.07351  -1.07029  -1.05737
 Alpha  occ. eigenvalues --   -1.05071  -1.04778  -1.04348  -1.04328  -1.02582
 Alpha  occ. eigenvalues --   -0.94222  -0.94042  -0.91534  -0.91035  -0.90795
 Alpha  occ. eigenvalues --   -0.90666  -0.90528  -0.90118  -0.89321  -0.89233
 Alpha  occ. eigenvalues --   -0.88985  -0.88966  -0.88375  -0.87768  -0.86647
 Alpha  occ. eigenvalues --   -0.86237  -0.85908  -0.85644  -0.84833  -0.84630
 Alpha  occ. eigenvalues --   -0.84261  -0.83915  -0.83340  -0.83129  -0.82506
 Alpha  occ. eigenvalues --   -0.82018  -0.80494  -0.80357  -0.79316  -0.79165
 Alpha  occ. eigenvalues --   -0.78862  -0.78679  -0.77935  -0.77860  -0.77423
 Alpha  occ. eigenvalues --   -0.76954  -0.74708  -0.74428  -0.73888  -0.73601
 Alpha  occ. eigenvalues --   -0.72191  -0.71381  -0.71284  -0.70682  -0.69882
 Alpha  occ. eigenvalues --   -0.69602  -0.69142  -0.68880  -0.67824  -0.67015
 Alpha  occ. eigenvalues --   -0.66791  -0.66634  -0.66416  -0.66248  -0.66187
 Alpha  occ. eigenvalues --   -0.65781  -0.63983  -0.63888  -0.62297  -0.62224
 Alpha  occ. eigenvalues --   -0.61732  -0.61124  -0.61056  -0.61051  -0.60270
 Alpha  occ. eigenvalues --   -0.60261  -0.59928  -0.59645  -0.59394  -0.59364
 Alpha  occ. eigenvalues --   -0.58273  -0.57954  -0.57841  -0.57653  -0.57472
 Alpha  occ. eigenvalues --   -0.57436  -0.57202  -0.56903  -0.56687  -0.56235
 Alpha  occ. eigenvalues --   -0.56204  -0.55689  -0.55495  -0.55412  -0.55016
 Alpha  occ. eigenvalues --   -0.55014  -0.54678  -0.54591  -0.54383  -0.54267
 Alpha  occ. eigenvalues --   -0.54061  -0.53862  -0.53730  -0.53507  -0.53399
 Alpha  occ. eigenvalues --   -0.53050  -0.52769  -0.52669  -0.52498  -0.52296
 Alpha  occ. eigenvalues --   -0.52266  -0.52179  -0.52080  -0.51727  -0.51668
 Alpha  occ. eigenvalues --   -0.51604  -0.51504  -0.51184  -0.50723  -0.50697
 Alpha  occ. eigenvalues --   -0.50685  -0.50518  -0.50396  -0.50384  -0.50059
 Alpha  occ. eigenvalues --   -0.49998  -0.49900  -0.49635  -0.49514  -0.49051
 Alpha  occ. eigenvalues --   -0.48958  -0.48893  -0.48684  -0.48671  -0.48408
 Alpha  occ. eigenvalues --   -0.48359  -0.48217  -0.48065  -0.47936  -0.47898
 Alpha  occ. eigenvalues --   -0.47594  -0.47558  -0.47359  -0.47317  -0.47061
 Alpha  occ. eigenvalues --   -0.46806  -0.46720  -0.46452  -0.46432  -0.46268
 Alpha  occ. eigenvalues --   -0.46241  -0.46087  -0.45830  -0.45828  -0.45445
 Alpha  occ. eigenvalues --   -0.45359  -0.45355  -0.45130  -0.44870  -0.44751
 Alpha  occ. eigenvalues --   -0.44570  -0.44432  -0.44101  -0.43965  -0.43830
 Alpha  occ. eigenvalues --   -0.43702  -0.43697  -0.43583  -0.43501  -0.43247
 Alpha  occ. eigenvalues --   -0.43202  -0.42802  -0.42533  -0.42380  -0.42286
 Alpha  occ. eigenvalues --   -0.41851  -0.41184  -0.41121  -0.40977  -0.40794
 Alpha  occ. eigenvalues --   -0.40777  -0.40114  -0.39778  -0.39283  -0.39128
 Alpha  occ. eigenvalues --   -0.39117  -0.38832  -0.38782  -0.38763  -0.38450
 Alpha  occ. eigenvalues --   -0.38082  -0.38017  -0.36607  -0.36447  -0.36274
 Alpha  occ. eigenvalues --   -0.36032  -0.35271  -0.35238  -0.33698  -0.33568
 Alpha  occ. eigenvalues --   -0.33441  -0.33312  -0.33247  -0.32560  -0.32358
 Alpha  occ. eigenvalues --   -0.32266  -0.31949  -0.31265  -0.26153  -0.26078
 Alpha  occ. eigenvalues --   -0.23255  -0.22756
 Alpha virt. eigenvalues --   -0.07623  -0.06987   0.00283   0.00365   0.02314
 Alpha virt. eigenvalues --    0.02397   0.04323   0.04365   0.05716   0.06278
 Alpha virt. eigenvalues --    0.06540   0.06714   0.07723   0.07888   0.08601

 Mulliken charges:
               1
     1  Mg   0.983429
     2  C    0.016746
     3  C   -0.090090
     4  C   -0.082343
     5  C   -0.106211
     6  N   -0.316803
     7  C    0.009444
     8  C   -0.040497
     9  C   -0.129178
    10  C    0.104215
    11  C   -0.004746
    12  C    0.028488
    13  C   -0.147697
    14  H    0.026001
    15  N   -0.453211
    16  C    0.111979
    17  C   -0.155512
    18  C   -0.103205
    19  C    0.123814
    20  C    0.045714
    21  C    0.084976
    22  O   -0.232712
    23  C   -0.023635
    24  N   -0.364603
    25  C    0.051760
    26  C   -0.053090
    27  C   -0.060276
    28  C    0.046780
    29  C    0.044561
    30  C   -0.025596
    31  C   -0.034976
    32  N   -0.447988
    33  C    0.163724
    34  C   -0.170058
    35  C   -0.084784
    36  C    0.117264
    37  C    0.077481
    38  C    0.136913
    39  O   -0.142676
    40  C   -0.138910
    41  C    0.283678
    42  O   -0.248714
    43  O   -0.383739
    44  C    0.146779
    45  H   -0.012931
    46  H    0.021977
    47  H   -0.009236
    48  H    0.043187
    49  H    0.043999
    50  H    0.031327
    51  H    0.051451
    52  H    0.038323
    53  H    0.037701
    54  H    0.035923
    55  H    0.053293
    56  H    0.051926
    57  H    0.057991
    58  H    0.063790
    59  H    0.032729
    60  H    0.059482
    61  H    0.039052
    62  H    0.062730
    63  H    0.024648
    64  H    0.024321
    65  H    0.039468
    66  H    0.044782
    67  H    0.032079
    68  H    0.027167
    69  H    0.023929
    70  H    0.026556
    71  H    0.051378
    72  H    0.040530
    73  H    0.055828
    74  H    0.036913
    75  H    0.075219
    76  H    0.074931
    77  H    0.054619
    78  H    0.040755
    79  H    0.061668
    80  Mg   0.975223
    81  C   -0.025766
    82  C   -0.091523
    83  C   -0.091618
    84  C   -0.077756
    85  N   -0.366144
    86  C   -0.005863
    87  C   -0.064624
    88  C   -0.111895
    89  C    0.089053
    90  C    0.051876
    91  C   -0.006066
    92  C   -0.128000
    93  H    0.028946
    94  N   -0.467443
    95  C    0.163231
    96  C   -0.170060
    97  C   -0.057575
    98  C    0.152486
    99  C    0.067054
   100  C    0.022206
   101  O   -0.243882
   102  C    0.001787
   103  N   -0.422565
   104  C    0.103973
   105  C   -0.088061
   106  C   -0.066298
   107  C    0.109930
   108  C    0.043006
   109  C    0.010367
   110  C   -0.067789
   111  N   -0.449804
   112  C    0.078762
   113  C   -0.151527
   114  C   -0.101700
   115  C    0.167237
   116  C    0.064818
   117  C    0.158588
   118  O   -0.236520
   119  C   -0.063402
   120  C    0.278956
   121  O   -0.286682
   122  O   -0.366333
   123  C    0.125305
   124  H   -0.007174
   125  H    0.021417
   126  H    0.001237
   127  H    0.052097
   128  H    0.034939
   129  H    0.045763
   130  H    0.021908
   131  H    0.048576
   132  H    0.034699
   133  H    0.058182
   134  H    0.052670
   135  H    0.055084
   136  H    0.060943
   137  H    0.044455
   138  H    0.068182
   139  H    0.028093
   140  H    0.065667
   141  H    0.059475
   142  H    0.041219
   143  H    0.013841
   144  H    0.035469
   145  H    0.048433
   146  H    0.036585
   147  H    0.035034
   148  H    0.029045
   149  H    0.028890
   150  H    0.034931
   151  H    0.040829
   152  H    0.061387
   153  H    0.026377
   154  H    0.055496
   155  H    0.079450
   156  H    0.065934
   157  H    0.060730
   158  H    0.076227
 Sum of Mulliken charges =  -0.00000

 Dipole moment (field-independent basis, Debye):
    X=             -5.6326    Y=              1.9283    Z=             -5.4019  Tot=              8.0390
 Quadrupole moment (field-independent basis, Debye-Ang):
   XX=           -607.4703   YY=           -463.3334   ZZ=           -511.1174
   XY=            -42.2572   XZ=             22.2844   YZ=            -19.9234

 Normal termination of Gaussian 16 at Sat Sep 18 19:05:51 2021.
