 Gaussian 16, Revision A.03,
 Gaussian 16:  ES64L-G16RevA.03 25-Dec-2016

 --------------------------------
 #p wB97XD/Def2SVP td=(nstates=5)
 --------------------------------

 --------------------------------
 TDDFT excited states in gaussian
 --------------------------------
 Symbolic Z-matrix:
 Charge =  0 Multiplicity = 1

                         Standard orientation:
 ---------------------------------------------------------------------
 Center     Atomic      Atomic             Coordinates (Angstroms)
 Number     Number       Type             X           Y           Z
 ---------------------------------------------------------------------
      1         12           0      -23.793046   -0.695017    0.071715
      2          6           0      -23.201726    2.454861   -1.259821
      3          6           0      -23.992475    0.632859    3.165434
      4          6           0      -24.177451   -3.802202    1.255993
      5          6           0      -23.408704   -1.997726   -3.155855
      6          7           0      -23.633063    1.364337    0.792096
      7          6           0      -23.490410    2.474748    0.108803
      8          6           0      -23.544797    3.688662    1.146553
      9          6           0      -23.022290    2.952995    2.362381
     10          6           0      -23.620687    1.528373    2.135008
     11          6           0      -21.482265    3.044556    2.422801
     12          6           0      -24.980819    4.369130    1.138730
     13          6           0      -25.016009    5.790714    1.708145
     14          1           0      -23.788000    6.321860    2.427216
     15          7           0      -24.221965   -1.449867    1.899221
     16          6           0      -24.341307   -0.699890    3.066881
     17          6           0      -24.878446   -1.603276    4.128263
     18          6           0      -24.878761   -2.960061    3.590066
     19          6           0      -24.334208   -2.741517    2.223636
     20          6           0      -25.256102   -1.112962    5.506014
     21          6           0      -25.368230   -4.345563    4.218614
     22          8           0      -25.373320   -5.415356    3.600226
     23          6           0      -25.863891   -4.299544    5.648932
     24          7           0      -23.683978   -2.580620   -0.773541
     25          6           0      -23.859827   -3.710581   -0.093830
     26          6           0      -23.629588   -4.983112   -0.966163
     27          6           0      -23.638190   -4.353089   -2.366355
     28          6           0      -23.633464   -2.877133   -2.119746
     29          6           0      -22.338696   -5.778955   -0.625693
     30          6           0      -24.696383   -4.886308   -3.431595
     31          6           0      -25.891035   -4.032005   -3.702172
     32          7           0      -23.187277   -0.003620   -1.805549
     33          6           0      -23.140069   -0.610523   -3.015240
     34          6           0      -22.754465    0.263870   -4.064851
     35          6           0      -22.766879    1.536882   -3.412632
     36          6           0      -23.038494    1.267683   -2.090634
     37          6           0      -22.404696    0.068827   -5.517379
     38          6           0      -22.606790    2.954311   -3.545567
     39          8           0      -22.339311    3.654572   -4.498129
     40          6           0      -23.028008    3.647464   -2.210659
     41          6           0      -21.986727    4.593645   -1.798837
     42          8           0      -20.845907    4.240826   -1.541103
     43          8           0      -22.373204    5.954206   -1.905081
     44          6           0      -21.326377    6.947092   -1.616733
     45          1           0      -23.983735    1.091253    4.155396
     46          1           0      -24.263726   -4.803955    1.680224
     47          1           0      -23.246830   -2.445805   -4.138091
     48          1           0      -22.882050    4.486615    0.814402
     49          1           0      -23.450266    3.285827    3.307650
     50          1           0      -21.325407    3.660311    3.309073
     51          1           0      -21.048989    3.522787    1.543368
     52          1           0      -21.133166    2.038291    2.653395
     53          1           0      -25.680781    3.773004    1.724893
     54          1           0      -25.242419    4.455463    0.083857
     55          1           0      -25.870185    5.832683    2.383257
     56          1           0      -25.250612    6.455287    0.876998
     57          1           0      -25.653122   -0.097741    5.472753
     58          1           0      -24.481250   -1.136423    6.271587
     59          1           0      -26.084890   -1.720022    5.869975
     60          1           0      -25.054730   -3.799131    6.180334
     61          1           0      -25.985656   -5.274888    6.119186
     62          1           0      -26.827251   -3.790971    5.689719
     63          1           0      -24.449562   -5.692838   -0.857553
     64          1           0      -22.626281   -4.486632   -2.747107
     65          1           0      -21.907381   -6.042503   -1.591716
     66          1           0      -22.454531   -6.667068   -0.006387
     67          1           0      -21.695898   -5.129208   -0.031711
     68          1           0      -24.968672   -5.907041   -3.162903
     69          1           0      -24.221881   -4.919569   -4.412066
     70          1           0      -25.797328   -3.656578   -4.721453
     71          1           0      -25.935590   -3.082895   -3.166609
     72          1           0      -26.844545   -4.558041   -3.653948
     73          1           0      -22.375511   -0.983970   -5.800418
     74          1           0      -21.491048    0.621517   -5.738117
     75          1           0      -23.139921    0.412811   -6.245172
     76          1           0      -23.965843    4.192267   -2.315800
     77          1           0      -21.677075    7.975323   -1.531609
     78          1           0      -20.649346    6.842178   -2.464945
     79          1           0      -20.817335    6.577468   -0.727367
     80         12           0       23.988839   -0.779083    0.164567
     81          6           0       22.060304    2.022995    1.186000
     82          6           0       26.533826    1.557896   -0.592788
     83          6           0       25.736413   -3.204704   -1.141833
     84          6           0       21.225556   -2.816435    0.721390
     85          7           0       24.267678    1.577428    0.277064
     86          6           0       23.341211    2.425924    0.831867
     87          6           0       23.844425    3.852765    0.970532
     88          6           0       25.255808    3.683624    0.260859
     89          6           0       25.395568    2.177406   -0.008305
     90          6           0       25.384390    4.626003   -0.932289
     91          6           0       23.947200    4.254673    2.458293
     92          6           0       23.608983    5.740047    2.863007
     93          1           0       23.657205    6.824446    1.760933
     94          7           0       25.914578   -0.845750   -0.678561
     95          6           0       26.750132    0.233437   -0.967889
     96          6           0       27.982152   -0.293910   -1.575627
     97          6           0       27.793177   -1.712630   -1.647897
     98          6           0       26.445409   -1.948726   -1.095811
     99          6           0       29.049905    0.541740   -2.044755
    100          6           0       28.747086   -2.771334   -2.191917
    101          8           0       28.401293   -3.960338   -2.278221
    102          6           0       30.162610   -2.444330   -2.465187
    103          7           0       23.505274   -2.719468   -0.260166
    104          6           0       24.443577   -3.556184   -0.711152
    105          6           0       23.861672   -4.991530   -0.923392
    106          6           0       22.507734   -4.892942   -0.151338
    107          6           0       22.359881   -3.427780    0.115393
    108          6           0       23.769652   -5.436663   -2.427336
    109          6           0       22.735479   -5.698290    1.184611
    110          6           0       23.200769   -4.957651    2.485506
    111          7           0       22.078138   -0.530847    0.906934
    112          6           0       21.050830   -1.479744    1.058393
    113          6           0       19.835424   -0.775774    1.537549
    114          6           0       20.191286    0.567868    1.534929
    115          6           0       21.519687    0.716419    1.196578
    116          6           0       18.559648   -1.468517    1.591649
    117          6           0       19.604434    1.896849    1.688098
    118          8           0       18.436177    2.181543    1.926476
    119          6           0       20.801539    2.929998    1.440382
    120          6           0       20.488026    3.857922    0.326651
    121          8           0       20.809892    3.713804   -0.849254
    122          8           0       19.769982    4.957060    0.834579
    123          6           0       19.274718    6.002295   -0.032322
    124          1           0       27.444189    2.160852   -0.623272
    125          1           0       26.274020   -4.064915   -1.547081
    126          1           0       20.447438   -3.561615    0.897766
    127          1           0       23.214254    4.573222    0.448423
    128          1           0       25.989825    4.076968    0.963605
    129          1           0       26.250930    5.285754   -0.905696
    130          1           0       24.525785    5.266666   -1.133550
    131          1           0       25.571097    3.995102   -1.802331
    132          1           0       24.941079    4.038809    2.850165
    133          1           0       23.249792    3.542843    2.901269
    134          1           0       24.339408    6.111822    3.580814
    135          1           0       22.712749    5.666762    3.479020
    136          1           0       29.960046    0.160339   -1.581401
    137          1           0       28.783571    1.595438   -1.967573
    138          1           0       28.979600    0.355096   -3.116818
    139          1           0       30.303764   -1.828022   -3.353587
    140          1           0       30.715330   -3.364396   -2.654169
    141          1           0       30.518055   -1.815230   -1.649613
    142          1           0       24.653466   -5.550572   -0.424703
    143          1           0       21.692807   -5.368563   -0.697610
    144          1           0       24.640926   -6.035525   -2.692896
    145          1           0       23.623968   -4.529296   -3.012586
    146          1           0       22.867944   -6.044248   -2.502073
    147          1           0       23.291658   -6.609519    0.963630
    148          1           0       21.718075   -5.919398    1.508627
    149          1           0       23.966908   -5.619661    2.888042
    150          1           0       22.409411   -4.865223    3.230472
    151          1           0       23.665316   -3.982506    2.343319
    152          1           0       18.410475   -1.992460    0.648407
    153          1           0       17.793898   -0.696702    1.675657
    154          1           0       18.460508   -2.034529    2.517482
    155          1           0       20.842025    3.491054    2.374534
    156          1           0       18.233714    5.865512   -0.324058
    157          1           0       19.998002    6.250680   -0.809171
    158          1           0       19.392061    6.871218    0.615845
 ---------------------------------------------------------------------

 SCF Done:  E(RwB97XD) =  -4070.61761967     A.U. after   17 cycles

 Excitation energies and oscillator strengths:

 Excited State   1:      Singlet-A      1.6906 eV  733.38 nm  f=0.3916  <S**2>=0.000
     309 -> 316        0.18170
     311 -> 313        0.68422
     309 <- 316        0.11473
 This state for optimization and/or second-order correction.
 Total Energy, E(TD-HF/TD-DFT) =  -4070.55549214
 Copying the excited state density for this state as the 1-particle RhoCI density.

 Excited State   2:      Singlet-A      1.6997 eV  729.46 nm  f=0.3717  <S**2>=0.000
     310 -> 315       -0.19454
     312 -> 314        0.67892
     310 <- 315       -0.11678

 Excited State   3:      Singlet-A      2.1645 eV  572.81 nm  f=0.1455  <S**2>=0.000
     309 -> 313        0.65219
     311 -> 316       -0.26035

 Excited State   4:      Singlet-A      2.2204 eV  558.39 nm  f=0.0707  <S**2>=0.000
     310 -> 314        0.62144
     312 -> 315        0.32314

 Excited State   5:      Singlet-A      3.4871 eV  355.55 nm  f=0.0049  <S**2>=0.000
     300 -> 313       -0.16029
     304 -> 313       -0.39538
     306 -> 313       -0.13670
     307 -> 313        0.52190

 The electronic state is 1-A.
 Alpha  occ. eigenvalues --  -46.94812 -46.94097 -19.29194 -19.29121 -19.25555
 Alpha  occ. eigenvalues --  -19.24781 -19.24379 -19.24312 -19.23796 -19.22892
 Alpha  occ. eigenvalues --  -14.46716 -14.46588 -14.46012 -14.45818 -14.44728
 Alpha  occ. eigenvalues --  -14.44270 -14.43493 -14.43174 -10.43297 -10.42696
 Alpha  occ. eigenvalues --  -10.41274 -10.39349 -10.39276 -10.38056 -10.35391
 Alpha  occ. eigenvalues --  -10.35233 -10.35117 -10.35034 -10.34869 -10.34764
 Alpha  occ. eigenvalues --  -10.34733 -10.34627 -10.34555 -10.34516 -10.34432
 Alpha  occ. eigenvalues --  -10.34430 -10.34419 -10.34185 -10.33777 -10.33214
 Alpha  occ. eigenvalues --  -10.33210 -10.33195 -10.33138 -10.32891 -10.32731
 Alpha  occ. eigenvalues --  -10.32595 -10.32249 -10.32183 -10.32144 -10.32024
 Alpha  occ. eigenvalues --  -10.32010 -10.31998 -10.31678 -10.31624 -10.31571
 Alpha  occ. eigenvalues --  -10.31570 -10.31563 -10.31425 -10.31400 -10.31393
 Alpha  occ. eigenvalues --  -10.31331 -10.31321 -10.31251 -10.31172 -10.31064
 Alpha  occ. eigenvalues --  -10.31044 -10.30962 -10.30760 -10.30743 -10.30387
 Alpha  occ. eigenvalues --  -10.30378 -10.30286 -10.30214 -10.29832 -10.29616
 Alpha  occ. eigenvalues --  -10.29591 -10.29578 -10.29565 -10.29506 -10.29351
 Alpha  occ. eigenvalues --  -10.29182 -10.29074 -10.28892 -10.28658 -10.28278
 Alpha  occ. eigenvalues --  -10.28150  -3.20801  -3.20263  -1.94396  -1.93937
 Alpha  occ. eigenvalues --   -1.93873  -1.93759  -1.93358  -1.93286  -1.16781
 Alpha  occ. eigenvalues --   -1.16608  -1.12748  -1.11844  -1.11754  -1.11434
 Alpha  occ. eigenvalues --   -1.09407  -1.08913  -1.07563  -1.06781  -1.06720
 Alpha  occ. eigenvalues --   -1.06155  -1.06071  -1.05214  -1.05057  -1.03340
 Alpha  occ. eigenvalues --   -0.94068  -0.93907  -0.91848  -0.91074  -0.90509
 Alpha  occ. eigenvalues --   -0.90425  -0.90224  -0.90194  -0.89280  -0.89252
 Alpha  occ. eigenvalues --   -0.89021  -0.88615  -0.88150  -0.88073  -0.86191
 Alpha  occ. eigenvalues --   -0.86039  -0.85496  -0.85180  -0.84679  -0.84561
 Alpha  occ. eigenvalues --   -0.84499  -0.83839  -0.82866  -0.82735  -0.82387
 Alpha  occ. eigenvalues --   -0.82017  -0.80939  -0.80569  -0.79126  -0.78989
 Alpha  occ. eigenvalues --   -0.78748  -0.78550  -0.77740  -0.77675  -0.76979
 Alpha  occ. eigenvalues --   -0.76712  -0.74784  -0.74072  -0.73261  -0.73136
 Alpha  occ. eigenvalues --   -0.71112  -0.71109  -0.70843  -0.70712  -0.69872
 Alpha  occ. eigenvalues --   -0.69810  -0.68722  -0.68645  -0.67003  -0.66909
 Alpha  occ. eigenvalues --   -0.66613  -0.66561  -0.66404  -0.66162  -0.66153
 Alpha  occ. eigenvalues --   -0.65941  -0.63495  -0.63226  -0.62671  -0.62343
 Alpha  occ. eigenvalues --   -0.61526  -0.61288  -0.61100  -0.61025  -0.59992
 Alpha  occ. eigenvalues --   -0.59989  -0.59932  -0.59817  -0.59551  -0.59120
 Alpha  occ. eigenvalues --   -0.58254  -0.57817  -0.57634  -0.57443  -0.57336
 Alpha  occ. eigenvalues --   -0.57175  -0.56660  -0.56152  -0.55918  -0.55864
 Alpha  occ. eigenvalues --   -0.55726  -0.55549  -0.55314  -0.55270  -0.55078
 Alpha  occ. eigenvalues --   -0.54928  -0.54683  -0.54565  -0.54221  -0.54165
 Alpha  occ. eigenvalues --   -0.54063  -0.53712  -0.53686  -0.53418  -0.53203
 Alpha  occ. eigenvalues --   -0.53112  -0.52744  -0.52698  -0.52676  -0.52471
 Alpha  occ. eigenvalues --   -0.52205  -0.51875  -0.51794  -0.51684  -0.51518
 Alpha  occ. eigenvalues --   -0.51395  -0.51086  -0.50965  -0.50878  -0.50808
 Alpha  occ. eigenvalues --   -0.50769  -0.50462  -0.50416  -0.50389  -0.50302
 Alpha  occ. eigenvalues --   -0.50002  -0.49729  -0.49525  -0.49289  -0.49277
 Alpha  occ. eigenvalues --   -0.48831  -0.48773  -0.48596  -0.48330  -0.48152
 Alpha  occ. eigenvalues --   -0.48001  -0.47916  -0.47912  -0.47682  -0.47426
 Alpha  occ. eigenvalues --   -0.47267  -0.46910  -0.46831  -0.46559  -0.46474
 Alpha  occ. eigenvalues --   -0.46239  -0.46185  -0.46129  -0.45964  -0.45913
 Alpha  occ. eigenvalues --   -0.45861  -0.45799  -0.45531  -0.45417  -0.45351
 Alpha  occ. eigenvalues --   -0.45262  -0.45248  -0.45135  -0.44910  -0.44881
 Alpha  occ. eigenvalues --   -0.44413  -0.44410  -0.44003  -0.43830  -0.43720
 Alpha  occ. eigenvalues --   -0.43664  -0.43325  -0.43283  -0.42934  -0.42863
 Alpha  occ. eigenvalues --   -0.42839  -0.42565  -0.42402  -0.42186  -0.42069
 Alpha  occ. eigenvalues --   -0.41857  -0.41734  -0.41256  -0.41082  -0.40482
 Alpha  occ. eigenvalues --   -0.40177  -0.39955  -0.39683  -0.39430  -0.39338
 Alpha  occ. eigenvalues --   -0.39079  -0.38619  -0.38596  -0.38106  -0.38091
 Alpha  occ. eigenvalues --   -0.37614  -0.37596  -0.36419  -0.36094  -0.35983
 Alpha  occ. eigenvalues --   -0.35867  -0.35498  -0.35417  -0.34183  -0.33368
 Alpha  occ. eigenvalues --   -0.33166  -0.33126  -0.32758  -0.32697  -0.32364
 Alpha  occ. eigenvalues --   -0.32135  -0.31673  -0.31446  -0.25802  -0.25787
 Alpha  occ. eigenvalues --   -0.23193  -0.22564
 Alpha virt. eigenvalues --   -0.07153  -0.06461   0.00230   0.00684   0.02022
 Alpha virt. eigenvalues --    0.02321   0.04305   0.04597   0.06397   0.06625
 Alpha virt. eigenvalues --    0.07000   0.07107   0.07693   0.08062   0.08329

 Mulliken charges:
               1
     1  Mg   0.985858
     2  C   -0.033929
     3  C   -0.089433
     4  C   -0.081453
     5  C   -0.113359
     6  N   -0.312362
     7  C   -0.022259
     8  C   -0.084707
     9  C   -0.106284
    10  C    0.035722
    11  C    0.056872
    12  C    0.017357
    13  C   -0.109410
    14  H    0.037469
    15  N   -0.477123
    16  C    0.190138
    17  C   -0.158503
    18  C   -0.108916
    19  C    0.127177
    20  C    0.049094
    21  C    0.101798
    22  O   -0.227659
    23  C   -0.029751
    24  N   -0.379045
    25  C    0.081176
    26  C   -0.097542
    27  C   -0.032731
    28  C    0.053482
    29  C    0.021154
    30  C   -0.006276
    31  C   -0.048491
    32  N   -0.374916
    33  C    0.116016
    34  C   -0.174753
    35  C   -0.023242
    36  C    0.102401
    37  C    0.084904
    38  C    0.096522
    39  O   -0.204578
    40  C   -0.019839
    41  C    0.245668
    42  O   -0.251721
    43  O   -0.402737
    44  C    0.147321
    45  H    0.004669
    46  H    0.017855
    47  H   -0.007227
    48  H    0.021258
    49  H    0.004255
    50  H    0.035528
    51  H    0.070973
    52  H    0.037024
    53  H    0.035374
    54  H    0.041309
    55  H    0.045546
    56  H    0.053098
    57  H    0.040752
    58  H    0.065838
    59  H    0.030999
    60  H    0.059301
    61  H    0.056235
    62  H    0.081380
    63  H    0.037148
    64  H    0.030721
    65  H    0.038450
    66  H    0.045375
    67  H    0.041258
    68  H    0.033868
    69  H    0.028052
    70  H    0.018053
    71  H    0.047792
    72  H    0.040832
    73  H    0.015370
    74  H    0.066044
    75  H    0.046079
    76  H    0.068297
    77  H    0.063904
    78  H    0.057340
    79  H    0.048142
    80  Mg   0.958887
    81  C    0.014099
    82  C   -0.115855
    83  C   -0.071732
    84  C   -0.091816
    85  N   -0.268361
    86  C   -0.050161
    87  C   -0.080407
    88  C   -0.081190
    89  C    0.061128
    90  C    0.017852
    91  C   -0.000828
    92  C   -0.101167
    93  H    0.041890
    94  N   -0.420466
    95  C    0.160397
    96  C   -0.187159
    97  C   -0.089579
    98  C    0.146031
    99  C    0.087526
   100  C    0.060939
   101  O   -0.251538
   102  C   -0.004640
   103  N   -0.411493
   104  C    0.041635
   105  C   -0.106359
   106  C   -0.056830
   107  C    0.053323
   108  C    0.041977
   109  C   -0.057126
   110  C   -0.040286
   111  N   -0.481686
   112  C    0.164076
   113  C   -0.192724
   114  C   -0.021532
   115  C    0.160093
   116  C    0.078011
   117  C    0.119441
   118  O   -0.196964
   119  C   -0.104368
   120  C    0.295868
   121  O   -0.245609
   122  O   -0.393130
   123  C    0.148796
   124  H    0.010743
   125  H    0.016617
   126  H   -0.005075
   127  H    0.045992
   128  H    0.028854
   129  H    0.025205
   130  H    0.045314
   131  H    0.027083
   132  H    0.030828
   133  H    0.034366
   134  H    0.044097
   135  H    0.052223
   136  H    0.062290
   137  H    0.037753
   138  H    0.061537
   139  H    0.050630
   140  H    0.063457
   141  H    0.049892
   142  H    0.039301
   143  H    0.036133
   144  H    0.056251
   145  H    0.049521
   146  H    0.029635
   147  H    0.044639
   148  H    0.027427
   149  H    0.033399
   150  H    0.043535
   151  H    0.047344
   152  H    0.057827
   153  H    0.044365
   154  H    0.045816
   155  H    0.074972
   156  H    0.071722
   157  H    0.047355
   158  H    0.039990
 Sum of Mulliken charges =  -0.00000

 Dipole moment (field-independent basis, Debye):
    X=              1.8476    Y=              0.2077    Z=              5.5934  Tot=              5.8943
 Quadrupole moment (field-independent basis, Debye-Ang):
   XX=           -175.2338   YY=           -483.5703   ZZ=           -495.7695
   XY=             61.8678   XZ=           -105.0818   YZ=             22.0365

 Normal termination of Gaussian 16 at Mon Sep 20 20:00:33 2021.
