 Gaussian 16, Revision A.03,
 Gaussian 16:  ES64L-G16RevA.03 25-Dec-2016

 --------------------------------
 #p wB97XD/Def2SVP td=(nstates=5)
 --------------------------------

 --------------------------------
 TDDFT excited states in gaussian
 --------------------------------
 Symbolic Z-matrix:
 Charge =  0 Multiplicity = 1

                         Standard orientation:
 ---------------------------------------------------------------------
 Center     Atomic      Atomic             Coordinates (Angstroms)
 Number     Number       Type             X           Y           Z
 ---------------------------------------------------------------------
      1         12           0      -25.155653   -0.504465   -0.287113
      2          6           0      -23.239148    2.421817   -0.490412
      3          6           0      -26.959139    0.987076    2.369715
      4          6           0      -26.794927   -3.443110    0.167445
      5          6           0      -22.865206   -2.066073   -2.345330
      6          7           0      -25.177543    1.504602    0.648349
      7          6           0      -24.390113    2.584907    0.239826
      8          6           0      -25.013232    3.915452    0.796639
      9          6           0      -26.101526    3.401455    1.746248
     10          6           0      -26.056612    1.838292    1.623951
     11          6           0      -25.820990    3.874822    3.197956
     12          6           0      -25.486735    4.760314   -0.379796
     13          6           0      -25.517233    6.270278   -0.208714
     14          1           0      -25.378281    6.847681    1.218062
     15          7           0      -26.675722   -1.181201    1.048875
     16          6           0      -27.259015   -0.425411    2.083583
     17          6           0      -28.224479   -1.224248    2.817844
     18          6           0      -28.282196   -2.525923    2.180711
     19          6           0      -27.212367   -2.428669    1.097187
     20          6           0      -29.139314   -0.677056    3.920976
     21          6           0      -29.154597   -3.733421    2.465496
     22          8           0      -29.052323   -4.744047    1.782944
     23          6           0      -30.266667   -3.592791    3.432597
     24          7           0      -24.879226   -2.468590   -1.069383
     25          6           0      -25.749229   -3.479898   -0.794139
     26          6           0      -25.426684   -4.705531   -1.688464
     27          6           0      -24.191386   -4.253385   -2.559989
     28          6           0      -23.996038   -2.795911   -2.067994
     29          6           0      -25.155344   -5.946313   -0.819009
     30          6           0      -24.433896   -4.263353   -4.092699
     31          6           0      -23.787564   -5.507437   -4.694218
     32          7           0      -23.323025   -0.048480   -1.187779
     33          6           0      -22.450127   -0.766318   -1.935268
     34          6           0      -21.226429    0.055855   -2.097622
     35          6           0      -21.514615    1.315069   -1.659123
     36          6           0      -22.797568    1.180022   -1.069723
     37          6           0      -20.009645   -0.470180   -2.840224
     38          6           0      -21.055583    2.705104   -1.536497
     39          8           0      -19.985847    3.199338   -1.871517
     40          6           0      -22.195149    3.446094   -0.864115
     41          6           0      -21.581993    4.176308    0.256577
     42          8           0      -21.218597    3.774919    1.370383
     43          8           0      -21.380898    5.476705   -0.158852
     44          6           0      -20.718674    6.362590    0.773776
     45          1           0      -27.545764    1.508865    3.128407
     46          1           0      -27.440463   -4.313022    0.305505
     47          1           0      -22.144697   -2.655638   -2.916193
     48          1           0      -24.150995    4.329861    1.320450
     49          1           0      -27.011138    3.935094    1.470856
     50          1           0      -25.536649    3.084016    3.892337
     51          1           0      -26.790847    4.133797    3.621757
     52          1           0      -25.039757    4.633503    3.240411
     53          1           0      -26.459262    4.338454   -0.635239
     54          1           0      -24.883839    4.514508   -1.253185
     55          1           0      -26.424833    6.653547   -0.673086
     56          1           0      -24.678434    6.568732   -0.838538
     57          1           0      -28.900021    0.340686    4.229846
     58          1           0      -29.071822   -1.310639    4.806360
     59          1           0      -30.173976   -0.784075    3.597358
     60          1           0      -30.989237   -2.883167    3.028804
     61          1           0      -29.890365   -3.430295    4.442565
     62          1           0      -30.850530   -4.509664    3.514116
     63          1           0      -26.318911   -4.927523   -2.273467
     64          1           0      -23.360611   -4.868982   -2.212620
     65          1           0      -24.190910   -6.435232   -0.953496
     66          1           0      -25.923582   -6.606614   -1.220824
     67          1           0      -25.171695   -5.760949    0.254623
     68          1           0      -23.833502   -3.491196   -4.574071
     69          1           0      -25.487001   -4.222800   -4.371601
     70          1           0      -24.564744   -5.910683   -5.343255
     71          1           0      -23.632179   -6.319410   -3.984240
     72          1           0      -22.869536   -5.333712   -5.256288
     73          1           0      -20.009166   -1.543198   -3.033631
     74          1           0      -19.074511   -0.230279   -2.335672
     75          1           0      -20.041477   -0.083536   -3.859458
     76          1           0      -22.632400    4.118246   -1.601726
     77          1           0      -19.808255    5.865354    1.109410
     78          1           0      -21.323311    6.606219    1.647641
     79          1           0      -20.270793    7.133035    0.147064
     80         12           0       24.256008   -0.753395    0.385161
     81          6           0       24.106593    2.462078   -1.192181
     82          6           0       24.450822    0.739918    3.302976
     83          6           0       25.185225   -3.715148    1.546632
     84          6           0       24.403861   -2.134171   -3.020765
     85          7           0       24.228054    1.365480    0.973270
     86          6           0       24.194905    2.535454    0.188663
     87          6           0       24.232423    3.866763    1.030295
     88          6           0       24.278272    3.188068    2.533260
     89          6           0       24.307410    1.680233    2.303940
     90          6           0       25.548271    3.653753    3.366744
     91          6           0       23.057138    4.872518    0.771220
     92          6           0       22.851136    5.940108    1.839146
     93          1           0       23.139784    7.379062    1.373661
     94          7           0       24.654450   -1.412972    2.206050
     95          6           0       24.680563   -0.684003    3.371742
     96          6           0       24.957624   -1.506072    4.530743
     97          6           0       25.158730   -2.831457    3.975285
     98          6           0       24.922530   -2.689120    2.494423
     99          6           0       24.952123   -1.082294    5.923854
    100          6           0       25.476484   -4.143637    4.671053
    101          8           0       25.505267   -5.207541    4.118787
    102          6           0       25.849745   -4.011408    6.123686
    103          7           0       24.792124   -2.650430   -0.606790
    104          6           0       25.109379   -3.731314    0.149609
    105          6           0       25.305653   -4.990911   -0.735832
    106          6           0       24.913798   -4.463820   -2.159966
    107          6           0       24.631681   -2.992309   -1.925328
    108          6           0       26.705793   -5.693777   -0.722320
    109          6           0       23.680771   -5.157673   -2.839253
    110          6           0       24.010076   -6.544607   -3.434383
    111          7           0       24.282708   -0.072253   -1.673019
    112          6           0       24.264922   -0.716815   -2.888432
    113          6           0       24.098192    0.237932   -3.910899
    114          6           0       24.086164    1.462545   -3.356173
    115          6           0       24.224780    1.266461   -1.948644
    116          6           0       23.899693   -0.184867   -5.360649
    117          6           0       24.049479    2.917573   -3.534564
    118          8           0       23.983765    3.582129   -4.536393
    119          6           0       24.087743    3.612256   -2.090659
    120          6           0       25.405784    4.308185   -1.968936
    121          8           0       26.492557    3.919720   -1.604168
    122          8           0       25.146032    5.613787   -2.335757
    123          6           0       26.282661    6.564285   -2.292479
    124          1           0       24.574376    1.144128    4.309737
    125          1           0       25.634034   -4.616617    1.970685
    126          1           0       24.354341   -2.708849   -3.948548
    127          1           0       25.208901    4.326484    0.876934
    128          1           0       23.400350    3.531105    3.081188
    129          1           0       25.242963    3.894481    4.384927
    130          1           0       26.163546    4.467835    2.984517
    131          1           0       26.224661    2.813989    3.523116
    132          1           0       22.233833    4.166780    0.653314
    133          1           0       23.026849    5.400949   -0.181894
    134          1           0       23.503210    5.726123    2.685502
    135          1           0       21.790120    5.987356    2.082760
    136          1           0       24.100057   -1.661477    6.279637
    137          1           0       24.840726   -0.000998    6.005864
    138          1           0       25.808002   -1.348935    6.543583
    139          1           0       24.961020   -4.154865    6.738104
    140          1           0       26.584644   -3.229489    6.317253
    141          1           0       26.609533   -4.782491    6.248030
    142          1           0       24.454852   -5.632002   -0.503174
    143          1           0       25.803714   -4.452300   -2.789657
    144          1           0       27.218321   -5.768641   -1.681826
    145          1           0       26.496902   -6.737161   -0.487125
    146          1           0       27.435935   -5.268209   -0.033935
    147          1           0       23.327222   -4.537020   -3.661834
    148          1           0       22.914137   -5.185319   -2.063660
    149          1           0       25.080755   -6.635245   -3.618524
    150          1           0       23.406673   -6.629992   -4.338028
    151          1           0       23.787219   -7.380183   -2.770198
    152          1           0       23.337406    0.565396   -5.916672
    153          1           0       23.405441   -1.156277   -5.377400
    154          1           0       24.861520   -0.392320   -5.830167
    155          1           0       23.246751    4.291041   -1.946964
    156          1           0       26.168340    7.193694   -3.174930
    157          1           0       27.264471    6.091204   -2.303608
    158          1           0       26.044205    7.077988   -1.360647
 ---------------------------------------------------------------------

 SCF Done:  E(RwB97XD) =  -4070.61254140     A.U. after   19 cycles

 Excitation energies and oscillator strengths:

 Excited State   1:      Singlet-A      1.6258 eV  762.60 nm  f=0.3839  <S**2>=0.000
     309 -> 315       -0.17883
     311 -> 313        0.68449
     309 <- 315       -0.11341
 This state for optimization and/or second-order correction.
 Total Energy, E(TD-HF/TD-DFT) =  -4070.55279380
 Copying the excited state density for this state as the 1-particle RhoCI density.

 Excited State   2:      Singlet-A      1.6367 eV  757.52 nm  f=0.4050  <S**2>=0.000
     310 -> 316       -0.18386
     312 -> 314        0.68400
     310 <- 316       -0.11738

 Excited State   3:      Singlet-A      2.1420 eV  578.82 nm  f=0.1163  <S**2>=0.000
     309 -> 313        0.64308
     311 -> 315        0.27658

 Excited State   4:      Singlet-A      2.1545 eV  575.48 nm  f=0.1366  <S**2>=0.000
     310 -> 314        0.64889
     312 -> 316        0.26854

 Excited State   5:      Singlet-A      3.4570 eV  358.64 nm  f=0.0012  <S**2>=0.000
     306 -> 314        0.14320
     308 -> 314        0.67092

 The electronic state is 1-A.
 Alpha  occ. eigenvalues --  -46.95459 -46.94880 -19.29679 -19.29063 -19.24825
 Alpha  occ. eigenvalues --  -19.24734 -19.24318 -19.24287 -19.24145 -19.23947
 Alpha  occ. eigenvalues --  -14.46800 -14.46795 -14.46335 -14.45879 -14.44764
 Alpha  occ. eigenvalues --  -14.44195 -14.43753 -14.43428 -10.43209 -10.42794
 Alpha  occ. eigenvalues --  -10.39489 -10.39387 -10.39279 -10.38702 -10.36085
 Alpha  occ. eigenvalues --  -10.35318 -10.35278 -10.35118 -10.34943 -10.34916
 Alpha  occ. eigenvalues --  -10.34864 -10.34688 -10.34666 -10.34361 -10.34217
 Alpha  occ. eigenvalues --  -10.34117 -10.34089 -10.34046 -10.33786 -10.33332
 Alpha  occ. eigenvalues --  -10.33298 -10.33089 -10.33009 -10.32954 -10.32924
 Alpha  occ. eigenvalues --  -10.32885 -10.32542 -10.32493 -10.32423 -10.32295
 Alpha  occ. eigenvalues --  -10.32250 -10.31832 -10.31815 -10.31782 -10.31766
 Alpha  occ. eigenvalues --  -10.31676 -10.31645 -10.31614 -10.31601 -10.31446
 Alpha  occ. eigenvalues --  -10.31120 -10.31021 -10.30903 -10.30866 -10.30837
 Alpha  occ. eigenvalues --  -10.30829 -10.30825 -10.30763 -10.30720 -10.30630
 Alpha  occ. eigenvalues --  -10.30529 -10.30402 -10.30336 -10.30210 -10.30016
 Alpha  occ. eigenvalues --  -10.29711 -10.29574 -10.29571 -10.29457 -10.29406
 Alpha  occ. eigenvalues --  -10.29360 -10.29328 -10.29129 -10.28808 -10.28758
 Alpha  occ. eigenvalues --  -10.28728  -3.21309  -3.20869  -1.94909  -1.94456
 Alpha  occ. eigenvalues --   -1.94388  -1.94309  -1.93971  -1.93859  -1.17952
 Alpha  occ. eigenvalues --   -1.17835  -1.13563  -1.13025  -1.12724  -1.12214
 Alpha  occ. eigenvalues --   -1.09641  -1.09048  -1.06303  -1.05799  -1.05318
 Alpha  occ. eigenvalues --   -1.04799  -1.04646  -1.04477  -1.03704  -1.03592
 Alpha  occ. eigenvalues --   -0.95329  -0.94979  -0.91122  -0.90807  -0.90633
 Alpha  occ. eigenvalues --   -0.90119  -0.89946  -0.89912  -0.89075  -0.89043
 Alpha  occ. eigenvalues --   -0.88806  -0.88741  -0.87952  -0.87520  -0.86257
 Alpha  occ. eigenvalues --   -0.85800  -0.85756  -0.85062  -0.84626  -0.84341
 Alpha  occ. eigenvalues --   -0.84048  -0.83940  -0.82841  -0.82638  -0.82018
 Alpha  occ. eigenvalues --   -0.81996  -0.80103  -0.80058  -0.79192  -0.78863
 Alpha  occ. eigenvalues --   -0.78712  -0.78545  -0.77858  -0.77450  -0.76738
 Alpha  occ. eigenvalues --   -0.76490  -0.74738  -0.74515  -0.73257  -0.72992
 Alpha  occ. eigenvalues --   -0.71547  -0.71043  -0.70647  -0.70405  -0.69875
 Alpha  occ. eigenvalues --   -0.69704  -0.69087  -0.68944  -0.67329  -0.66986
 Alpha  occ. eigenvalues --   -0.66835  -0.66653  -0.66546  -0.66333  -0.65890
 Alpha  occ. eigenvalues --   -0.65873  -0.64111  -0.63445  -0.62159  -0.62052
 Alpha  occ. eigenvalues --   -0.61605  -0.61445  -0.61061  -0.60785  -0.60753
 Alpha  occ. eigenvalues --   -0.60342  -0.60240  -0.59807  -0.59650  -0.58880
 Alpha  occ. eigenvalues --   -0.58073  -0.57855  -0.57720  -0.57646  -0.57024
 Alpha  occ. eigenvalues --   -0.56966  -0.56724  -0.56353  -0.56177  -0.56037
 Alpha  occ. eigenvalues --   -0.55589  -0.55568  -0.55495  -0.55322  -0.55245
 Alpha  occ. eigenvalues --   -0.54859  -0.54759  -0.54598  -0.54286  -0.53874
 Alpha  occ. eigenvalues --   -0.53815  -0.53666  -0.53538  -0.53321  -0.53265
 Alpha  occ. eigenvalues --   -0.52916  -0.52700  -0.52428  -0.52328  -0.52078
 Alpha  occ. eigenvalues --   -0.51838  -0.51705  -0.51594  -0.51559  -0.51397
 Alpha  occ. eigenvalues --   -0.51225  -0.51198  -0.51043  -0.50961  -0.50745
 Alpha  occ. eigenvalues --   -0.50566  -0.50322  -0.50077  -0.49895  -0.49794
 Alpha  occ. eigenvalues --   -0.49720  -0.49640  -0.49350  -0.49112  -0.48946
 Alpha  occ. eigenvalues --   -0.48656  -0.48647  -0.48309  -0.48265  -0.47961
 Alpha  occ. eigenvalues --   -0.47829  -0.47806  -0.47646  -0.47338  -0.47197
 Alpha  occ. eigenvalues --   -0.47169  -0.47095  -0.46942  -0.46905  -0.46762
 Alpha  occ. eigenvalues --   -0.46704  -0.46632  -0.46387  -0.46317  -0.46137
 Alpha  occ. eigenvalues --   -0.45939  -0.45758  -0.45532  -0.45439  -0.45362
 Alpha  occ. eigenvalues --   -0.45145  -0.45081  -0.44979  -0.44806  -0.44657
 Alpha  occ. eigenvalues --   -0.44622  -0.44458  -0.44254  -0.43974  -0.43776
 Alpha  occ. eigenvalues --   -0.43755  -0.43562  -0.43433  -0.43197  -0.43028
 Alpha  occ. eigenvalues --   -0.43002  -0.42790  -0.42674  -0.42374  -0.42314
 Alpha  occ. eigenvalues --   -0.41872  -0.41202  -0.40826  -0.40685  -0.40350
 Alpha  occ. eigenvalues --   -0.39970  -0.39915  -0.39890  -0.39679  -0.39655
 Alpha  occ. eigenvalues --   -0.38974  -0.38616  -0.38490  -0.38437  -0.38310
 Alpha  occ. eigenvalues --   -0.37768  -0.37715  -0.36548  -0.36306  -0.36057
 Alpha  occ. eigenvalues --   -0.35909  -0.34879  -0.34851  -0.33561  -0.33514
 Alpha  occ. eigenvalues --   -0.33455  -0.33393  -0.32814  -0.32554  -0.32463
 Alpha  occ. eigenvalues --   -0.32271  -0.32178  -0.31903  -0.25732  -0.25481
 Alpha  occ. eigenvalues --   -0.22744  -0.22743
 Alpha virt. eigenvalues --   -0.07022  -0.06872   0.00456   0.00820   0.02227
 Alpha virt. eigenvalues --    0.02959   0.03984   0.04746   0.05526   0.05676
 Alpha virt. eigenvalues --    0.07380   0.07515   0.07781   0.08161   0.08209

 Mulliken charges:
               1
     1  Mg   0.955667
     2  C   -0.016120
     3  C   -0.071960
     4  C   -0.061417
     5  C   -0.075445
     6  N   -0.370261
     7  C   -0.076478
     8  C   -0.019260
     9  C   -0.128272
    10  C    0.112596
    11  C    0.004219
    12  C    0.005697
    13  C   -0.087408
    14  H    0.044123
    15  N   -0.442710
    16  C    0.155491
    17  C   -0.170708
    18  C   -0.084790
    19  C    0.094769
    20  C    0.080165
    21  C    0.058995
    22  O   -0.231344
    23  C   -0.015731
    24  N   -0.372802
    25  C    0.091406
    26  C   -0.107474
    27  C   -0.062910
    28  C    0.055602
    29  C    0.009056
    30  C    0.009704
    31  C   -0.064279
    32  N   -0.405464
    33  C    0.114637
    34  C   -0.207781
    35  C   -0.016149
    36  C    0.137267
    37  C    0.069688
    38  C    0.119879
    39  O   -0.196957
    40  C   -0.032959
    41  C    0.261298
    42  O   -0.260812
    43  O   -0.368886
    44  C    0.150878
    45  H   -0.002616
    46  H    0.022747
    47  H   -0.005009
    48  H    0.035160
    49  H    0.041301
    50  H    0.033187
    51  H    0.028443
    52  H    0.050190
    53  H    0.018853
    54  H    0.026424
    55  H    0.050768
    56  H    0.056870
    57  H    0.044930
    58  H    0.041666
    59  H    0.050599
    60  H    0.068917
    61  H    0.058667
    62  H    0.044879
    63  H    0.042178
    64  H    0.041175
    65  H    0.028399
    66  H    0.042390
    67  H    0.055130
    68  H    0.035736
    69  H    0.040899
    70  H    0.024682
    71  H    0.026461
    72  H    0.047223
    73  H    0.017824
    74  H    0.060215
    75  H    0.049688
    76  H    0.082126
    77  H    0.044812
    78  H    0.059110
    79  H    0.053217
    80  Mg   0.977256
    81  C   -0.038634
    82  C   -0.071953
    83  C   -0.068441
    84  C   -0.096205
    85  N   -0.383190
    86  C   -0.009736
    87  C   -0.026911
    88  C   -0.121356
    89  C    0.109324
    90  C   -0.013731
    91  C   -0.019349
    92  C   -0.123099
    93  H    0.029463
    94  N   -0.491530
    95  C    0.111791
    96  C   -0.136077
    97  C   -0.128113
    98  C    0.164509
    99  C    0.081551
   100  C    0.041298
   101  O   -0.208234
   102  C   -0.027695
   103  N   -0.339007
   104  C    0.031238
   105  C   -0.031761
   106  C   -0.109763
   107  C    0.026796
   108  C    0.019878
   109  C   -0.035796
   110  C   -0.029322
   111  N   -0.401466
   112  C    0.165306
   113  C   -0.241972
   114  C    0.014037
   115  C    0.138334
   116  C    0.096245
   117  C    0.119912
   118  O   -0.173068
   119  C   -0.118366
   120  C    0.285139
   121  O   -0.233273
   122  O   -0.386704
   123  C    0.128170
   124  H   -0.028676
   125  H    0.025139
   126  H    0.001771
   127  H    0.050847
   128  H    0.047824
   129  H    0.031107
   130  H    0.050465
   131  H    0.042781
   132  H    0.033703
   133  H    0.059762
   134  H    0.061091
   135  H    0.063966
   136  H    0.057843
   137  H    0.039855
   138  H    0.047091
   139  H    0.079779
   140  H    0.047430
   141  H    0.039926
   142  H    0.038813
   143  H    0.032527
   144  H    0.032670
   145  H    0.039112
   146  H    0.051671
   147  H    0.028485
   148  H    0.032764
   149  H    0.031883
   150  H    0.042781
   151  H    0.037477
   152  H    0.058712
   153  H    0.027650
   154  H    0.045756
   155  H    0.081057
   156  H    0.063691
   157  H    0.072763
   158  H    0.054989
 Sum of Mulliken charges =  -0.00000

 Dipole moment (field-independent basis, Debye):
    X=             -6.0545    Y=              0.5551    Z=              3.4644  Tot=              6.9977
 Quadrupole moment (field-independent basis, Debye-Ang):
   XX=           -316.5539   YY=           -492.8341   ZZ=           -484.6308
   XY=            -30.7081   XZ=             76.8593   YZ=             42.6711

 Normal termination of Gaussian 16 at Sun Sep 19 23:13:12 2021.
