 Gaussian 16, Revision A.03,
 Gaussian 16:  ES64L-G16RevA.03 25-Dec-2016

 --------------------------------
 #p wB97XD/Def2SVP td=(nstates=5)
 --------------------------------

 --------------------------------
 TDDFT excited states in gaussian
 --------------------------------
 Symbolic Z-matrix:
 Charge =  0 Multiplicity = 1

                         Standard orientation:
 ---------------------------------------------------------------------
 Center     Atomic      Atomic             Coordinates (Angstroms)
 Number     Number       Type             X           Y           Z
 ---------------------------------------------------------------------
      1         12           0        9.226556   -0.322606   -0.251898
      2          6           0        7.176194    2.427865   -0.278399
      3          6           0       11.813799    1.694274    0.745998
      4          6           0       11.341039   -3.070566   -0.328252
      5          6           0        6.702176   -2.222171   -1.680015
      6          7           0        9.511071    1.866568    0.150015
      7          6           0        8.466974    2.747066    0.146731
      8          6           0        8.900139    4.071255    0.554975
      9          6           0       10.410932    3.977687    0.699097
     10          6           0       10.649882    2.418131    0.493051
     11          6           0       11.313847    4.850237   -0.239700
     12          6           0        8.167973    4.545090    1.856491
     13          6           0        7.883868    6.080641    1.995553
     14          1           0        8.854187    7.043705    1.283777
     15          7           0       11.277668   -0.633170    0.272948
     16          6           0       12.157205    0.355231    0.680252
     17          6           0       13.480298   -0.254224    0.924125
     18          6           0       13.355792   -1.677087    0.614685
     19          6           0       11.957198   -1.860516    0.189467
     20          6           0       14.715967    0.510791    1.369311
     21          6           0       14.391262   -2.758373    0.818236
     22          8           0       14.086946   -3.939164    0.574174
     23          6           0       15.785749   -2.520523    1.263087
     24          7           0        9.087098   -2.344056   -0.979089
     25          6           0       10.059827   -3.248646   -0.835323
     26          6           0        9.568646   -4.647283   -1.244316
     27          6           0        7.967355   -4.469840   -1.456709
     28          6           0        7.898136   -2.911840   -1.281743
     29          6           0       10.339380   -5.178053   -2.492203
     30          6           0        7.070604   -5.182457   -0.407506
     31          6           0        6.241863   -6.364262   -0.932778
     32          7           0        7.322752    0.002683   -0.940367
     33          6           0        6.394897   -0.864976   -1.521127
     34          6           0        5.136549   -0.143466   -1.813915
     35          6           0        5.450111    1.153086   -1.342266
     36          6           0        6.777069    1.190128   -0.836448
     37          6           0        3.904469   -0.665948   -2.369341
     38          6           0        4.864473    2.485352   -1.086836
     39          8           0        3.752944    2.914105   -1.249365
     40          6           0        5.984785    3.365516   -0.426616
     41          6           0        6.133165    4.598416   -1.216371
     42          8           0        6.655343    4.562254   -2.342226
     43          8           0        5.791002    5.742628   -0.563019
     44          6           0        6.094896    7.025341   -1.189479
     45          1           0       12.615739    2.363574    1.064431
     46          1           0       12.031640   -3.915135   -0.380347
     47          1           0        5.900445   -2.886971   -2.007920
     48          1           0        8.660422    4.764264   -0.252219
     49          1           0       10.719131    4.104868    1.737507
     50          1           0       10.888489    5.540530   -0.968894
     51          1           0       11.971823    4.177193   -0.788863
     52          1           0       12.046341    5.451895    0.298976
     53          1           0        8.691343    4.159206    2.731375
     54          1           0        7.259353    3.956299    1.980920
     55          1           0        7.852971    6.360098    3.049047
     56          1           0        6.949030    6.383466    1.524808
     57          1           0       14.511957    1.550140    1.624357
     58          1           0       15.459598    0.552585    0.572970
     59          1           0       15.061554    0.134210    2.331880
     60          1           0       16.236546   -3.503736    1.394477
     61          1           0       15.856472   -1.947383    2.188464
     62          1           0       16.293782   -1.883986    0.538439
     63          1           0        9.664134   -5.283620   -0.364414
     64          1           0        7.649923   -4.721311   -2.468627
     65          1           0       10.723511   -6.190552   -2.367436
     66          1           0       11.197895   -4.544326   -2.716227
     67          1           0        9.619692   -5.080765   -3.305376
     68          1           0        6.357027   -4.514684    0.073733
     69          1           0        7.653029   -5.567402    0.429858
     70          1           0        6.754556   -6.817777   -1.781131
     71          1           0        5.285215   -5.974647   -1.279383
     72          1           0        6.046555   -7.010330   -0.077877
     73          1           0        3.045243   -0.027119   -2.166266
     74          1           0        3.664049   -1.668978   -2.017428
     75          1           0        3.967834   -0.573732   -3.453681
     76          1           0        5.557454    3.531570    0.562863
     77          1           0        5.535161    7.221494   -2.104392
     78          1           0        7.169197    7.148364   -1.326422
     79          1           0        5.788945    7.833918   -0.525811
     80         12           0       -8.878437   -1.057027    0.539781
     81          6           0      -10.280121    1.938738   -0.677959
     82          6           0       -7.488544    0.828602    3.080888
     83          6           0       -7.358086   -3.856492    1.767020
     84          6           0      -10.002990   -2.701572   -2.162093
     85          7           0       -8.915316    1.157819    1.157808
     86          6           0       -9.660945    2.188795    0.598947
     87          6           0       -9.650452    3.401962    1.507177
     88          6           0       -8.461400    3.113299    2.494081
     89          6           0       -8.298686    1.631611    2.239397
     90          6           0       -7.166425    3.991729    2.282769
     91          6           0      -10.954268    3.575917    2.300246
     92          6           0      -11.407087    5.024517    2.512096
     93          1           0      -10.572912    5.930745    3.459711
     94          7           0       -7.681987   -1.484648    2.229540
     95          6           0       -7.224923   -0.536532    3.079636
     96          6           0       -6.334635   -1.151294    4.009880
     97          6           0       -6.345116   -2.571893    3.788924
     98          6           0       -7.091832   -2.672762    2.547425
     99          6           0       -5.598670   -0.360294    5.055471
    100          6           0       -5.641075   -3.721866    4.509415
    101          8           0       -5.913581   -4.917496    4.262916
    102          6           0       -4.513585   -3.495864    5.510291
    103          7           0       -8.785489   -2.994102   -0.053611
    104          6           0       -8.040248   -3.998071    0.557341
    105          6           0       -8.132249   -5.241591   -0.266076
    106          6           0       -9.032716   -4.968651   -1.524218
    107          6           0       -9.351304   -3.490164   -1.248959
    108          6           0       -6.765841   -5.931060   -0.559456
    109          6           0      -10.309500   -5.830537   -1.629709
    110          6           0      -10.143814   -7.066832   -2.534463
    111          7           0       -9.866044   -0.555472   -1.098519
    112          6           0      -10.352183   -1.330678   -2.150394
    113          6           0      -11.181739   -0.531655   -3.126704
    114          6           0      -11.111690    0.747435   -2.551239
    115          6           0      -10.372050    0.682353   -1.326846
    116          6           0      -11.869785   -1.050446   -4.376201
    117          6           0      -11.567626    2.112350   -2.766873
    118          8           0      -12.216321    2.611720   -3.687130
    119          6           0      -11.125712    2.900398   -1.461462
    120          6           0      -10.378848    4.147062   -1.975085
    121          8           0       -9.604879    4.190694   -2.909028
    122          8           0      -10.863301    5.264385   -1.297644
    123          6           0      -10.220719    6.509865   -1.717539
    124          1           0       -7.131482    1.438959    3.912781
    125          1           0       -6.925238   -4.811133    2.072477
    126          1           0      -10.223650   -3.277961   -3.062563
    127          1           0       -9.438893    4.344698    1.003205
    128          1           0       -8.690740    3.285745    3.545670
    129          1           0       -7.254610    4.789521    1.544744
    130          1           0       -6.271373    3.468343    1.947393
    131          1           0       -6.908523    4.523886    3.198424
    132          1           0      -10.885534    3.110356    3.283150
    133          1           0      -11.790527    3.117054    1.772403
    134          1           0      -12.452534    5.083783    2.814485
    135          1           0      -11.447354    5.567691    1.568162
    136          1           0       -5.176236    0.450579    4.461872
    137          1           0       -4.758026   -0.839979    5.556581
    138          1           0       -6.231078    0.077661    5.827375
    139          1           0       -3.757531   -2.826831    5.099012
    140          1           0       -4.144892   -4.509746    5.665204
    141          1           0       -4.886015   -3.031712    6.423497
    142          1           0       -8.543617   -6.013684    0.384827
    143          1           0       -8.512688   -5.001490   -2.482475
    144          1           0       -5.981056   -5.302156   -0.138544
    145          1           0       -6.624247   -5.984025   -1.638590
    146          1           0       -6.840224   -6.889651   -0.044878
    147          1           0      -11.128877   -5.162677   -1.894650
    148          1           0      -10.542619   -6.296911   -0.672250
    149          1           0       -9.090683   -7.342495   -2.592856
    150          1           0      -10.413905   -6.944309   -3.583503
    151          1           0      -10.669405   -7.898509   -2.064306
    152          1           0      -12.722956   -1.645179   -4.049395
    153          1           0      -11.267964   -1.701459   -5.010001
    154          1           0      -12.198850   -0.164396   -4.918861
    155          1           0      -11.935631    3.219862   -0.805931
    156          1           0       -9.324427    6.774494   -1.155720
    157          1           0      -11.006474    7.256385   -1.602632
    158          1           0       -9.850337    6.599285   -2.738761
 ---------------------------------------------------------------------

 SCF Done:  E(RwB97XD) =  -4070.67716551     A.U. after   19 cycles

 Excitation energies and oscillator strengths:

 Excited State   1:      Singlet-A      1.6471 eV  752.76 nm  f=0.4619  <S**2>=0.000
     310 -> 316        0.18965
     311 -> 313        0.67439
     310 <- 316        0.11731
 This state for optimization and/or second-order correction.
 Total Energy, E(TD-HF/TD-DFT) =  -4070.61663696
 Copying the excited state density for this state as the 1-particle RhoCI density.

 Excited State   2:      Singlet-A      1.6700 eV  742.44 nm  f=0.3086  <S**2>=0.000
     309 -> 315       -0.19278
     312 -> 314        0.67318
     309 <- 315       -0.11750

 Excited State   3:      Singlet-A      2.1797 eV  568.81 nm  f=0.0817  <S**2>=0.000
     310 -> 313        0.63269
     311 -> 316       -0.29924

 Excited State   4:      Singlet-A      2.1972 eV  564.29 nm  f=0.0921  <S**2>=0.000
     309 -> 314        0.62245
     312 -> 315        0.31760

 Excited State   5:      Singlet-A      3.4962 eV  354.62 nm  f=0.0000  <S**2>=0.000
     312 -> 313        0.70684

 The electronic state is 1-A.
 Alpha  occ. eigenvalues --  -46.95267 -46.93891 -19.31248 -19.30869 -19.25220
 Alpha  occ. eigenvalues --  -19.24312 -19.24196 -19.24142 -19.24037 -19.23449
 Alpha  occ. eigenvalues --  -14.47191 -14.46453 -14.46336 -14.45785 -14.44393
 Alpha  occ. eigenvalues --  -14.44166 -14.44009 -14.43880 -10.43473 -10.43423
 Alpha  occ. eigenvalues --  -10.39789 -10.38998 -10.38975 -10.38927 -10.36132
 Alpha  occ. eigenvalues --  -10.35354 -10.35108 -10.34964 -10.34802 -10.34743
 Alpha  occ. eigenvalues --  -10.34737 -10.34714 -10.34707 -10.34471 -10.34226
 Alpha  occ. eigenvalues --  -10.34188 -10.34164 -10.34118 -10.33995 -10.33559
 Alpha  occ. eigenvalues --  -10.33389 -10.33367 -10.33096 -10.32994 -10.32831
 Alpha  occ. eigenvalues --  -10.32790 -10.32742 -10.32726 -10.32585 -10.32565
 Alpha  occ. eigenvalues --  -10.32487 -10.32382 -10.32332 -10.32119 -10.32001
 Alpha  occ. eigenvalues --  -10.31943 -10.31822 -10.31703 -10.31598 -10.31503
 Alpha  occ. eigenvalues --  -10.31468 -10.31374 -10.31312 -10.31212 -10.31153
 Alpha  occ. eigenvalues --  -10.31075 -10.31069 -10.30926 -10.30571 -10.30337
 Alpha  occ. eigenvalues --  -10.30255 -10.30191 -10.30160 -10.30144 -10.30007
 Alpha  occ. eigenvalues --  -10.29976 -10.29967 -10.29958 -10.29945 -10.29883
 Alpha  occ. eigenvalues --  -10.29624 -10.29463 -10.29392 -10.29363 -10.29313
 Alpha  occ. eigenvalues --  -10.29186  -3.21137  -3.20086  -1.94748  -1.94243
 Alpha  occ. eigenvalues --   -1.94113  -1.93680  -1.93190  -1.93104  -1.18673
 Alpha  occ. eigenvalues --   -1.18346  -1.13244  -1.11349  -1.11174  -1.11095
 Alpha  occ. eigenvalues --   -1.10263  -1.09366  -1.07165  -1.06626  -1.06104
 Alpha  occ. eigenvalues --   -1.05650  -1.05441  -1.04980  -1.03358  -1.03051
 Alpha  occ. eigenvalues --   -0.94507  -0.94442  -0.91193  -0.91068  -0.90832
 Alpha  occ. eigenvalues --   -0.90210  -0.90129  -0.89633  -0.89309  -0.89171
 Alpha  occ. eigenvalues --   -0.88897  -0.88705  -0.88254  -0.87992  -0.86225
 Alpha  occ. eigenvalues --   -0.85937  -0.85492  -0.85355  -0.84257  -0.84121
 Alpha  occ. eigenvalues --   -0.83834  -0.83593  -0.83205  -0.82826  -0.82559
 Alpha  occ. eigenvalues --   -0.81952  -0.80448  -0.80342  -0.79540  -0.79299
 Alpha  occ. eigenvalues --   -0.79290  -0.79095  -0.78197  -0.77983  -0.76913
 Alpha  occ. eigenvalues --   -0.76860  -0.74642  -0.74581  -0.73538  -0.73535
 Alpha  occ. eigenvalues --   -0.71260  -0.71228  -0.70661  -0.70304  -0.70074
 Alpha  occ. eigenvalues --   -0.70068  -0.69241  -0.68972  -0.67829  -0.67623
 Alpha  occ. eigenvalues --   -0.67378  -0.67361  -0.67096  -0.66398  -0.66378
 Alpha  occ. eigenvalues --   -0.66065  -0.64764  -0.64452  -0.62266  -0.62061
 Alpha  occ. eigenvalues --   -0.61887  -0.61610  -0.61265  -0.60845  -0.60769
 Alpha  occ. eigenvalues --   -0.60388  -0.60263  -0.59601  -0.59406  -0.59323
 Alpha  occ. eigenvalues --   -0.58088  -0.57947  -0.57888  -0.57397  -0.57370
 Alpha  occ. eigenvalues --   -0.56989  -0.56727  -0.56429  -0.55970  -0.55654
 Alpha  occ. eigenvalues --   -0.55441  -0.55337  -0.55003  -0.54919  -0.54774
 Alpha  occ. eigenvalues --   -0.54739  -0.54427  -0.54388  -0.54195  -0.54027
 Alpha  occ. eigenvalues --   -0.53685  -0.53605  -0.53588  -0.53452  -0.53282
 Alpha  occ. eigenvalues --   -0.53129  -0.53068  -0.52303  -0.52171  -0.52120
 Alpha  occ. eigenvalues --   -0.51953  -0.51911  -0.51859  -0.51643  -0.51340
 Alpha  occ. eigenvalues --   -0.51180  -0.50976  -0.50931  -0.50766  -0.50501
 Alpha  occ. eigenvalues --   -0.50431  -0.50312  -0.50108  -0.50071  -0.49901
 Alpha  occ. eigenvalues --   -0.49891  -0.49492  -0.49451  -0.49238  -0.49205
 Alpha  occ. eigenvalues --   -0.49110  -0.48692  -0.48662  -0.48505  -0.48359
 Alpha  occ. eigenvalues --   -0.48221  -0.48119  -0.47857  -0.47739  -0.47676
 Alpha  occ. eigenvalues --   -0.47494  -0.47362  -0.47207  -0.46892  -0.46746
 Alpha  occ. eigenvalues --   -0.46521  -0.46491  -0.46368  -0.46299  -0.46212
 Alpha  occ. eigenvalues --   -0.46172  -0.45802  -0.45605  -0.45439  -0.45430
 Alpha  occ. eigenvalues --   -0.45298  -0.45140  -0.45038  -0.45005  -0.44859
 Alpha  occ. eigenvalues --   -0.44594  -0.44539  -0.44202  -0.44128  -0.43851
 Alpha  occ. eigenvalues --   -0.43778  -0.43651  -0.43422  -0.43414  -0.43185
 Alpha  occ. eigenvalues --   -0.43028  -0.42892  -0.42889  -0.42634  -0.42323
 Alpha  occ. eigenvalues --   -0.42283  -0.42060  -0.41910  -0.41526  -0.41449
 Alpha  occ. eigenvalues --   -0.40525  -0.40146  -0.40125  -0.39776  -0.39474
 Alpha  occ. eigenvalues --   -0.39257  -0.39193  -0.38828  -0.38766  -0.38749
 Alpha  occ. eigenvalues --   -0.38623  -0.37981  -0.37060  -0.36847  -0.36068
 Alpha  occ. eigenvalues --   -0.35969  -0.35411  -0.35003  -0.33431  -0.33326
 Alpha  occ. eigenvalues --   -0.33068  -0.32935  -0.32845  -0.32755  -0.32589
 Alpha  occ. eigenvalues --   -0.32278  -0.32115  -0.31745  -0.25845  -0.25781
 Alpha  occ. eigenvalues --   -0.22795  -0.22651
 Alpha virt. eigenvalues --   -0.06825  -0.06700   0.00139   0.00230   0.02129
 Alpha virt. eigenvalues --    0.02541   0.03935   0.04638   0.06061   0.06555
 Alpha virt. eigenvalues --    0.06871   0.07221   0.07525   0.07873   0.08416

 Mulliken charges:
               1
     1  Mg   0.952284
     2  C   -0.030018
     3  C   -0.087630
     4  C   -0.053668
     5  C   -0.078969
     6  N   -0.317056
     7  C   -0.009241
     8  C   -0.053991
     9  C   -0.041599
    10  C   -0.008944
    11  C    0.019947
    12  C    0.021330
    13  C   -0.115172
    14  H    0.015907
    15  N   -0.461285
    16  C    0.197405
    17  C   -0.169585
    18  C   -0.061076
    19  C    0.119824
    20  C    0.061098
    21  C    0.038414
    22  O   -0.262735
    23  C    0.013562
    24  N   -0.333143
    25  C    0.064337
    26  C   -0.091923
    27  C   -0.098929
    28  C    0.041188
    29  C    0.031102
    30  C   -0.015277
    31  C   -0.053786
    32  N   -0.449185
    33  C    0.129818
    34  C   -0.162227
    35  C   -0.055580
    36  C    0.144895
    37  C    0.075941
    38  C    0.096255
    39  O   -0.184016
    40  C   -0.042190
    41  C    0.280731
    42  O   -0.275806
    43  O   -0.352637
    44  C    0.140982
    45  H   -0.023834
    46  H    0.028276
    47  H   -0.002211
    48  H    0.046007
    49  H    0.034364
    50  H    0.048946
    51  H    0.031269
    52  H    0.026861
    53  H    0.018504
    54  H    0.024476
    55  H    0.054805
    56  H    0.066812
    57  H    0.025616
    58  H    0.064322
    59  H    0.051442
    60  H    0.063739
    61  H    0.041542
    62  H    0.053111
    63  H    0.040565
    64  H    0.038525
    65  H    0.048320
    66  H    0.046095
    67  H    0.029846
    68  H    0.031569
    69  H    0.025689
    70  H    0.040692
    71  H    0.032270
    72  H    0.041601
    73  H    0.049758
    74  H    0.047498
    75  H    0.057928
    76  H    0.066332
    77  H    0.067458
    78  H    0.052586
    79  H    0.049868
    80  Mg   1.001752
    81  C   -0.064508
    82  C   -0.110384
    83  C   -0.083630
    84  C   -0.100722
    85  N   -0.307787
    86  C    0.022755
    87  C   -0.031937
    88  C   -0.097795
    89  C    0.019017
    90  C    0.007722
    91  C    0.023294
    92  C   -0.123337
    93  H    0.016946
    94  N   -0.428004
    95  C    0.224119
    96  C   -0.180124
    97  C   -0.043126
    98  C    0.127852
    99  C    0.061607
   100  C    0.049179
   101  O   -0.257904
   102  C   -0.023845
   103  N   -0.456665
   104  C    0.108866
   105  C   -0.100285
   106  C   -0.055434
   107  C    0.059423
   108  C    0.015914
   109  C    0.000339
   110  C   -0.055577
   111  N   -0.483278
   112  C    0.140308
   113  C   -0.167171
   114  C   -0.071707
   115  C    0.182651
   116  C    0.080925
   117  C    0.161400
   118  O   -0.208618
   119  C   -0.106007
   120  C    0.266372
   121  O   -0.223384
   122  O   -0.369824
   123  C    0.126310
   124  H   -0.008970
   125  H    0.016033
   126  H   -0.010596
   127  H    0.030848
   128  H    0.039686
   129  H    0.034626
   130  H    0.042890
   131  H    0.034123
   132  H    0.040499
   133  H    0.036776
   134  H    0.048306
   135  H    0.050405
   136  H    0.046888
   137  H    0.026743
   138  H    0.058448
   139  H    0.061649
   140  H    0.063301
   141  H    0.063525
   142  H    0.042554
   143  H    0.042953
   144  H    0.043697
   145  H    0.034028
   146  H    0.043284
   147  H    0.037026
   148  H    0.027879
   149  H    0.024460
   150  H    0.041168
   151  H    0.040732
   152  H    0.050337
   153  H    0.047763
   154  H    0.066174
   155  H    0.072750
   156  H    0.043487
   157  H    0.055404
   158  H    0.065435
 Sum of Mulliken charges =  -0.00000

 Dipole moment (field-independent basis, Debye):
    X=              4.0672    Y=              1.7020    Z=              6.6313  Tot=              7.9632
 Quadrupole moment (field-independent basis, Debye-Ang):
   XX=           -499.3205   YY=           -477.2554   ZZ=           -516.2564
   XY=             47.1762   XZ=             -8.7856   YZ=             49.1016

 Normal termination of Gaussian 16 at Mon Sep 20 00:19:15 2021.
