 Gaussian 16, Revision A.03,
 Gaussian 16:  ES64L-G16RevA.03 25-Dec-2016

 --------------------------------
 #p wB97XD/Def2SVP td=(nstates=5)
 --------------------------------

 --------------------------------
 TDDFT excited states in gaussian
 --------------------------------
 Symbolic Z-matrix:
 Charge =  0 Multiplicity = 1

                         Standard orientation:
 ---------------------------------------------------------------------
 Center     Atomic      Atomic             Coordinates (Angstroms)
 Number     Number       Type             X           Y           Z
 ---------------------------------------------------------------------
      1         12           0       30.397429    0.381470   -0.601209
      2          6           0       27.593322   -1.806873   -0.760201
      3          6           0       28.325170    3.040326   -1.208648
      4          6           0       32.888103    2.531835    0.590230
      5          6           0       32.335059   -2.297381    0.589510
      6          7           0       28.068743    0.525586   -0.692482
      7          6           0       27.202115   -0.461718   -0.971646
      8          6           0       25.968714    0.124667   -1.633794
      9          6           0       26.157581    1.714918   -1.725256
     10          6           0       27.711479    1.723351   -1.296424
     11          6           0       25.910438    2.162376   -3.183501
     12          6           0       24.710658   -0.259037   -0.871460
     13          6           0       24.811986   -0.292066    0.672053
     14          1           0       24.108146    0.856313    1.445431
     15          7           0       30.626373    2.542147   -0.419793
     16          6           0       29.605184    3.415377   -0.725296
     17          6           0       30.178312    4.722709   -0.651930
     18          6           0       31.487450    4.658872   -0.038972
     19          6           0       31.770755    3.203417    0.039539
     20          6           0       29.382637    5.977331   -0.928573
     21          6           0       32.313681    5.811174    0.534560
     22          8           0       31.864047    6.940926    0.535124
     23          6           0       33.616997    5.641182    1.103642
     24          7           0       32.290690    0.169177    0.533452
     25          6           0       33.144031    1.161360    0.739811
     26          6           0       34.416846    0.724851    1.446864
     27          6           0       34.039768   -0.786573    1.761539
     28          6           0       32.868847   -1.031649    0.879738
     29          6           0       35.742127    0.874953    0.551674
     30          6           0       33.796089   -0.987717    3.327864
     31          6           0       34.750270   -1.807619    4.149335
     32          7           0       30.158079   -1.604380   -0.404934
     33          6           0       31.081916   -2.598972   -0.024403
     34          6           0       30.492672   -3.942190   -0.178010
     35          6           0       29.167229   -3.631049   -0.480910
     36          6           0       28.930498   -2.212080   -0.497472
     37          6           0       31.184900   -5.348270   -0.136518
     38          6           0       27.874440   -4.268317   -0.751028
     39          8           0       27.513196   -5.453665   -0.836812
     40          6           0       26.811178   -3.139920   -0.959358
     41          6           0       25.906516   -3.433411    0.187323
     42          8           0       26.235543   -3.454686    1.345633
     43          8           0       24.707583   -3.796512   -0.259259
     44          6           0       23.601114   -4.058711    0.726088
     45          1           0       27.753103    3.837946   -1.686871
     46          1           0       33.769543    3.076792    0.933969
     47          1           0       32.978623   -3.033056    1.077489
     48          1           0       26.029892   -0.412078   -2.580534
     49          1           0       25.517197    2.253386   -1.026134
     50          1           0       25.081964    2.870423   -3.184581
     51          1           0       25.619979    1.358769   -3.860713
     52          1           0       26.819697    2.676698   -3.493502
     53          1           0       24.381763   -1.249194   -1.187043
     54          1           0       23.912266    0.457672   -1.066006
     55          1           0       25.798193   -0.165487    1.118465
     56          1           0       24.384800   -1.255761    0.949610
     57          1           0       28.337346    5.755397   -1.145060
     58          1           0       29.905689    6.533102   -1.707555
     59          1           0       29.491294    6.625955   -0.060037
     60          1           0       33.657567    5.031964    2.006842
     61          1           0       34.025070    6.617294    1.365211
     62          1           0       34.159030    5.128023    0.308568
     63          1           0       34.565329    1.189356    2.421363
     64          1           0       34.991661   -1.282512    1.570834
     65          1           0       35.486175    1.338712   -0.401411
     66          1           0       36.103699   -0.132078    0.342826
     67          1           0       36.578664    1.397281    1.018429
     68          1           0       32.881219   -1.549793    3.515795
     69          1           0       33.715612   -0.028203    3.836860
     70          1           0       34.394259   -2.815027    4.365085
     71          1           0       34.762904   -1.207008    5.059441
     72          1           0       35.792671   -1.749564    3.835643
     73          1           0       31.389316   -5.584369    0.907429
     74          1           0       32.068596   -5.287734   -0.771960
     75          1           0       30.468600   -6.092929   -0.483173
     76          1           0       26.401453   -3.296102   -1.957949
     77          1           0       23.616696   -5.075712    1.118625
     78          1           0       22.622830   -3.893876    0.272717
     79          1           0       23.753892   -3.321464    1.514247
     80         12           0      -30.187890    0.296464    0.536688
     81          6           0      -28.121199   -1.671169   -1.669445
     82          6           0      -30.533287    2.569898   -2.110863
     83          6           0      -32.168588    2.042597    2.488033
     84          6           0      -29.461145   -1.931612    3.130651
     85          7           0      -29.349534    0.393818   -1.668891
     86          6           0      -28.737743   -0.589961   -2.379624
     87          6           0      -28.740065   -0.300024   -3.871729
     88          6           0      -29.216116    1.255327   -3.968615
     89          6           0      -29.706751    1.439849   -2.503499
     90          6           0      -28.130593    2.242288   -4.466353
     91          6           0      -29.654361   -1.283519   -4.677571
     92          6           0      -28.916219   -2.048007   -5.806898
     93          1           0      -29.459890   -1.690872   -7.308021
     94          7           0      -31.182830    2.005027    0.236432
     95          6           0      -31.219276    2.875399   -0.905181
     96          6           0      -32.092993    4.057597   -0.716646
     97          6           0      -32.592912    3.836439    0.608377
     98          6           0      -31.990598    2.607275    1.151294
     99          6           0      -32.302562    5.168348   -1.747804
    100          6           0      -33.481719    4.705507    1.413965
    101          8           0      -34.066755    4.374141    2.439483
    102          6           0      -33.819568    6.102970    0.858387
    103          7           0      -30.848048   -0.022482    2.434715
    104          6           0      -31.654671    0.867336    3.056901
    105          6           0      -31.778114    0.615257    4.533906
    106          6           0      -30.962211   -0.679224    4.771882
    107          6           0      -30.415298   -0.958916    3.353878
    108          6           0      -31.410566    1.793565    5.411193
    109          6           0      -31.940976   -1.895227    5.276285
    110          6           0      -31.497838   -2.629876    6.655484
    111          7           0      -28.819310   -1.308405    0.806060
    112          6           0      -28.720374   -2.162171    1.931022
    113          6           0      -27.808181   -3.256784    1.580496
    114          6           0      -27.691434   -3.146362    0.169872
    115          6           0      -28.207698   -1.909015   -0.217966
    116          6           0      -27.176368   -4.326924    2.465622
    117          6           0      -26.937359   -3.733631   -0.973481
    118          8           0      -26.130599   -4.693268   -1.120724
    119          6           0      -27.319062   -2.837257   -2.214331
    120          6           0      -26.053501   -2.395734   -2.888315
    121          8           0      -25.086059   -1.989180   -2.309385
    122          8           0      -26.140406   -2.642453   -4.230336
    123          6           0      -24.823653   -2.554715   -4.910790
    124          1           0      -30.498147    3.307002   -2.915528
    125          1           0      -32.814090    2.579124    3.186970
    126          1           0      -29.250168   -2.661448    3.914747
    127          1           0      -27.698168   -0.350620   -4.188049
    128          1           0      -30.102210    1.382773   -4.591043
    129          1           0      -27.854767    2.945279   -3.679787
    130          1           0      -28.483738    2.786588   -5.343178
    131          1           0      -27.218839    1.789772   -4.856341
    132          1           0      -30.484625   -0.762795   -5.155358
    133          1           0      -30.082664   -2.052486   -4.034098
    134          1           0      -29.122122   -3.118697   -5.804387
    135          1           0      -27.828613   -1.994137   -5.770494
    136          1           0      -32.027770    4.945998   -2.779380
    137          1           0      -31.855825    6.130729   -1.498304
    138          1           0      -33.378943    5.342994   -1.752197
    139          1           0      -32.913771    6.701097    0.759383
    140          1           0      -34.568894    6.618588    1.459961
    141          1           0      -34.256831    5.970111   -0.131170
    142          1           0      -32.836133    0.480759    4.762901
    143          1           0      -30.131206   -0.503346    5.454326
    144          1           0      -32.270547    2.268575    5.884111
    145          1           0      -30.950852    2.632941    4.889580
    146          1           0      -30.697919    1.443934    6.158468
    147          1           0      -32.062098   -2.696964    4.548559
    148          1           0      -32.960330   -1.559073    5.464228
    149          1           0      -30.847927   -1.918969    7.166088
    150          1           0      -30.982469   -3.572416    6.466252
    151          1           0      -32.341043   -2.736180    7.337485
    152          1           0      -27.022952   -5.264680    1.931958
    153          1           0      -27.912036   -4.593819    3.225238
    154          1           0      -26.329907   -3.810945    2.919028
    155          1           0      -27.808133   -3.508601   -2.919713
    156          1           0      -24.398643   -1.580644   -4.669370
    157          1           0      -25.088211   -2.526601   -5.967709
    158          1           0      -24.050744   -3.285206   -4.671998
 ---------------------------------------------------------------------

 SCF Done:  E(RwB97XD) =  -4070.56159471     A.U. after   20 cycles

 Excitation energies and oscillator strengths:

 Excited State   1:      Singlet-A      1.6155 eV  767.45 nm  f=0.3630  <S**2>=0.000
     310 -> 316       -0.19315
     312 -> 313        0.68200
     310 <- 316       -0.12121
 This state for optimization and/or second-order correction.
 Total Energy, E(TD-HF/TD-DFT) =  -4070.50222514
 Copying the excited state density for this state as the 1-particle RhoCI density.

 Excited State   2:      Singlet-A      1.6286 eV  761.31 nm  f=0.3583  <S**2>=0.000
     309 -> 315       -0.20687
     311 -> 314        0.67847
     309 <- 315       -0.12522

 Excited State   3:      Singlet-A      2.1191 eV  585.07 nm  f=0.1303  <S**2>=0.000
     310 -> 313        0.64521
     312 -> 316        0.27988

 Excited State   4:      Singlet-A      2.1416 eV  578.95 nm  f=0.0704  <S**2>=0.000
     309 -> 314        0.61694
     311 -> 315        0.33160

 Excited State   5:      Singlet-A      3.1859 eV  389.17 nm  f=0.0154  <S**2>=0.000
     308 -> 314        0.65683
     308 -> 318       -0.10729
     311 -> 315       -0.20204

 The electronic state is 1-A.
 Alpha  occ. eigenvalues --  -46.96540 -46.94862 -19.30869 -19.30284 -19.24666
 Alpha  occ. eigenvalues --  -19.24016 -19.23901 -19.23783 -19.23747 -19.23083
 Alpha  occ. eigenvalues --  -14.47250 -14.47008 -14.46558 -14.46506 -14.45369
 Alpha  occ. eigenvalues --  -14.44743 -14.44149 -14.43831 -10.42656 -10.42560
 Alpha  occ. eigenvalues --  -10.39183 -10.39123 -10.38994 -10.38259 -10.36215
 Alpha  occ. eigenvalues --  -10.36108 -10.35914 -10.35689 -10.35677 -10.35627
 Alpha  occ. eigenvalues --  -10.35392 -10.35299 -10.35008 -10.35004 -10.34917
 Alpha  occ. eigenvalues --  -10.34906 -10.34776 -10.34724 -10.34712 -10.33978
 Alpha  occ. eigenvalues --  -10.33961 -10.33907 -10.33294 -10.33125 -10.32996
 Alpha  occ. eigenvalues --  -10.32959 -10.32941 -10.32919 -10.32803 -10.32713
 Alpha  occ. eigenvalues --  -10.32531 -10.32508 -10.32431 -10.32376 -10.32374
 Alpha  occ. eigenvalues --  -10.32232 -10.32218 -10.32213 -10.32190 -10.32031
 Alpha  occ. eigenvalues --  -10.31893 -10.31869 -10.31719 -10.31463 -10.31283
 Alpha  occ. eigenvalues --  -10.31191 -10.31162 -10.31139 -10.30984 -10.30858
 Alpha  occ. eigenvalues --  -10.30719 -10.30675 -10.30538 -10.30463 -10.30333
 Alpha  occ. eigenvalues --  -10.30191 -10.30072 -10.29953 -10.29939 -10.29818
 Alpha  occ. eigenvalues --  -10.29729 -10.29498 -10.29350 -10.29312 -10.29210
 Alpha  occ. eigenvalues --  -10.28982  -3.22334  -3.20939  -1.95879  -1.95481
 Alpha  occ. eigenvalues --   -1.95267  -1.94528  -1.94063  -1.93929  -1.19225
 Alpha  occ. eigenvalues --   -1.19122  -1.12422  -1.12214  -1.11032  -1.10875
 Alpha  occ. eigenvalues --   -1.09892  -1.09291  -1.06591  -1.05983  -1.05669
 Alpha  occ. eigenvalues --   -1.05275  -1.04631  -1.04423  -1.04068  -1.03655
 Alpha  occ. eigenvalues --   -0.93915  -0.93542  -0.90827  -0.90671  -0.90612
 Alpha  occ. eigenvalues --   -0.90363  -0.90159  -0.90003  -0.89359  -0.89018
 Alpha  occ. eigenvalues --   -0.88947  -0.88065  -0.87550  -0.87328  -0.86593
 Alpha  occ. eigenvalues --   -0.85945  -0.85914  -0.85060  -0.84775  -0.84521
 Alpha  occ. eigenvalues --   -0.83700  -0.83338  -0.83048  -0.82618  -0.82204
 Alpha  occ. eigenvalues --   -0.81713  -0.81086  -0.79833  -0.79285  -0.79016
 Alpha  occ. eigenvalues --   -0.78706  -0.78332  -0.78204  -0.77964  -0.77170
 Alpha  occ. eigenvalues --   -0.76909  -0.74843  -0.74550  -0.73712  -0.73403
 Alpha  occ. eigenvalues --   -0.71160  -0.70846  -0.70660  -0.70441  -0.70087
 Alpha  occ. eigenvalues --   -0.69533  -0.69105  -0.68684  -0.67829  -0.67605
 Alpha  occ. eigenvalues --   -0.67487  -0.67151  -0.66768  -0.66411  -0.66023
 Alpha  occ. eigenvalues --   -0.66018  -0.64410  -0.64344  -0.62841  -0.62243
 Alpha  occ. eigenvalues --   -0.61249  -0.61221  -0.60999  -0.60737  -0.60630
 Alpha  occ. eigenvalues --   -0.60330  -0.59925  -0.59809  -0.59247  -0.59131
 Alpha  occ. eigenvalues --   -0.58213  -0.58151  -0.57812  -0.57258  -0.56964
 Alpha  occ. eigenvalues --   -0.56947  -0.56867  -0.56471  -0.56463  -0.55810
 Alpha  occ. eigenvalues --   -0.55721  -0.55386  -0.55348  -0.55008  -0.54628
 Alpha  occ. eigenvalues --   -0.54573  -0.54521  -0.54450  -0.54140  -0.53959
 Alpha  occ. eigenvalues --   -0.53674  -0.53614  -0.53448  -0.53336  -0.53287
 Alpha  occ. eigenvalues --   -0.52774  -0.52595  -0.52411  -0.52064  -0.51977
 Alpha  occ. eigenvalues --   -0.51892  -0.51728  -0.51708  -0.51611  -0.51407
 Alpha  occ. eigenvalues --   -0.51380  -0.51161  -0.51159  -0.50919  -0.50729
 Alpha  occ. eigenvalues --   -0.50472  -0.50210  -0.50175  -0.50049  -0.49943
 Alpha  occ. eigenvalues --   -0.49706  -0.49538  -0.49416  -0.49225  -0.48977
 Alpha  occ. eigenvalues --   -0.48903  -0.48831  -0.48773  -0.48528  -0.48485
 Alpha  occ. eigenvalues --   -0.48196  -0.48130  -0.47873  -0.47733  -0.47540
 Alpha  occ. eigenvalues --   -0.47487  -0.47230  -0.47083  -0.47026  -0.46904
 Alpha  occ. eigenvalues --   -0.46792  -0.46742  -0.46678  -0.46338  -0.46258
 Alpha  occ. eigenvalues --   -0.46030  -0.45912  -0.45786  -0.45721  -0.45595
 Alpha  occ. eigenvalues --   -0.45490  -0.45272  -0.45121  -0.44850  -0.44768
 Alpha  occ. eigenvalues --   -0.44542  -0.44334  -0.44187  -0.44011  -0.43962
 Alpha  occ. eigenvalues --   -0.43507  -0.43447  -0.43344  -0.43259  -0.43248
 Alpha  occ. eigenvalues --   -0.42768  -0.42706  -0.42603  -0.42381  -0.42067
 Alpha  occ. eigenvalues --   -0.41988  -0.41956  -0.41718  -0.41304  -0.40538
 Alpha  occ. eigenvalues --   -0.40515  -0.40170  -0.39895  -0.39445  -0.39377
 Alpha  occ. eigenvalues --   -0.39334  -0.39132  -0.38837  -0.38522  -0.38328
 Alpha  occ. eigenvalues --   -0.37675  -0.37509  -0.36639  -0.36392  -0.36183
 Alpha  occ. eigenvalues --   -0.36078  -0.35606  -0.35251  -0.33859  -0.33585
 Alpha  occ. eigenvalues --   -0.32965  -0.32749  -0.32599  -0.32597  -0.32478
 Alpha  occ. eigenvalues --   -0.32375  -0.31502  -0.31112  -0.26193  -0.25818
 Alpha  occ. eigenvalues --   -0.23112  -0.23112
 Alpha virt. eigenvalues --   -0.07345  -0.07113  -0.00655   0.00071   0.02173
 Alpha virt. eigenvalues --    0.02354   0.04148   0.04150   0.04584   0.06565
 Alpha virt. eigenvalues --    0.06790   0.07187   0.07606   0.07721   0.07902

 Mulliken charges:
               1
     1  Mg   0.942264
     2  C   -0.038085
     3  C   -0.073473
     4  C   -0.078367
     5  C   -0.055639
     6  N   -0.320094
     7  C   -0.052909
     8  C   -0.003116
     9  C   -0.147424
    10  C    0.056762
    11  C    0.022596
    12  C   -0.011461
    13  C   -0.138215
    14  H    0.013833
    15  N   -0.462326
    16  C    0.168085
    17  C   -0.175040
    18  C   -0.086726
    19  C    0.201776
    20  C    0.084780
    21  C    0.035949
    22  O   -0.236025
    23  C    0.005183
    24  N   -0.322727
    25  C    0.047304
    26  C   -0.151680
    27  C   -0.062487
    28  C    0.046736
    29  C    0.017240
    30  C   -0.028943
    31  C   -0.050490
    32  N   -0.501319
    33  C    0.150832
    34  C   -0.184795
    35  C   -0.035082
    36  C    0.186944
    37  C    0.087883
    38  C    0.097814
    39  O   -0.231064
    40  C   -0.050552
    41  C    0.238319
    42  O   -0.235952
    43  O   -0.346790
    44  C    0.130822
    45  H    0.013617
    46  H   -0.019941
    47  H    0.003338
    48  H    0.035244
    49  H    0.061588
    50  H    0.033387
    51  H    0.044486
    52  H    0.040375
    53  H    0.041134
    54  H    0.041307
    55  H    0.087264
    56  H    0.047501
    57  H    0.029819
    58  H    0.048547
    59  H    0.062084
    60  H    0.066402
    61  H    0.056719
    62  H    0.054723
    63  H    0.040384
    64  H    0.018080
    65  H    0.043571
    66  H    0.031205
    67  H    0.046331
    68  H    0.037499
    69  H    0.032157
    70  H    0.053224
    71  H    0.028091
    72  H    0.026640
    73  H    0.054290
    74  H    0.056616
    75  H    0.063034
    76  H    0.067927
    77  H    0.072789
    78  H    0.059161
    79  H    0.067065
    80  Mg   0.990424
    81  C   -0.017342
    82  C   -0.078572
    83  C   -0.086410
    84  C   -0.079831
    85  N   -0.298129
    86  C   -0.020006
    87  C   -0.052904
    88  C   -0.107232
    89  C    0.010889
    90  C    0.015715
    91  C    0.042975
    92  C   -0.139094
    93  H   -0.009627
    94  N   -0.512202
    95  C    0.177438
    96  C   -0.130288
    97  C   -0.070939
    98  C    0.181972
    99  C    0.070332
   100  C    0.029635
   101  O   -0.236659
   102  C   -0.016492
   103  N   -0.420727
   104  C    0.093931
   105  C   -0.078823
   106  C   -0.074260
   107  C    0.102018
   108  C    0.012656
   109  C   -0.031798
   110  C   -0.079640
   111  N   -0.424265
   112  C    0.112414
   113  C   -0.186389
   114  C   -0.110851
   115  C    0.145346
   116  C    0.092642
   117  C    0.193607
   118  O   -0.247701
   119  C   -0.086711
   120  C    0.237116
   121  O   -0.214993
   122  O   -0.372147
   123  C    0.133761
   124  H   -0.004465
   125  H    0.020956
   126  H   -0.003310
   127  H    0.041553
   128  H    0.042933
   129  H    0.048262
   130  H    0.034632
   131  H    0.041314
   132  H    0.049079
   133  H    0.046165
   134  H    0.054726
   135  H    0.060345
   136  H    0.047027
   137  H    0.062943
   138  H    0.044806
   139  H    0.052804
   140  H    0.053688
   141  H    0.038476
   142  H    0.046260
   143  H    0.048437
   144  H    0.040262
   145  H    0.042082
   146  H    0.029148
   147  H    0.043047
   148  H    0.034665
   149  H    0.027520
   150  H    0.051965
   151  H    0.040937
   152  H    0.063933
   153  H    0.026454
   154  H    0.068693
   155  H    0.067086
   156  H    0.050147
   157  H    0.052105
   158  H    0.076484
 Sum of Mulliken charges =  -0.00000

 Dipole moment (field-independent basis, Debye):
    X=             -0.6441    Y=              3.7380    Z=             -3.0395  Tot=              4.8607
 Quadrupole moment (field-independent basis, Debye-Ang):
   XX=           -232.0610   YY=           -555.7927   ZZ=           -474.4558
   XY=           -109.2424   XZ=             25.3352   YZ=            -27.2865

 Normal termination of Gaussian 16 at Sat Sep 18 16:20:18 2021.
