 Gaussian 16, Revision A.03,
 Gaussian 16:  ES64L-G16RevA.03 25-Dec-2016

 --------------------------------
 #p wB97XD/Def2SVP td=(nstates=5)
 --------------------------------

 --------------------------------
 TDDFT excited states in gaussian
 --------------------------------
 Symbolic Z-matrix:
 Charge =  0 Multiplicity = 1

                         Standard orientation:
 ---------------------------------------------------------------------
 Center     Atomic      Atomic             Coordinates (Angstroms)
 Number     Number       Type             X           Y           Z
 ---------------------------------------------------------------------
      1         12           0       16.233706   -0.670442    0.311510
      2          6           0       15.324588    2.454025   -1.086782
      3          6           0       17.989752    1.181382    2.700159
      4          6           0       17.079269   -3.470984    1.801985
      5          6           0       15.127325   -2.256044   -2.578423
      6          7           0       16.555083    1.552334    0.732233
      7          6           0       15.978005    2.630101    0.131791
      8          6           0       16.360640    4.005525    0.704679
      9          6           0       17.342669    3.490669    1.874855
     10          6           0       17.285631    1.998957    1.727440
     11          6           0       18.836656    3.985376    1.735464
     12          6           0       15.131984    4.805146    1.248404
     13          6           0       14.590431    6.086185    0.625952
     14          1           0       14.014829    7.202014    1.487987
     15          7           0       17.314284   -1.119526    2.063571
     16          6           0       18.024001   -0.224685    2.877285
     17          6           0       18.746713   -1.009497    3.853156
     18          6           0       18.376046   -2.345326    3.719772
     19          6           0       17.508306   -2.352817    2.525908
     20          6           0       19.514778   -0.294287    4.911699
     21          6           0       18.808952   -3.597056    4.482302
     22          8           0       18.419496   -4.741717    4.231822
     23          6           0       19.640426   -3.394656    5.687352
     24          7           0       16.229428   -2.601338   -0.312936
     25          6           0       16.426693   -3.645199    0.547989
     26          6           0       15.849222   -4.977358   -0.039623
     27          6           0       15.355986   -4.557338   -1.418158
     28          6           0       15.647529   -3.032740   -1.492525
     29          6           0       16.863973   -6.166674   -0.007984
     30          6           0       13.866942   -4.906685   -1.562541
     31          6           0       13.406817   -5.529173   -2.830381
     32          7           0       15.486347   -0.081219   -1.530703
     33          6           0       15.051537   -0.825404   -2.598145
     34          6           0       14.529562    0.008848   -3.638942
     35          6           0       14.499431    1.380613   -3.083062
     36          6           0       15.102800    1.232435   -1.772424
     37          6           0       14.045958   -0.469008   -5.018841
     38          6           0       14.145135    2.806310   -3.297733
     39          8           0       13.498969    3.343094   -4.213538
     40          6           0       14.671259    3.536965   -1.994325
     41          6           0       15.622466    4.513490   -2.612360
     42          8           0       16.800823    4.349904   -2.904736
     43          8           0       15.074136    5.693225   -2.714459
     44          6           0       15.779880    6.771614   -3.448353
     45          1           0       18.357425    1.878959    3.455146
     46          1           0       17.329310   -4.469754    2.164947
     47          1           0       14.720366   -2.777708   -3.446741
     48          1           0       16.928114    4.535380   -0.061413
     49          1           0       17.056160    3.679103    2.909971
     50          1           0       19.138806    4.387279    0.768752
     51          1           0       19.519147    3.159466    1.932830
     52          1           0       19.013602    4.754324    2.487690
     53          1           0       15.380384    5.086252    2.271947
     54          1           0       14.247331    4.169881    1.266084
     55          1           0       13.717079    5.694182    0.104508
     56          1           0       15.429480    6.398383    0.004074
     57          1           0       19.128217   -0.505530    5.907765
     58          1           0       19.474531    0.785306    4.764729
     59          1           0       20.568037   -0.571660    4.941589
     60          1           0       19.182536   -2.635136    6.321174
     61          1           0       20.597959   -2.926294    5.459154
     62          1           0       19.748874   -4.279625    6.313573
     63          1           0       15.042404   -5.190770    0.661328
     64          1           0       15.848383   -5.130155   -2.203811
     65          1           0       17.772775   -5.965132    0.558889
     66          1           0       17.205602   -6.479753   -0.993885
     67          1           0       16.356679   -7.073717    0.320363
     68          1           0       13.387932   -3.936077   -1.440296
     69          1           0       13.489284   -5.607255   -0.818183
     70          1           0       12.607693   -4.875973   -3.180068
     71          1           0       13.140471   -6.572799   -2.663320
     72          1           0       14.128629   -5.496627   -3.646772
     73          1           0       14.882631   -0.441658   -5.715959
     74          1           0       13.227682    0.177588   -5.335398
     75          1           0       13.707650   -1.505249   -5.000632
     76          1           0       13.814660    4.050546   -1.558159
     77          1           0       16.746033    7.039447   -3.022072
     78          1           0       15.198305    7.685839   -3.565309
     79          1           0       16.007413    6.584589   -4.497360
     80         12           0      -15.763198   -0.817492    0.249953
     81          6           0      -18.027053    1.721269    1.023117
     82          6           0      -13.320830    1.430005    0.004043
     83          6           0      -14.083271   -3.044343   -1.725921
     84          6           0      -18.363597   -3.125301    0.469513
     85          7           0      -15.652896    1.340364    0.654821
     86          6           0      -16.676074    2.127975    0.962988
     87          6           0      -16.133044    3.567066    1.285297
     88          6           0      -14.653952    3.463394    0.842282
     89          6           0      -14.510131    1.996822    0.446840
     90          6           0      -14.300338    4.329211   -0.466860
     91          6           0      -16.264149    4.018039    2.810670
     92          6           0      -16.693062    5.438837    2.945852
     93          1           0      -15.897620    6.380155    3.837161
     94          7           0      -13.941658   -0.799637   -0.698132
     95          6           0      -13.044321    0.234677   -0.663826
     96          6           0      -11.750613   -0.250738   -1.164057
     97          6           0      -11.988150   -1.560266   -1.667277
     98          6           0      -13.413902   -1.821170   -1.408510
     99          6           0      -10.466242    0.636969   -1.213111
    100          6           0      -11.003053   -2.510994   -2.411926
    101          8           0      -11.296805   -3.633269   -2.808233
    102          6           0       -9.615486   -2.039336   -2.632041
    103          7           0      -16.150192   -2.724135   -0.527335
    104          6           0      -15.341112   -3.466591   -1.392710
    105          6           0      -16.124070   -4.705989   -1.899455
    106          6           0      -17.150188   -4.984571   -0.715266
    107          6           0      -17.198517   -3.507572   -0.231272
    108          6           0      -16.737892   -4.507179   -3.301968
    109          6           0      -16.698589   -5.904431    0.383327
    110          6           0      -15.770681   -5.427295    1.460797
    111          7           0      -17.740341   -0.831241    0.846903
    112          6           0      -18.697469   -1.819425    0.853573
    113          6           0      -19.995626   -1.322879    1.315721
    114          6           0      -19.819778    0.133789    1.306540
    115          6           0      -18.419563    0.347523    0.999943
    116          6           0      -21.208035   -2.090316    1.461138
    117          6           0      -20.479654    1.422253    1.478988
    118          8           0      -21.600328    1.722230    1.657132
    119          6           0      -19.292121    2.514533    1.374949
    120          6           0      -19.596673    3.679109    0.466891
    121          8           0      -19.309154    3.742130   -0.724762
    122          8           0      -20.166070    4.698651    1.229105
    123          6           0      -20.515353    5.953198    0.538299
    124          1           0      -12.375027    1.974515    0.050348
    125          1           0      -13.495884   -3.697923   -2.374781
    126          1           0      -19.105243   -3.913751    0.611046
    127          1           0      -16.594197    4.330406    0.658102
    128          1           0      -13.907629    3.777960    1.571746
    129          1           0      -13.948519    5.299318   -0.115251
    130          1           0      -15.144371    4.557503   -1.117189
    131          1           0      -13.491857    3.821214   -0.993902
    132          1           0      -15.318921    3.916113    3.344085
    133          1           0      -16.942216    3.421090    3.420735
    134          1           0      -17.657918    5.355870    3.445375
    135          1           0      -16.864269    6.010142    2.033924
    136          1           0      -10.484260    1.125274   -2.187045
    137          1           0       -9.565851    0.052372   -1.022781
    138          1           0      -10.520715    1.532071   -0.592580
    139          1           0       -9.399780   -1.011489   -2.923342
    140          1           0       -9.136206   -2.655259   -3.392577
    141          1           0       -8.989564   -2.373272   -1.804015
    142          1           0      -15.369983   -5.492471   -1.908260
    143          1           0      -18.107418   -5.360047   -1.076530
    144          1           0      -17.807492   -4.693907   -3.398020
    145          1           0      -16.159392   -4.969899   -4.101863
    146          1           0      -16.650064   -3.462215   -3.598826
    147          1           0      -16.205193   -6.810553    0.033835
    148          1           0      -17.589700   -6.264840    0.897463
    149          1           0      -16.464182   -5.153231    2.255609
    150          1           0      -15.189651   -4.534437    1.228874
    151          1           0      -15.118020   -6.247408    1.761785
    152          1           0      -21.723148   -1.667085    2.323672
    153          1           0      -20.913019   -3.114429    1.688390
    154          1           0      -21.826966   -1.989095    0.570179
    155          1           0      -19.147842    2.920341    2.376260
    156          1           0      -21.133571    5.681372   -0.317707
    157          1           0      -19.622912    6.444725    0.151823
    158          1           0      -21.035464    6.741300    1.083050
 ---------------------------------------------------------------------

 SCF Done:  E(RwB97XD) =  -4070.61208197     A.U. after   20 cycles

 Excitation energies and oscillator strengths:

 Excited State   1:      Singlet-A      1.6237 eV  763.58 nm  f=0.3810  <S**2>=0.000
     310 -> 316       -0.18260
     312 -> 314        0.68415
     310 <- 316       -0.11752
 This state for optimization and/or second-order correction.
 Total Energy, E(TD-HF/TD-DFT) =  -4070.55241125
 Copying the excited state density for this state as the 1-particle RhoCI density.

 Excited State   2:      Singlet-A      1.7238 eV  719.23 nm  f=0.3787  <S**2>=0.000
     309 -> 315        0.18633
     311 -> 313        0.68171
     309 <- 315        0.11195

 Excited State   3:      Singlet-A      2.1685 eV  571.74 nm  f=0.1008  <S**2>=0.000
     309 -> 313        0.63395
     311 -> 315       -0.29505

 Excited State   4:      Singlet-A      2.2000 eV  563.58 nm  f=0.1027  <S**2>=0.000
     310 -> 314        0.63112
     312 -> 316        0.30768

 Excited State   5:      Singlet-A      3.3923 eV  365.48 nm  f=0.0178  <S**2>=0.000
     307 -> 314        0.66079
     312 -> 316       -0.17989

 The electronic state is 1-A.
 Alpha  occ. eigenvalues --  -46.94910 -46.94245 -19.30503 -19.30257 -19.25034
 Alpha  occ. eigenvalues --  -19.24741 -19.24719 -19.24160 -19.23919 -19.23146
 Alpha  occ. eigenvalues --  -14.47212 -14.46749 -14.46524 -14.46006 -14.44505
 Alpha  occ. eigenvalues --  -14.43887 -14.43782 -14.43590 -10.43545 -10.42491
 Alpha  occ. eigenvalues --  -10.40046 -10.39572 -10.39535 -10.39475 -10.35791
 Alpha  occ. eigenvalues --  -10.35716 -10.35535 -10.35510 -10.35349 -10.35325
 Alpha  occ. eigenvalues --  -10.34933 -10.34909 -10.34598 -10.34545 -10.34534
 Alpha  occ. eigenvalues --  -10.34006 -10.33863 -10.33787 -10.33704 -10.33515
 Alpha  occ. eigenvalues --  -10.33360 -10.33156 -10.32892 -10.32855 -10.32830
 Alpha  occ. eigenvalues --  -10.32816 -10.32753 -10.32692 -10.32450 -10.32410
 Alpha  occ. eigenvalues --  -10.32361 -10.32341 -10.32259 -10.32219 -10.32184
 Alpha  occ. eigenvalues --  -10.32063 -10.32046 -10.31918 -10.31791 -10.31690
 Alpha  occ. eigenvalues --  -10.31596 -10.31567 -10.31444 -10.31128 -10.31101
 Alpha  occ. eigenvalues --  -10.31035 -10.30809 -10.30720 -10.30470 -10.30465
 Alpha  occ. eigenvalues --  -10.30354 -10.30171 -10.30142 -10.29964 -10.29940
 Alpha  occ. eigenvalues --  -10.29776 -10.29765 -10.29742 -10.29637 -10.29488
 Alpha  occ. eigenvalues --  -10.29462 -10.29364 -10.29352 -10.29155 -10.28682
 Alpha  occ. eigenvalues --  -10.28348  -3.20939  -3.20366  -1.94531  -1.94065
 Alpha  occ. eigenvalues --   -1.93963  -1.93915  -1.93468  -1.93369  -1.19989
 Alpha  occ. eigenvalues --   -1.17321  -1.15213  -1.12400  -1.12324  -1.10614
 Alpha  occ. eigenvalues --   -1.09651  -1.08674  -1.07531  -1.07153  -1.06155
 Alpha  occ. eigenvalues --   -1.05555  -1.04878  -1.04817  -1.04160  -1.03371
 Alpha  occ. eigenvalues --   -0.93840  -0.93811  -0.91523  -0.90997  -0.90875
 Alpha  occ. eigenvalues --   -0.90731  -0.90452  -0.89929  -0.89744  -0.89125
 Alpha  occ. eigenvalues --   -0.88802  -0.88717  -0.88194  -0.87081  -0.86246
 Alpha  occ. eigenvalues --   -0.86041  -0.85474  -0.85395  -0.84810  -0.84704
 Alpha  occ. eigenvalues --   -0.84432  -0.83743  -0.82937  -0.82799  -0.82534
 Alpha  occ. eigenvalues --   -0.82315  -0.80829  -0.80171  -0.79446  -0.79150
 Alpha  occ. eigenvalues --   -0.78811  -0.78663  -0.78123  -0.77744  -0.77162
 Alpha  occ. eigenvalues --   -0.76769  -0.74236  -0.74229  -0.73841  -0.73417
 Alpha  occ. eigenvalues --   -0.71263  -0.71125  -0.70491  -0.70149  -0.69666
 Alpha  occ. eigenvalues --   -0.69631  -0.69006  -0.68683  -0.67810  -0.67623
 Alpha  occ. eigenvalues --   -0.67230  -0.66911  -0.66599  -0.66231  -0.66226
 Alpha  occ. eigenvalues --   -0.66019  -0.64403  -0.63792  -0.63051  -0.62115
 Alpha  occ. eigenvalues --   -0.61530  -0.61523  -0.60976  -0.60861  -0.60499
 Alpha  occ. eigenvalues --   -0.60084  -0.59813  -0.59739  -0.59679  -0.59194
 Alpha  occ. eigenvalues --   -0.58782  -0.57773  -0.57579  -0.57463  -0.57283
 Alpha  occ. eigenvalues --   -0.56967  -0.56741  -0.56250  -0.56159  -0.56039
 Alpha  occ. eigenvalues --   -0.55803  -0.55586  -0.55505  -0.55295  -0.54940
 Alpha  occ. eigenvalues --   -0.54849  -0.54624  -0.54528  -0.54409  -0.54089
 Alpha  occ. eigenvalues --   -0.54074  -0.53681  -0.53533  -0.53388  -0.53293
 Alpha  occ. eigenvalues --   -0.53190  -0.52589  -0.52448  -0.52311  -0.52104
 Alpha  occ. eigenvalues --   -0.52008  -0.51992  -0.51897  -0.51706  -0.51532
 Alpha  occ. eigenvalues --   -0.51426  -0.51414  -0.51080  -0.51029  -0.50633
 Alpha  occ. eigenvalues --   -0.50506  -0.50495  -0.50211  -0.50158  -0.50049
 Alpha  occ. eigenvalues --   -0.49883  -0.49765  -0.49709  -0.49368  -0.48874
 Alpha  occ. eigenvalues --   -0.48755  -0.48602  -0.48493  -0.48298  -0.48168
 Alpha  occ. eigenvalues --   -0.48043  -0.48023  -0.47803  -0.47731  -0.47563
 Alpha  occ. eigenvalues --   -0.47431  -0.47404  -0.47115  -0.47100  -0.47006
 Alpha  occ. eigenvalues --   -0.46854  -0.46589  -0.46534  -0.46338  -0.46260
 Alpha  occ. eigenvalues --   -0.46239  -0.46078  -0.45968  -0.45637  -0.45243
 Alpha  occ. eigenvalues --   -0.45208  -0.45182  -0.45041  -0.44786  -0.44692
 Alpha  occ. eigenvalues --   -0.44573  -0.44317  -0.44006  -0.43769  -0.43664
 Alpha  occ. eigenvalues --   -0.43497  -0.43427  -0.43337  -0.43337  -0.43187
 Alpha  occ. eigenvalues --   -0.43068  -0.42735  -0.42364  -0.42355  -0.42098
 Alpha  occ. eigenvalues --   -0.42012  -0.41764  -0.41445  -0.41022  -0.40577
 Alpha  occ. eigenvalues --   -0.40388  -0.39941  -0.39911  -0.39584  -0.39315
 Alpha  occ. eigenvalues --   -0.38928  -0.38741  -0.38635  -0.38581  -0.38404
 Alpha  occ. eigenvalues --   -0.37825  -0.37814  -0.36454  -0.36409  -0.36260
 Alpha  occ. eigenvalues --   -0.35561  -0.35184  -0.35047  -0.34166  -0.33858
 Alpha  occ. eigenvalues --   -0.33381  -0.33258  -0.33111  -0.32645  -0.32527
 Alpha  occ. eigenvalues --   -0.32168  -0.31749  -0.30864  -0.25900  -0.25887
 Alpha  occ. eigenvalues --   -0.23049  -0.22567
 Alpha virt. eigenvalues --   -0.06898  -0.06794   0.00020   0.00556   0.01816
 Alpha virt. eigenvalues --    0.02502   0.04130   0.04558   0.05737   0.05927
 Alpha virt. eigenvalues --    0.06746   0.07658   0.08091   0.08299   0.08500

 Mulliken charges:
               1
     1  Mg   0.972779
     2  C    0.039411
     3  C   -0.094805
     4  C   -0.084786
     5  C   -0.089032
     6  N   -0.280115
     7  C   -0.033678
     8  C   -0.039484
     9  C   -0.125386
    10  C    0.009612
    11  C    0.001849
    12  C   -0.006316
    13  C   -0.125671
    14  H    0.045786
    15  N   -0.445457
    16  C    0.189090
    17  C   -0.135270
    18  C   -0.078203
    19  C    0.174125
    20  C    0.050676
    21  C    0.084276
    22  O   -0.232467
    23  C   -0.006814
    24  N   -0.424602
    25  C    0.030651
    26  C   -0.065449
    27  C   -0.064827
    28  C    0.113734
    29  C    0.012639
    30  C   -0.040669
    31  C   -0.047855
    32  N   -0.454856
    33  C    0.145694
    34  C   -0.198941
    35  C   -0.045520
    36  C    0.123209
    37  C    0.077660
    38  C    0.112824
    39  O   -0.226591
    40  C   -0.112730
    41  C    0.232929
    42  O   -0.268575
    43  O   -0.310192
    44  C    0.148228
    45  H    0.001888
    46  H    0.016075
    47  H   -0.006141
    48  H    0.060686
    49  H    0.045597
    50  H    0.052718
    51  H    0.037824
    52  H    0.037496
    53  H    0.038493
    54  H    0.032636
    55  H    0.062025
    56  H    0.051901
    57  H    0.054628
    58  H    0.035474
    59  H    0.048402
    60  H    0.039610
    61  H    0.049855
    62  H    0.061319
    63  H    0.053960
    64  H    0.031722
    65  H    0.057324
    66  H    0.025313
    67  H    0.035188
    68  H    0.036469
    69  H    0.031234
    70  H    0.037218
    71  H    0.043649
    72  H    0.025526
    73  H    0.056408
    74  H    0.061357
    75  H    0.025360
    76  H    0.075547
    77  H    0.050797
    78  H    0.052431
    79  H    0.053131
    80  Mg   0.983910
    81  C    0.016805
    82  C   -0.089916
    83  C   -0.082496
    84  C   -0.106121
    85  N   -0.316776
    86  C    0.009775
    87  C   -0.040635
    88  C   -0.128944
    89  C    0.104118
    90  C   -0.004719
    91  C    0.028175
    92  C   -0.147849
    93  H    0.026070
    94  N   -0.453239
    95  C    0.111622
    96  C   -0.155563
    97  C   -0.103403
    98  C    0.123844
    99  C    0.045672
   100  C    0.084805
   101  O   -0.233048
   102  C   -0.023462
   103  N   -0.364600
   104  C    0.051485
   105  C   -0.053146
   106  C   -0.060018
   107  C    0.046830
   108  C    0.044651
   109  C   -0.025413
   110  C   -0.034928
   111  N   -0.447901
   112  C    0.163620
   113  C   -0.168864
   114  C   -0.084482
   115  C    0.117217
   116  C    0.076992
   117  C    0.137606
   118  O   -0.142246
   119  C   -0.138997
   120  C    0.283412
   121  O   -0.249073
   122  O   -0.383382
   123  C    0.147035
   124  H   -0.013040
   125  H    0.021637
   126  H   -0.009755
   127  H    0.043048
   128  H    0.044043
   129  H    0.031225
   130  H    0.051248
   131  H    0.038116
   132  H    0.037889
   133  H    0.036938
   134  H    0.053898
   135  H    0.051466
   136  H    0.057800
   137  H    0.063641
   138  H    0.032721
   139  H    0.059445
   140  H    0.038765
   141  H    0.062573
   142  H    0.024379
   143  H    0.023848
   144  H    0.039134
   145  H    0.044504
   146  H    0.032124
   147  H    0.026697
   148  H    0.023413
   149  H    0.026938
   150  H    0.051692
   151  H    0.040126
   152  H    0.057341
   153  H    0.036638
   154  H    0.074593
   155  H    0.075937
   156  H    0.054241
   157  H    0.040570
   158  H    0.061744
 Sum of Mulliken charges =  -0.00000

 Dipole moment (field-independent basis, Debye):
    X=              4.6350    Y=              1.0891    Z=              6.6059  Tot=              8.1429
 Quadrupole moment (field-independent basis, Debye-Ang):
   XX=           -551.6169   YY=           -471.0980   ZZ=           -513.0064
   XY=             25.5698   XZ=             64.7820   YZ=             20.6543

 Normal termination of Gaussian 16 at Mon Sep 20 12:30:52 2021.
