 Gaussian 16, Revision A.03,
 Gaussian 16:  ES64L-G16RevA.03 25-Dec-2016

 --------------------------------
 #p wB97XD/Def2SVP td=(nstates=5)
 --------------------------------

 --------------------------------
 TDDFT excited states in gaussian
 --------------------------------
 Symbolic Z-matrix:
 Charge =  0 Multiplicity = 1

                         Standard orientation:
 ---------------------------------------------------------------------
 Center     Atomic      Atomic             Coordinates (Angstroms)
 Number     Number       Type             X           Y           Z
 ---------------------------------------------------------------------
      1         12           0      -25.824286   -0.412586   -0.486939
      2          6           0      -24.010943    2.508281   -0.249557
      3          6           0      -28.153888    1.026415    1.564713
      4          6           0      -27.463670   -3.364994   -0.476040
      5          6           0      -23.138239   -1.955627   -2.065960
      6          7           0      -25.915147    1.559617    0.636928
      7          6           0      -25.215358    2.608103    0.430841
      8          6           0      -25.701295    3.958012    1.172455
      9          6           0      -26.895016    3.335311    1.998824
     10          6           0      -26.983399    1.833585    1.448120
     11          6           0      -26.657897    3.261895    3.597409
     12          6           0      -26.134482    5.148017    0.210923
     13          6           0      -25.901981    6.616514    0.714983
     14          1           0      -25.530996    6.780719    2.157907
     15          7           0      -27.554941   -1.048835    0.325904
     16          6           0      -28.484448   -0.265449    1.116789
     17          6           0      -29.636734   -1.113795    1.402850
     18          6           0      -29.402079   -2.423478    0.914874
     19          6           0      -28.120625   -2.314814    0.181601
     20          6           0      -30.787680   -0.477667    2.095605
     21          6           0      -30.276624   -3.698450    0.958276
     22          8           0      -29.940264   -4.787952    0.600414
     23          6           0      -31.623818   -3.536853    1.691096
     24          7           0      -25.374209   -2.452917   -1.066484
     25          6           0      -26.164987   -3.474764   -0.972831
     26          6           0      -25.433659   -4.802726   -1.319112
     27          6           0      -24.091981   -4.336704   -1.933563
     28          6           0      -24.180301   -2.809184   -1.706310
     29          6           0      -25.275541   -5.691761   -0.067270
     30          6           0      -23.928309   -4.781611   -3.419308
     31          6           0      -23.680972   -6.285060   -3.623379
     32          7           0      -23.920872    0.129277   -1.070106
     33          6           0      -22.988037   -0.590605   -1.795247
     34          6           0      -21.894647    0.306732   -2.061154
     35          6           0      -22.184471    1.563255   -1.449873
     36          6           0      -23.476914    1.351575   -0.897082
     37          6           0      -20.708166   -0.040359   -2.753427
     38          6           0      -21.795009    2.920622   -1.236100
     39          8           0      -20.699260    3.482117   -1.535493
     40          6           0      -22.936027    3.539225   -0.338747
     41          6           0      -22.324873    3.967918    0.901212
     42          8           0      -22.078849    3.222875    1.849438
     43          8           0      -21.952179    5.277615    0.735934
     44          6           0      -21.084142    5.775026    1.824150
     45          1           0      -28.901434    1.449534    2.238273
     46          1           0      -28.062124   -4.278817   -0.451661
     47          1           0      -22.352524   -2.467565   -2.626271
     48          1           0      -24.869426    4.193957    1.836590
     49          1           0      -27.801684    3.920148    1.845117
     50          1           0      -25.585572    3.334571    3.781109
     51          1           0      -27.035422    2.314161    3.980991
     52          1           0      -27.149685    4.029934    4.195261
     53          1           0      -27.208489    5.003448    0.096890
     54          1           0      -25.871724    5.039823   -0.841948
     55          1           0      -26.751624    7.278349    0.547547
     56          1           0      -25.040079    7.035984    0.195987
     57          1           0      -30.636650   -0.482419    3.175460
     58          1           0      -31.751948   -0.854455    1.754256
     59          1           0      -30.813341    0.561966    1.769965
     60          1           0      -32.380215   -2.981959    1.135191
     61          1           0      -31.310488   -3.025868    2.600930
     62          1           0      -32.093330   -4.459415    2.031170
     63          1           0      -26.084017   -5.234866   -2.079257
     64          1           0      -23.265509   -4.701058   -1.323451
     65          1           0      -25.287202   -5.168972    0.889358
     66          1           0      -24.345480   -6.248565    0.051726
     67          1           0      -26.109616   -6.392300   -0.107049
     68          1           0      -23.057474   -4.280843   -3.840096
     69          1           0      -24.803166   -4.475367   -3.993838
     70          1           0      -23.769264   -6.767467   -2.649927
     71          1           0      -22.621770   -6.441371   -3.828280
     72          1           0      -24.228161   -6.808953   -4.406733
     73          1           0      -21.053971   -0.611929   -3.614807
     74          1           0      -20.005952   -0.679918   -2.218924
     75          1           0      -20.147552    0.872557   -2.957041
     76          1           0      -23.240538    4.418225   -0.907451
     77          1           0      -20.150049    5.218595    1.741997
     78          1           0      -21.584145    5.741916    2.791571
     79          1           0      -20.872317    6.823353    1.613235
     80         12           0       25.037497   -0.794723    0.337429
     81          6           0       25.618683    2.387193   -1.198482
     82          6           0       25.253596    0.706375    3.418648
     83          6           0       24.961761   -3.801620    1.873871
     84          6           0       25.810930   -2.258346   -2.777209
     85          7           0       25.382883    1.301526    0.995624
     86          6           0       25.526522    2.466580    0.225826
     87          6           0       25.593469    3.659468    1.144644
     88          6           0       25.990814    2.997558    2.531030
     89          6           0       25.563764    1.519311    2.293003
     90          6           0       27.541644    3.160020    2.716482
     91          6           0       24.308261    4.560103    1.123783
     92          6           0       24.671500    5.958550    1.082662
     93          1           0       23.470595    6.962352    0.701959
     94          7           0       24.929026   -1.355266    2.394040
     95          6           0       24.995307   -0.591031    3.490784
     96          6           0       24.769866   -1.402765    4.647103
     97          6           0       24.699056   -2.719784    4.244214
     98          6           0       24.812673   -2.697973    2.713020
     99          6           0       24.847752   -0.825532    6.096185
    100          6           0       24.434792   -3.982012    5.090590
    101          8           0       24.444029   -5.059992    4.552228
    102          6           0       24.077750   -3.870768    6.554094
    103          7           0       25.621419   -2.740457   -0.339493
    104          6           0       25.352547   -3.823696    0.489907
    105          6           0       25.395151   -5.103981   -0.279171
    106          6           0       25.647314   -4.614174   -1.787973
    107          6           0       25.633521   -3.109124   -1.659806
    108          6           0       26.383255   -6.081004    0.262445
    109          6           0       24.622709   -5.149963   -2.931717
    110          6           0       25.175501   -5.957883   -4.038527
    111          7           0       25.555525   -0.137858   -1.629702
    112          6           0       25.835640   -0.878158   -2.756079
    113          6           0       26.062160    0.097041   -3.909558
    114          6           0       25.874288    1.385897   -3.371238
    115          6           0       25.619980    1.190279   -1.968517
    116          6           0       26.444172   -0.317713   -5.336996
    117          6           0       26.004385    2.772439   -3.702971
    118          8           0       26.257141    3.324000   -4.797823
    119          6           0       26.014827    3.485660   -2.288939
    120          6           0       25.080473    4.722992   -2.444821
    121          8           0       23.913959    4.698063   -2.011383
    122          8           0       25.766799    5.750519   -3.002415
    123          6           0       24.799865    6.854349   -3.329062
    124          1           0       25.097564    1.195180    4.382968
    125          1           0       24.920469   -4.786244    2.345679
    126          1           0       25.961846   -2.613818   -3.798511
    127          1           0       26.467594    4.227167    0.826508
    128          1           0       25.484678    3.477749    3.367739
    129          1           0       28.128725    2.495498    2.083053
    130          1           0       27.784039    3.025783    3.769820
    131          1           0       27.816832    4.186963    2.475024
    132          1           0       23.847648    4.454167    2.106271
    133          1           0       23.606287    4.253126    0.348115
    134          1           0       25.355215    6.163133    0.258606
    135          1           0       25.076846    6.218900    2.060733
    136          1           0       23.885879   -1.111370    6.521766
    137          1           0       24.928570    0.259788    6.154696
    138          1           0       25.714663   -1.237640    6.612476
    139          1           0       24.009516   -4.859668    7.007576
    140          1           0       23.115781   -3.379861    6.407019
    141          1           0       24.830886   -3.250232    7.039623
    142          1           0       24.376837   -5.477624   -0.170188
    143          1           0       26.640954   -4.965684   -2.064741
    144          1           0       25.771051   -6.871630    0.694431
    145          1           0       26.952376   -5.688921    1.105204
    146          1           0       27.099648   -6.474732   -0.458933
    147          1           0       24.286754   -4.217462   -3.385152
    148          1           0       23.776352   -5.612072   -2.425300
    149          1           0       25.050410   -5.452771   -4.995940
    150          1           0       24.436003   -6.756288   -3.987270
    151          1           0       26.163166   -6.367363   -3.822175
    152          1           0       27.531968   -0.270994   -5.373961
    153          1           0       26.025166    0.347584   -6.091863
    154          1           0       26.037360   -1.308797   -5.538034
    155          1           0       27.059625    3.767323   -2.165260
    156          1           0       24.160952    6.664523   -4.191378
    157          1           0       25.257025    7.831956   -3.478507
    158          1           0       24.202023    6.991755   -2.427835
 ---------------------------------------------------------------------

 SCF Done:  E(RwB97XD) =  -4070.59076289     A.U. after   19 cycles

 Excitation energies and oscillator strengths:

 Excited State   1:      Singlet-A      1.6768 eV  739.40 nm  f=0.3523  <S**2>=0.000
     309 -> 315       -0.19189
     312 -> 314        0.68018
     309 <- 315       -0.11547
 This state for optimization and/or second-order correction.
 Total Energy, E(TD-HF/TD-DFT) =  -4070.52914093
 Copying the excited state density for this state as the 1-particle RhoCI density.

 Excited State   2:      Singlet-A      1.7222 eV  719.93 nm  f=0.3816  <S**2>=0.000
     310 -> 316        0.20375
     311 -> 313        0.67764
     310 <- 316        0.11868

 Excited State   3:      Singlet-A      2.1613 eV  573.65 nm  f=0.1080  <S**2>=0.000
     310 -> 313        0.64085
     311 -> 316       -0.28352

 Excited State   4:      Singlet-A      2.2164 eV  559.40 nm  f=0.0062  <S**2>=0.000
     309 -> 314        0.55056
     312 -> 315        0.43363

 Excited State   5:      Singlet-A      3.8658 eV  320.72 nm  f=0.0000  <S**2>=0.000
     312 -> 313        0.70710

 The electronic state is 1-A.
 Alpha  occ. eigenvalues --  -46.95740 -46.94733 -19.31336 -19.29995 -19.25192
 Alpha  occ. eigenvalues --  -19.24674 -19.24511 -19.24222 -19.23748 -19.23275
 Alpha  occ. eigenvalues --  -14.46852 -14.46781 -14.46456 -14.46091 -14.44331
 Alpha  occ. eigenvalues --  -14.43954 -14.43695 -14.43488 -10.43540 -10.42366
 Alpha  occ. eigenvalues --  -10.40259 -10.39642 -10.38868 -10.38767 -10.35921
 Alpha  occ. eigenvalues --  -10.35418 -10.35373 -10.35326 -10.35249 -10.34976
 Alpha  occ. eigenvalues --  -10.34914 -10.34800 -10.34754 -10.34453 -10.34427
 Alpha  occ. eigenvalues --  -10.34413 -10.34297 -10.33615 -10.33140 -10.33094
 Alpha  occ. eigenvalues --  -10.33052 -10.33027 -10.32994 -10.32980 -10.32945
 Alpha  occ. eigenvalues --  -10.32871 -10.32747 -10.32574 -10.32233 -10.32199
 Alpha  occ. eigenvalues --  -10.32150 -10.32122 -10.32019 -10.32018 -10.31942
 Alpha  occ. eigenvalues --  -10.31835 -10.31721 -10.31629 -10.31573 -10.31406
 Alpha  occ. eigenvalues --  -10.31368 -10.31142 -10.31138 -10.31134 -10.31022
 Alpha  occ. eigenvalues --  -10.31013 -10.30812 -10.30657 -10.30475 -10.30472
 Alpha  occ. eigenvalues --  -10.30355 -10.30324 -10.30156 -10.30094 -10.30019
 Alpha  occ. eigenvalues --  -10.29760 -10.29753 -10.29512 -10.29366 -10.29192
 Alpha  occ. eigenvalues --  -10.29187 -10.28983 -10.28894 -10.28784 -10.28456
 Alpha  occ. eigenvalues --  -10.28448  -3.21543  -3.20775  -1.95123  -1.94648
 Alpha  occ. eigenvalues --   -1.94509  -1.94360  -1.93906  -1.93749  -1.18181
 Alpha  occ. eigenvalues --   -1.17659  -1.14753  -1.13960  -1.10018  -1.09384
 Alpha  occ. eigenvalues --   -1.09272  -1.08930  -1.07383  -1.06290  -1.06102
 Alpha  occ. eigenvalues --   -1.05459  -1.05038  -1.04656  -1.03396  -1.02931
 Alpha  occ. eigenvalues --   -0.94478  -0.93136  -0.91182  -0.90827  -0.90570
 Alpha  occ. eigenvalues --   -0.90260  -0.90013  -0.89709  -0.89468  -0.89376
 Alpha  occ. eigenvalues --   -0.89130  -0.88881  -0.88782  -0.87349  -0.86253
 Alpha  occ. eigenvalues --   -0.85838  -0.85636  -0.85333  -0.84526  -0.84436
 Alpha  occ. eigenvalues --   -0.84210  -0.83634  -0.82975  -0.82601  -0.82348
 Alpha  occ. eigenvalues --   -0.82228  -0.80522  -0.80181  -0.79436  -0.79284
 Alpha  occ. eigenvalues --   -0.78413  -0.78276  -0.77649  -0.77354  -0.76848
 Alpha  occ. eigenvalues --   -0.76755  -0.74178  -0.74122  -0.73430  -0.73383
 Alpha  occ. eigenvalues --   -0.71299  -0.70772  -0.70720  -0.70147  -0.69751
 Alpha  occ. eigenvalues --   -0.69382  -0.68992  -0.68286  -0.67736  -0.67295
 Alpha  occ. eigenvalues --   -0.66984  -0.66861  -0.66754  -0.66399  -0.66255
 Alpha  occ. eigenvalues --   -0.66064  -0.64007  -0.63523  -0.62033  -0.61926
 Alpha  occ. eigenvalues --   -0.61354  -0.61070  -0.61040  -0.60404  -0.60252
 Alpha  occ. eigenvalues --   -0.60183  -0.59840  -0.59613  -0.59353  -0.59000
 Alpha  occ. eigenvalues --   -0.57976  -0.57965  -0.57578  -0.57418  -0.57152
 Alpha  occ. eigenvalues --   -0.57006  -0.56435  -0.56223  -0.55929  -0.55875
 Alpha  occ. eigenvalues --   -0.55873  -0.55446  -0.55301  -0.55104  -0.54898
 Alpha  occ. eigenvalues --   -0.54841  -0.54670  -0.54586  -0.54518  -0.54363
 Alpha  occ. eigenvalues --   -0.54000  -0.53821  -0.53789  -0.53235  -0.53219
 Alpha  occ. eigenvalues --   -0.53060  -0.52838  -0.52643  -0.52454  -0.52347
 Alpha  occ. eigenvalues --   -0.52273  -0.52140  -0.52047  -0.51439  -0.51307
 Alpha  occ. eigenvalues --   -0.51051  -0.51014  -0.50844  -0.50828  -0.50525
 Alpha  occ. eigenvalues --   -0.50475  -0.50362  -0.50126  -0.50117  -0.49922
 Alpha  occ. eigenvalues --   -0.49748  -0.49743  -0.49690  -0.49325  -0.48959
 Alpha  occ. eigenvalues --   -0.48561  -0.48498  -0.48432  -0.48355  -0.48139
 Alpha  occ. eigenvalues --   -0.48114  -0.47967  -0.47947  -0.47727  -0.47524
 Alpha  occ. eigenvalues --   -0.47258  -0.47063  -0.46755  -0.46492  -0.46419
 Alpha  occ. eigenvalues --   -0.46299  -0.46258  -0.46196  -0.46069  -0.45988
 Alpha  occ. eigenvalues --   -0.45727  -0.45709  -0.45448  -0.45361  -0.45167
 Alpha  occ. eigenvalues --   -0.45155  -0.44964  -0.44873  -0.44742  -0.44660
 Alpha  occ. eigenvalues --   -0.44543  -0.44243  -0.44202  -0.43925  -0.43801
 Alpha  occ. eigenvalues --   -0.43645  -0.43618  -0.43372  -0.43362  -0.43078
 Alpha  occ. eigenvalues --   -0.42995  -0.42659  -0.42514  -0.42103  -0.42084
 Alpha  occ. eigenvalues --   -0.41691  -0.41676  -0.41256  -0.40731  -0.40417
 Alpha  occ. eigenvalues --   -0.40122  -0.39878  -0.39745  -0.39520  -0.39194
 Alpha  occ. eigenvalues --   -0.39139  -0.39039  -0.38948  -0.38542  -0.38220
 Alpha  occ. eigenvalues --   -0.38046  -0.36746  -0.36278  -0.36012  -0.35858
 Alpha  occ. eigenvalues --   -0.35795  -0.35605  -0.35165  -0.33910  -0.33806
 Alpha  occ. eigenvalues --   -0.33356  -0.33334  -0.32606  -0.32429  -0.32258
 Alpha  occ. eigenvalues --   -0.32208  -0.31435  -0.31292  -0.26175  -0.25582
 Alpha  occ. eigenvalues --   -0.23042  -0.21987
 Alpha virt. eigenvalues --   -0.06752  -0.05865  -0.00579   0.00235   0.02039
 Alpha virt. eigenvalues --    0.02107   0.04215   0.04495   0.05097   0.05716
 Alpha virt. eigenvalues --    0.07296   0.07667   0.07801   0.08302   0.08466

 Mulliken charges:
               1
     1  Mg   0.972809
     2  C    0.036690
     3  C   -0.076530
     4  C   -0.083372
     5  C   -0.099870
     6  N   -0.274870
     7  C   -0.097051
     8  C   -0.014318
     9  C   -0.137599
    10  C    0.065941
    11  C    0.000636
    12  C    0.023606
    13  C   -0.131685
    14  H    0.035213
    15  N   -0.532136
    16  C    0.160544
    17  C   -0.146773
    18  C   -0.099939
    19  C    0.147749
    20  C    0.050191
    21  C    0.084633
    22  O   -0.192564
    23  C   -0.045123
    24  N   -0.332251
    25  C    0.040010
    26  C   -0.054426
    27  C   -0.067538
    28  C    0.054724
    29  C    0.016555
    30  C   -0.022575
    31  C   -0.039110
    32  N   -0.427674
    33  C    0.163628
    34  C   -0.180251
    35  C    0.016181
    36  C    0.116528
    37  C    0.057386
    38  C    0.086152
    39  O   -0.253839
    40  C   -0.075577
    41  C    0.268066
    42  O   -0.262138
    43  O   -0.366888
    44  C    0.144980
    45  H   -0.003037
    46  H    0.012702
    47  H   -0.006271
    48  H    0.049115
    49  H    0.040272
    50  H    0.048184
    51  H    0.038254
    52  H    0.039837
    53  H    0.016299
    54  H    0.039545
    55  H    0.057659
    56  H    0.064730
    57  H    0.067850
    58  H    0.043835
    59  H    0.042691
    60  H    0.070880
    61  H    0.053213
    62  H    0.049653
    63  H    0.038216
    64  H    0.035328
    65  H    0.043602
    66  H    0.034027
    67  H    0.050537
    68  H    0.028777
    69  H    0.032092
    70  H    0.024450
    71  H    0.026124
    72  H    0.050563
    73  H    0.038280
    74  H    0.050033
    75  H    0.057928
    76  H    0.063344
    77  H    0.068101
    78  H    0.056049
    79  H    0.049020
    80  Mg   0.942990
    81  C    0.041702
    82  C   -0.129178
    83  C   -0.076147
    84  C   -0.077237
    85  N   -0.336156
    86  C   -0.017615
    87  C   -0.079485
    88  C   -0.155250
    89  C    0.135849
    90  C    0.022045
    91  C    0.093389
    92  C   -0.136532
    93  H    0.009091
    94  N   -0.446362
    95  C    0.165819
    96  C   -0.153380
    97  C   -0.107847
    98  C    0.165001
    99  C    0.056871
   100  C    0.032488
   101  O   -0.217402
   102  C    0.006179
   103  N   -0.392360
   104  C    0.060435
   105  C   -0.103400
   106  C   -0.058566
   107  C    0.088845
   108  C    0.029686
   109  C   -0.034554
   110  C   -0.028618
   111  N   -0.416615
   112  C    0.095675
   113  C   -0.195751
   114  C   -0.011753
   115  C    0.105038
   116  C    0.075077
   117  C    0.122621
   118  O   -0.234918
   119  C   -0.139147
   120  C    0.281283
   121  O   -0.275128
   122  O   -0.340467
   123  C    0.131697
   124  H   -0.010057
   125  H    0.029194
   126  H   -0.008259
   127  H    0.017182
   128  H    0.025381
   129  H    0.050728
   130  H    0.035118
   131  H    0.035630
   132  H    0.016183
   133  H    0.073632
   134  H    0.051840
   135  H    0.043257
   136  H    0.051661
   137  H    0.037596
   138  H    0.072577
   139  H    0.062082
   140  H    0.066273
   141  H    0.055583
   142  H    0.043056
   143  H    0.031484
   144  H    0.039719
   145  H    0.045853
   146  H    0.038548
   147  H    0.026825
   148  H    0.028200
   149  H    0.044939
   150  H    0.030319
   151  H    0.041829
   152  H    0.063089
   153  H    0.057604
   154  H    0.033408
   155  H    0.090006
   156  H    0.070075
   157  H    0.052416
   158  H    0.059114
 Sum of Mulliken charges =  -0.00000

 Dipole moment (field-independent basis, Debye):
    X=             -4.8486    Y=             -0.7918    Z=              5.2013  Tot=              7.1547
 Quadrupole moment (field-independent basis, Debye-Ang):
   XX=           -267.5554   YY=           -490.9041   ZZ=           -489.8758
   XY=            -63.7281   XZ=             96.4754   YZ=             38.1254

 Normal termination of Gaussian 16 at Mon Sep 20 10:08:19 2021.
