 Gaussian 16, Revision A.03,
 Gaussian 16:  ES64L-G16RevA.03 25-Dec-2016

 --------------------------------
 #p wB97XD/Def2SVP td=(nstates=5)
 --------------------------------

 --------------------------------
 TDDFT excited states in gaussian
 --------------------------------
 Symbolic Z-matrix:
 Charge =  0 Multiplicity = 1

                         Standard orientation:
 ---------------------------------------------------------------------
 Center     Atomic      Atomic             Coordinates (Angstroms)
 Number     Number       Type             X           Y           Z
 ---------------------------------------------------------------------
      1         12           0       25.091386   -0.877277    0.331873
      2          6           0       25.336655    2.284238   -1.245679
      3          6           0       25.699077    0.834492    3.318369
      4          6           0       24.785068   -3.706808    1.968779
      5          6           0       25.320136   -2.417119   -2.777224
      6          7           0       25.433148    1.305421    0.915012
      7          6           0       25.344713    2.422838    0.141261
      8          6           0       25.567004    3.762295    0.864339
      9          6           0       25.802614    3.175111    2.347064
     10          6           0       25.646975    1.696217    2.149989
     11          6           0       27.228479    3.487190    2.951778
     12          6           0       24.332165    4.717322    0.776464
     13          6           0       24.309200    6.031639    0.005861
     14          1           0       23.528420    7.234785    0.518033
     15          7           0       25.142810   -1.391533    2.374407
     16          6           0       25.478125   -0.559367    3.452198
     17          6           0       25.548782   -1.390637    4.633114
     18          6           0       25.131791   -2.677728    4.302750
     19          6           0       24.945252   -2.623156    2.839683
     20          6           0       25.796794   -0.735531    5.948899
     21          6           0       24.996753   -3.945660    5.145244
     22          8           0       24.641897   -5.044654    4.708258
     23          6           0       25.169416   -3.802161    6.606085
     24          7           0       25.157483   -2.813968   -0.270763
     25          6           0       24.794872   -3.844823    0.551186
     26          6           0       24.415077   -5.119077   -0.276728
     27          6           0       24.693320   -4.689940   -1.711469
     28          6           0       25.162904   -3.213074   -1.596218
     29          6           0       25.142939   -6.417023    0.203630
     30          6           0       23.424405   -4.867646   -2.559065
     31          6           0       23.555395   -5.473546   -3.909010
     32          7           0       25.389704   -0.265781   -1.626839
     33          6           0       25.432687   -0.988840   -2.792018
     34          6           0       25.573652   -0.134063   -3.932708
     35          6           0       25.444226    1.249384   -3.421853
     36          6           0       25.326427    1.074994   -1.986760
     37          6           0       25.754789   -0.597344   -5.388353
     38          6           0       25.406751    2.698851   -3.741015
     39          8           0       25.344748    3.276965   -4.839334
     40          6           0       25.329037    3.405585   -2.325379
     41          6           0       26.567737    4.243535   -2.387216
     42          8           0       27.713986    3.933989   -2.085444
     43          8           0       26.278499    5.475208   -2.706883
     44          6           0       27.370820    6.439109   -2.984961
     45          1           0       25.741280    1.508843    4.175848
     46          1           0       24.711449   -4.715449    2.379905
     47          1           0       25.318621   -2.915998   -3.748225
     48          1           0       26.489454    4.196791    0.477083
     49          1           0       25.081297    3.429656    3.124219
     50          1           0       28.000549    3.819048    2.258142
     51          1           0       27.630885    2.594204    3.428768
     52          1           0       27.114369    4.254558    3.717649
     53          1           0       24.093083    5.001036    1.801506
     54          1           0       23.478343    4.190592    0.352168
     55          1           0       23.751331    5.727318   -0.879851
     56          1           0       25.373543    6.223130   -0.130916
     57          1           0       24.959752   -0.867319    6.633147
     58          1           0       25.959533    0.335955    5.829846
     59          1           0       26.666827   -1.132818    6.470807
     60          1           0       24.557948   -2.973944    6.964454
     61          1           0       26.167458   -3.456535    6.875825
     62          1           0       24.860292   -4.672652    7.183815
     63          1           0       23.352729   -5.213671   -0.052446
     64          1           0       25.429383   -5.341856   -2.181620
     65          1           0       25.687472   -6.304400    1.141013
     66          1           0       25.874022   -6.800108   -0.507350
     67          1           0       24.437261   -7.247351    0.225045
     68          1           0       23.063709   -3.844266   -2.654282
     69          1           0       22.657424   -5.494469   -2.104835
     70          1           0       23.103729   -4.743393   -4.580147
     71          1           0       23.120360   -6.472882   -3.917809
     72          1           0       24.577451   -5.552358   -4.280165
     73          1           0       26.819305   -0.690797   -5.600044
     74          1           0       25.269851    0.129579   -6.039727
     75          1           0       25.329024   -1.585847   -5.562036
     76          1           0       24.435685    4.029717   -2.337703
     77          1           0       28.040240    6.606214   -2.141839
     78          1           0       27.028338    7.410624   -3.340744
     79          1           0       28.047583    6.192390   -3.802449
     80         12           0      -25.865488   -0.459883   -0.320834
     81          6           0      -23.587903    2.212160   -0.084687
     82          6           0      -27.952129    1.306143    1.828044
     83          6           0      -27.828373   -3.138432   -0.315538
     84          6           0      -23.271797   -2.466039   -1.783225
     85          7           0      -25.770137    1.491280    0.752810
     86          6           0      -24.773411    2.461764    0.579103
     87          6           0      -25.305731    3.808163    1.033661
     88          6           0      -26.563011    3.476816    1.886987
     89          6           0      -26.783395    1.994353    1.459696
     90          6           0      -26.452268    3.747300    3.420386
     91          6           0      -25.563990    4.834375   -0.123483
     92          6           0      -25.354698    6.355882    0.295967
     93          1           0      -24.989342    6.651985    1.752966
     94          7           0      -27.642789   -0.792258    0.496805
     95          6           0      -28.380114    0.075913    1.283432
     96          6           0      -29.672078   -0.475132    1.574814
     97          6           0      -29.625097   -1.816659    1.077130
     98          6           0      -28.364074   -1.935829    0.367181
     99          6           0      -30.751167    0.256528    2.430058
    100          6           0      -30.637612   -2.905103    1.223599
    101          8           0      -30.390962   -4.082055    0.867335
    102          6           0      -32.052959   -2.850273    1.870379
    103          7           0      -25.521860   -2.585458   -0.702759
    104          6           0      -26.541458   -3.464528   -0.725977
    105          6           0      -26.121088   -4.763298   -1.458882
    106          6           0      -24.668599   -4.568840   -1.908579
    107          6           0      -24.482803   -3.050718   -1.465988
    108          6           0      -26.450684   -5.987250   -0.659965
    109          6           0      -24.352559   -4.822177   -3.398302
    110          6           0      -25.140340   -3.943488   -4.401042
    111          7           0      -23.792091   -0.259944   -0.803101
    112          6           0      -22.979781   -1.081105   -1.508529
    113          6           0      -21.797013   -0.297725   -1.862188
    114          6           0      -21.953476    1.027014   -1.366674
    115          6           0      -23.185877    0.997831   -0.669720
    116          6           0      -20.646018   -0.772408   -2.745243
    117          6           0      -21.358667    2.321727   -1.269935
    118          8           0      -20.362955    2.841776   -1.766396
    119          6           0      -22.426217    3.181559   -0.325238
    120          6           0      -21.681203    3.771990    0.857127
    121          8           0      -21.397351    3.140838    1.856268
    122          8           0      -21.471113    5.120693    0.680123
    123          6           0      -20.461393    5.790693    1.493216
    124          1           0      -28.576775    1.997133    2.397635
    125          1           0      -28.554910   -3.951863   -0.364125
    126          1           0      -22.584483   -3.098159   -2.348810
    127          1           0      -24.567860    4.288313    1.676229
    128          1           0      -27.381937    4.075168    1.488735
    129          1           0      -26.693206    2.773526    3.845458
    130          1           0      -27.240960    4.424959    3.749467
    131          1           0      -25.503479    4.075387    3.844891
    132          1           0      -26.602561    4.810773   -0.452042
    133          1           0      -24.943229    4.559527   -0.975285
    134          1           0      -26.319766    6.853418    0.198788
    135          1           0      -24.601859    6.773518   -0.372106
    136          1           0      -31.238514   -0.493685    3.053970
    137          1           0      -31.529355    0.714455    1.820394
    138          1           0      -30.487836    1.084742    3.087776
    139          1           0      -32.658541   -2.072416    1.404428
    140          1           0      -32.012999   -2.726948    2.952609
    141          1           0      -32.714047   -3.663175    1.572297
    142          1           0      -26.831233   -4.875013   -2.277214
    143          1           0      -24.077688   -5.119271   -1.175642
    144          1           0      -27.346796   -6.496183   -1.015523
    145          1           0      -26.534046   -5.729862    0.396047
    146          1           0      -25.662071   -6.740469   -0.650361
    147          1           0      -24.660974   -5.857798   -3.542828
    148          1           0      -23.280834   -4.729006   -3.576367
    149          1           0      -24.380269   -3.392766   -4.954836
    150          1           0      -25.774089   -3.283260   -3.808893
    151          1           0      -25.836152   -4.495850   -5.032773
    152          1           0      -20.331971   -0.017992   -3.466023
    153          1           0      -20.951605   -1.595263   -3.390848
    154          1           0      -19.851467   -1.139966   -2.095286
    155          1           0      -22.734657    4.011156   -0.961938
    156          1           0      -20.546664    5.373712    2.497034
    157          1           0      -20.583051    6.870753    1.576228
    158          1           0      -19.513733    5.608814    0.986243
 ---------------------------------------------------------------------

 SCF Done:  E(RwB97XD) =  -4070.61091716     A.U. after   18 cycles

 Excitation energies and oscillator strengths:

 Excited State   1:      Singlet-A      1.6020 eV  773.95 nm  f=0.4022  <S**2>=0.000
     309 -> 316        0.17292
     311 -> 313        0.68565
     309 <- 316        0.11419
 This state for optimization and/or second-order correction.
 Total Energy, E(TD-HF/TD-DFT) =  -4070.55204620
 Copying the excited state density for this state as the 1-particle RhoCI density.

 Excited State   2:      Singlet-A      1.7237 eV  719.29 nm  f=0.3805  <S**2>=0.000
     310 -> 315        0.18634
     312 -> 314        0.68177
     310 <- 315        0.11196

 Excited State   3:      Singlet-A      2.1364 eV  580.33 nm  f=0.1495  <S**2>=0.000
     309 -> 313        0.65482
     311 -> 316       -0.24834

 Excited State   4:      Singlet-A      2.1685 eV  571.76 nm  f=0.1032  <S**2>=0.000
     310 -> 314        0.63397
     312 -> 315       -0.29503

 Excited State   5:      Singlet-A      3.2948 eV  376.30 nm  f=0.0030  <S**2>=0.000
     306 -> 313        0.52483
     306 -> 316       -0.13535
     306 -> 318       -0.34592
     306 -> 319        0.20426

 The electronic state is 1-A.
 Alpha  occ. eigenvalues --  -46.95259 -46.94857 -19.30449 -19.29488 -19.24666
 Alpha  occ. eigenvalues --  -19.24406 -19.24187 -19.23863 -19.23427 -19.23091
 Alpha  occ. eigenvalues --  -14.47180 -14.47158 -14.46475 -14.45990 -14.44904
 Alpha  occ. eigenvalues --  -14.44446 -14.43961 -14.43535 -10.42962 -10.42437
 Alpha  occ. eigenvalues --  -10.39993 -10.39611 -10.39494 -10.39420 -10.35738
 Alpha  occ. eigenvalues --  -10.35663 -10.35647 -10.35455 -10.35269 -10.35131
 Alpha  occ. eigenvalues --  -10.34962 -10.34880 -10.34854 -10.34802 -10.34772
 Alpha  occ. eigenvalues --  -10.34554 -10.34479 -10.34347 -10.33838 -10.33737
 Alpha  occ. eigenvalues --  -10.33650 -10.33252 -10.33100 -10.33022 -10.32800
 Alpha  occ. eigenvalues --  -10.32762 -10.32699 -10.32636 -10.32348 -10.32329
 Alpha  occ. eigenvalues --  -10.32310 -10.32204 -10.32204 -10.32130 -10.32111
 Alpha  occ. eigenvalues --  -10.32042 -10.32009 -10.31993 -10.31824 -10.31737
 Alpha  occ. eigenvalues --  -10.31629 -10.31574 -10.31515 -10.31477 -10.31426
 Alpha  occ. eigenvalues --  -10.31047 -10.30982 -10.30897 -10.30650 -10.30584
 Alpha  occ. eigenvalues --  -10.30413 -10.30410 -10.30304 -10.30211 -10.30130
 Alpha  occ. eigenvalues --  -10.30124 -10.29886 -10.29715 -10.29688 -10.29439
 Alpha  occ. eigenvalues --  -10.29434 -10.29422 -10.29320 -10.29101 -10.28746
 Alpha  occ. eigenvalues --  -10.28629  -3.21271  -3.20886  -1.94831  -1.94477
 Alpha  occ. eigenvalues --   -1.94394  -1.94251  -1.94011  -1.93862  -1.19934
 Alpha  occ. eigenvalues --   -1.17616  -1.12347  -1.11682  -1.10643  -1.10558
 Alpha  occ. eigenvalues --   -1.09646  -1.08620  -1.07476  -1.06360  -1.06101
 Alpha  occ. eigenvalues --   -1.05483  -1.05236  -1.04764  -1.04131  -1.03317
 Alpha  occ. eigenvalues --   -0.94151  -0.93756  -0.91469  -0.91046  -0.90943
 Alpha  occ. eigenvalues --   -0.90675  -0.90415  -0.90115  -0.89689  -0.89282
 Alpha  occ. eigenvalues --   -0.88786  -0.88664  -0.87251  -0.87026  -0.86192
 Alpha  occ. eigenvalues --   -0.85705  -0.85341  -0.85228  -0.84755  -0.84652
 Alpha  occ. eigenvalues --   -0.84091  -0.82996  -0.82744  -0.82579  -0.82480
 Alpha  occ. eigenvalues --   -0.81967  -0.80776  -0.80674  -0.79392  -0.78857
 Alpha  occ. eigenvalues --   -0.78756  -0.78680  -0.78069  -0.77766  -0.77109
 Alpha  occ. eigenvalues --   -0.76940  -0.74512  -0.74175  -0.73787  -0.73043
 Alpha  occ. eigenvalues --   -0.71827  -0.71209  -0.71121  -0.70328  -0.70096
 Alpha  occ. eigenvalues --   -0.69575  -0.69524  -0.68951  -0.67753  -0.67212
 Alpha  occ. eigenvalues --   -0.67176  -0.66859  -0.66857  -0.66177  -0.66147
 Alpha  occ. eigenvalues --   -0.66061  -0.64349  -0.63634  -0.62998  -0.62939
 Alpha  occ. eigenvalues --   -0.61468  -0.61452  -0.60922  -0.60797  -0.60445
 Alpha  occ. eigenvalues --   -0.60049  -0.59758  -0.59625  -0.59396  -0.58920
 Alpha  occ. eigenvalues --   -0.58729  -0.57898  -0.57675  -0.57526  -0.56913
 Alpha  occ. eigenvalues --   -0.56788  -0.56740  -0.56196  -0.56105  -0.55855
 Alpha  occ. eigenvalues --   -0.55748  -0.55533  -0.55401  -0.54992  -0.54888
 Alpha  occ. eigenvalues --   -0.54684  -0.54569  -0.54493  -0.54473  -0.54278
 Alpha  occ. eigenvalues --   -0.54034  -0.53918  -0.53334  -0.53274  -0.52958
 Alpha  occ. eigenvalues --   -0.52610  -0.52537  -0.52394  -0.51997  -0.51955
 Alpha  occ. eigenvalues --   -0.51844  -0.51652  -0.51496  -0.51372  -0.51163
 Alpha  occ. eigenvalues --   -0.51116  -0.51027  -0.50935  -0.50671  -0.50579
 Alpha  occ. eigenvalues --   -0.50556  -0.50440  -0.50137  -0.50104  -0.49995
 Alpha  occ. eigenvalues --   -0.49828  -0.49713  -0.49673  -0.49355  -0.49314
 Alpha  occ. eigenvalues --   -0.48613  -0.48547  -0.48317  -0.48258  -0.48245
 Alpha  occ. eigenvalues --   -0.47990  -0.47783  -0.47749  -0.47509  -0.47389
 Alpha  occ. eigenvalues --   -0.47377  -0.47143  -0.47046  -0.46952  -0.46673
 Alpha  occ. eigenvalues --   -0.46535  -0.46416  -0.46283  -0.46185  -0.46149
 Alpha  occ. eigenvalues --   -0.45987  -0.45914  -0.45902  -0.45388  -0.45154
 Alpha  occ. eigenvalues --   -0.45115  -0.44987  -0.44966  -0.44731  -0.44523
 Alpha  occ. eigenvalues --   -0.44300  -0.44263  -0.43954  -0.43867  -0.43793
 Alpha  occ. eigenvalues --   -0.43610  -0.43570  -0.43509  -0.43283  -0.43132
 Alpha  occ. eigenvalues --   -0.42681  -0.42650  -0.42526  -0.42302  -0.41989
 Alpha  occ. eigenvalues --   -0.41954  -0.41711  -0.41516  -0.41390  -0.41153
 Alpha  occ. eigenvalues --   -0.40567  -0.40333  -0.39855  -0.39754  -0.39590
 Alpha  occ. eigenvalues --   -0.39260  -0.38902  -0.38686  -0.38349  -0.38266
 Alpha  occ. eigenvalues --   -0.37977  -0.37757  -0.36399  -0.36035  -0.35704
 Alpha  occ. eigenvalues --   -0.35506  -0.35253  -0.35130  -0.34112  -0.33805
 Alpha  occ. eigenvalues --   -0.33682  -0.32968  -0.32767  -0.32590  -0.32471
 Alpha  occ. eigenvalues --   -0.32248  -0.31648  -0.30809  -0.26039  -0.25846
 Alpha  occ. eigenvalues --   -0.23191  -0.22994
 Alpha virt. eigenvalues --   -0.07608  -0.06844   0.00074   0.00517   0.01871
 Alpha virt. eigenvalues --    0.02005   0.04080   0.04184   0.04674   0.05796
 Alpha virt. eigenvalues --    0.07369   0.07716   0.07767   0.08355   0.08556

 Mulliken charges:
               1
     1  Mg   0.972781
     2  C    0.039633
     3  C   -0.094866
     4  C   -0.084775
     5  C   -0.089050
     6  N   -0.280163
     7  C   -0.033796
     8  C   -0.039370
     9  C   -0.125384
    10  C    0.009651
    11  C    0.001873
    12  C   -0.006533
    13  C   -0.125454
    14  H    0.045846
    15  N   -0.445360
    16  C    0.189174
    17  C   -0.135210
    18  C   -0.078174
    19  C    0.174185
    20  C    0.050510
    21  C    0.084283
    22  O   -0.232487
    23  C   -0.006894
    24  N   -0.424777
    25  C    0.030773
    26  C   -0.065447
    27  C   -0.064772
    28  C    0.113691
    29  C    0.012684
    30  C   -0.040733
    31  C   -0.047852
    32  N   -0.454792
    33  C    0.145731
    34  C   -0.198919
    35  C   -0.045549
    36  C    0.123060
    37  C    0.077674
    38  C    0.112871
    39  O   -0.226538
    40  C   -0.112870
    41  C    0.232976
    42  O   -0.268664
    43  O   -0.310142
    44  C    0.148276
    45  H    0.001874
    46  H    0.016066
    47  H   -0.006148
    48  H    0.060605
    49  H    0.045632
    50  H    0.052675
    51  H    0.037779
    52  H    0.037483
    53  H    0.038508
    54  H    0.032748
    55  H    0.062019
    56  H    0.051792
    57  H    0.054662
    58  H    0.035478
    59  H    0.048387
    60  H    0.039678
    61  H    0.049815
    62  H    0.061293
    63  H    0.054001
    64  H    0.031665
    65  H    0.057274
    66  H    0.025250
    67  H    0.035174
    68  H    0.036552
    69  H    0.031269
    70  H    0.037275
    71  H    0.043622
    72  H    0.025459
    73  H    0.056340
    74  H    0.061411
    75  H    0.025352
    76  H    0.075612
    77  H    0.050754
    78  H    0.052455
    79  H    0.053088
    80  Mg   0.971837
    81  C    0.007035
    82  C   -0.061578
    83  C   -0.062970
    84  C   -0.063018
    85  N   -0.337704
    86  C   -0.003294
    87  C   -0.035419
    88  C   -0.097861
    89  C    0.010348
    90  C    0.027395
    91  C   -0.006667
    92  C   -0.129155
    93  H    0.034090
    94  N   -0.495063
    95  C    0.189698
    96  C   -0.136926
    97  C   -0.054420
    98  C    0.137768
    99  C    0.059033
   100  C    0.036215
   101  O   -0.271636
   102  C   -0.007017
   103  N   -0.340681
   104  C    0.077585
   105  C   -0.129579
   106  C   -0.020039
   107  C    0.012629
   108  C    0.021351
   109  C   -0.019691
   110  C   -0.045859
   111  N   -0.428830
   112  C    0.150623
   113  C   -0.205197
   114  C    0.004362
   115  C    0.122915
   116  C    0.072292
   117  C    0.116730
   118  O   -0.207617
   119  C   -0.128545
   120  C    0.274816
   121  O   -0.237562
   122  O   -0.379802
   123  C    0.133597
   124  H   -0.003006
   125  H    0.023065
   126  H   -0.004372
   127  H    0.030745
   128  H    0.033142
   129  H    0.030645
   130  H    0.034882
   131  H    0.058461
   132  H    0.029801
   133  H    0.037212
   134  H    0.054526
   135  H    0.069164
   136  H    0.037158
   137  H    0.051152
   138  H    0.045664
   139  H    0.030970
   140  H    0.073528
   141  H    0.048611
   142  H    0.037212
   143  H    0.038767
   144  H    0.043491
   145  H    0.041852
   146  H    0.022293
   147  H    0.033291
   148  H    0.039445
   149  H    0.046934
   150  H    0.038540
   151  H    0.043020
   152  H    0.057627
   153  H    0.018510
   154  H    0.059389
   155  H    0.065573
   156  H    0.060228
   157  H    0.053713
   158  H    0.064580
 Sum of Mulliken charges =  -0.00000

 Dipole moment (field-independent basis, Debye):
    X=             -5.6820    Y=              2.2196    Z=              4.4836  Tot=              7.5707
 Quadrupole moment (field-independent basis, Debye-Ang):
   XX=           -323.2072   YY=           -478.4645   ZZ=           -494.6998
   XY=            -64.6843   XZ=            146.6668   YZ=             47.5727

 Normal termination of Gaussian 16 at Mon Sep 20 13:28:26 2021.
