 Gaussian 16, Revision A.03,
 Gaussian 16:  ES64L-G16RevA.03 25-Dec-2016

 --------------------------------
 #p wB97XD/Def2SVP td=(nstates=5)
 --------------------------------

 --------------------------------
 TDDFT excited states in gaussian
 --------------------------------
 Symbolic Z-matrix:
 Charge =  0 Multiplicity = 1

                         Standard orientation:
 ---------------------------------------------------------------------
 Center     Atomic      Atomic             Coordinates (Angstroms)
 Number     Number       Type             X           Y           Z
 ---------------------------------------------------------------------
      1         12           0       28.942696   -0.400346   -0.682980
      2          6           0       29.415911    1.830843    2.075658
      3          6           0       28.234697   -2.835245    1.600234
      4          6           0       28.964713   -2.490917   -3.067440
      5          6           0       30.758315    1.852439   -2.625697
      6          7           0       28.865481   -0.381365    1.529332
      7          6           0       29.008900    0.552606    2.464372
      8          6           0       28.612459    0.065425    3.890157
      9          6           0       28.820688   -1.502234    3.687467
     10          6           0       28.592232   -1.585812    2.188552
     11          6           0       30.238359   -1.973371    3.995269
     12          6           0       27.125028    0.404978    4.242268
     13          6           0       26.754061    0.259580    5.720982
     14          1           0       25.800957    1.194845    6.299101
     15          7           0       28.188275   -2.222678   -0.796128
     16          6           0       27.952024   -3.066942    0.236679
     17          6           0       27.389084   -4.296169   -0.362303
     18          6           0       27.494012   -4.170286   -1.842585
     19          6           0       28.253518   -2.951993   -1.962127
     20          6           0       26.786872   -5.404134    0.446094
     21          6           0       26.998817   -5.019596   -2.970232
     22          8           0       27.397608   -4.852698   -4.173430
     23          6           0       26.090255   -6.123559   -2.611314
     24          7           0       29.928581   -0.445991   -2.522432
     25          6           0       29.717674   -1.438448   -3.393943
     26          6           0       30.302124   -1.118422   -4.737796
     27          6           0       30.748860    0.413203   -4.672187
     28          6           0       30.397306    0.698330   -3.191180
     29          6           0       31.496239   -1.980218   -5.170703
     30          6           0       30.180826    1.358607   -5.760290
     31          6           0       28.688812    1.519160   -5.572627
     32          7           0       29.772682    1.586933   -0.412995
     33          6           0       30.510761    2.326611   -1.348296
     34          6           0       30.948592    3.562239   -0.673317
     35          6           0       30.445563    3.447109    0.621114
     36          6           0       29.760717    2.205535    0.754430
     37          6           0       31.762186    4.580312   -1.244305
     38          6           0       30.348377    4.073017    1.929797
     39          8           0       30.656363    5.173523    2.389714
     40          6           0       29.782639    2.997468    2.958856
     41          6           0       28.682942    3.656297    3.746207
     42          8           0       27.616381    3.996131    3.194549
     43          8           0       28.959520    3.567497    5.056230
     44          6           0       27.893083    4.176232    5.895461
     45          1           0       28.227079   -3.730150    2.225557
     46          1           0       28.904018   -3.133129   -3.948528
     47          1           0       31.256239    2.640610   -3.193421
     48          1           0       29.259186    0.426535    4.690012
     49          1           0       28.068117   -2.084744    4.218543
     50          1           0       30.906608   -1.132220    4.179196
     51          1           0       30.558633   -2.528219    3.113191
     52          1           0       30.238495   -2.690376    4.816658
     53          1           0       26.471538   -0.353657    3.811587
     54          1           0       26.867816    1.409031    3.903083
     55          1           0       27.642085    0.182114    6.348932
     56          1           0       26.244763   -0.695077    5.853067
     57          1           0       27.003424   -5.288926    1.507403
     58          1           0       27.301604   -6.321732    0.161887
     59          1           0       25.717469   -5.510871    0.263565
     60          1           0       26.593314   -6.790334   -1.910678
     61          1           0       25.768399   -6.566419   -3.553192
     62          1           0       25.229730   -5.714457   -2.081144
     63          1           0       29.560362   -1.240705   -5.525999
     64          1           0       31.829654    0.528054   -4.758020
     65          1           0       31.344465   -2.493167   -6.120731
     66          1           0       31.706231   -2.690802   -4.371788
     67          1           0       32.443676   -1.446457   -5.240555
     68          1           0       30.335483    0.932625   -6.751030
     69          1           0       30.636178    2.348963   -5.750324
     70          1           0       28.284067    0.644493   -6.080535
     71          1           0       28.342939    2.439465   -6.044455
     72          1           0       28.409414    1.443952   -4.521549
     73          1           0       31.315986    5.529495   -0.947783
     74          1           0       31.810283    4.486917   -2.329002
     75          1           0       32.717407    4.368429   -0.764185
     76          1           0       30.617844    2.699941    3.592126
     77          1           0       28.370304    4.925377    6.527343
     78          1           0       27.378519    3.351548    6.388943
     79          1           0       27.157351    4.787397    5.371520
     80         12           0      -29.599965    0.471833    0.216474
     81          6           0      -26.599179   -1.356790    0.541747
     82          6           0      -27.771967    3.122379   -1.125431
     83          6           0      -32.530188    1.721651   -0.994364
     84          6           0      -31.297622   -2.549456    1.121808
     85          7           0      -27.472609    0.820124   -0.187963
     86          6           0      -26.458207   -0.052168   -0.007919
     87          6           0      -25.116434    0.523343   -0.567040
     88          6           0      -25.510143    2.064312   -0.719080
     89          6           0      -27.071266    2.047651   -0.643501
     90          6           0      -25.026376    3.111263    0.309791
     91          6           0      -24.778658   -0.199640   -1.925506
     92          6           0      -23.260849   -0.442462   -2.153475
     93          1           0      -22.745137   -0.203489   -3.630833
     94          7           0      -30.135446    2.329204   -0.755338
     95          6           0      -29.214892    3.261371   -1.154903
     96          6           0      -29.944994    4.347478   -1.689246
     97          6           0      -31.325387    3.992713   -1.750789
     98          6           0      -31.417094    2.641009   -1.103936
     99          6           0      -29.336315    5.631372   -2.201669
    100          6           0      -32.409517    4.735630   -2.454334
    101          8           0      -32.181089    5.730680   -3.123244
    102          6           0      -33.793535    4.340074   -2.483567
    103          7           0      -31.630069   -0.399815    0.000267
    104          6           0      -32.682832    0.439841   -0.392540
    105          6           0      -34.002161   -0.230959   -0.169620
    106          6           0      -33.638736   -1.631981    0.447629
    107          6           0      -32.124416   -1.556523    0.539111
    108          6           0      -34.865970    0.655499    0.736630
    109          6           0      -34.330698   -2.844898   -0.281112
    110          6           0      -35.180333   -3.746588    0.562137
    111          7           0      -29.097658   -1.583802    0.779344
    112          6           0      -29.902832   -2.629872    1.157990
    113          6           0      -29.084254   -3.757559    1.654967
    114          6           0      -27.783891   -3.276180    1.348064
    115          6           0      -27.851488   -1.964185    0.918161
    116          6           0      -29.521230   -5.129361    2.144447
    117          6           0      -26.409507   -3.694511    1.269081
    118          8           0      -25.898238   -4.798943    1.511347
    119          6           0      -25.561324   -2.520795    0.780060
    120          6           0      -24.477900   -2.210727    1.731458
    121          8           0      -23.340599   -2.240440    1.427732
    122          8           0      -24.920208   -1.701579    2.918098
    123          6           0      -23.791478   -1.171828    3.713611
    124          1           0      -27.225358    4.000301   -1.477351
    125          1           0      -33.442778    2.223094   -1.320409
    126          1           0      -31.631161   -3.555510    1.386754
    127          1           0      -24.337474    0.344488    0.174336
    128          1           0      -25.455919    2.460340   -1.733011
    129          1           0      -24.836540    2.636827    1.273261
    130          1           0      -25.675564    3.972681    0.467005
    131          1           0      -24.066780    3.466901   -0.063925
    132          1           0      -25.211694    0.339076   -2.768816
    133          1           0      -25.295885   -1.156888   -1.859575
    134          1           0      -23.129618   -1.486771   -1.869565
    135          1           0      -22.802268    0.186940   -1.390489
    136          1           0      -29.996155    6.498257   -2.238905
    137          1           0      -28.999636    5.367689   -3.203911
    138          1           0      -28.361948    5.905095   -1.796917
    139          1           0      -34.143477    4.346526   -1.450494
    140          1           0      -33.916577    3.370713   -2.967434
    141          1           0      -34.348730    5.072832   -3.069238
    142          1           0      -34.471244   -0.480064   -1.121164
    143          1           0      -33.773715   -1.761254    1.521712
    144          1           0      -34.489938    1.674833    0.827451
    145          1           0      -34.910101    0.269816    1.755159
    146          1           0      -35.815003    0.863016    0.243181
    147          1           0      -33.504971   -3.401847   -0.723941
    148          1           0      -35.072739   -2.550444   -1.022355
    149          1           0      -34.805593   -4.760372    0.423609
    150          1           0      -36.218608   -3.753933    0.229908
    151          1           0      -35.254358   -3.420876    1.599743
    152          1           0      -29.710909   -5.826883    1.328360
    153          1           0      -30.367643   -5.091775    2.831365
    154          1           0      -28.602360   -5.479866    2.614309
    155          1           0      -25.010981   -2.814207   -0.112958
    156          1           0      -24.199656   -0.779415    4.645374
    157          1           0      -23.265034   -0.391731    3.163871
    158          1           0      -23.099258   -1.932424    4.073107
 ---------------------------------------------------------------------

 SCF Done:  E(RwB97XD) =  -4070.58790162     A.U. after   20 cycles

 Excitation energies and oscillator strengths:

 Excited State   1:      Singlet-A      1.6192 eV  765.70 nm  f=0.3611  <S**2>=0.000
     309 -> 315        0.17832
     311 -> 313        0.68248
     309 <- 315        0.11610
 This state for optimization and/or second-order correction.
 Total Energy, E(TD-HF/TD-DFT) =  -4070.52839645
 Copying the excited state density for this state as the 1-particle RhoCI density.

 Excited State   2:      Singlet-A      1.6216 eV  764.56 nm  f=0.4318  <S**2>=0.000
     310 -> 316        0.18124
     312 -> 314        0.68112
     310 <- 316        0.11418

 Excited State   3:      Singlet-A      2.1386 eV  579.75 nm  f=0.0956  <S**2>=0.000
     310 -> 314        0.63842
     312 -> 316       -0.28188

 Excited State   4:      Singlet-A      2.1452 eV  577.97 nm  f=0.1101  <S**2>=0.000
     309 -> 313        0.63979
     311 -> 315       -0.28470

 Excited State   5:      Singlet-A      3.2206 eV  384.98 nm  f=0.0034  <S**2>=0.000
     303 -> 313       -0.13487
     305 -> 313       -0.11709
     308 -> 313        0.65582
     308 -> 318       -0.10334

 The electronic state is 1-A.
 Alpha  occ. eigenvalues --  -46.97177 -46.94099 -19.31472 -19.30358 -19.24864
 Alpha  occ. eigenvalues --  -19.23964 -19.23961 -19.23858 -19.23197 -19.22321
 Alpha  occ. eigenvalues --  -14.47615 -14.47287 -14.47017 -14.46024 -14.44493
 Alpha  occ. eigenvalues --  -14.43993 -14.43909 -14.43133 -10.42910 -10.42582
 Alpha  occ. eigenvalues --  -10.39403 -10.38840 -10.38384 -10.37417 -10.36317
 Alpha  occ. eigenvalues --  -10.36024 -10.35895 -10.35590 -10.35425 -10.35405
 Alpha  occ. eigenvalues --  -10.35108 -10.35015 -10.34881 -10.34584 -10.34517
 Alpha  occ. eigenvalues --  -10.34255 -10.34169 -10.33877 -10.33868 -10.33802
 Alpha  occ. eigenvalues --  -10.33535 -10.33217 -10.33125 -10.33122 -10.33085
 Alpha  occ. eigenvalues --  -10.32788 -10.32773 -10.32592 -10.32510 -10.32504
 Alpha  occ. eigenvalues --  -10.32439 -10.32305 -10.32292 -10.32208 -10.32120
 Alpha  occ. eigenvalues --  -10.31855 -10.31840 -10.31763 -10.31683 -10.31585
 Alpha  occ. eigenvalues --  -10.31567 -10.31523 -10.31484 -10.31447 -10.31401
 Alpha  occ. eigenvalues --  -10.31163 -10.30987 -10.30917 -10.30768 -10.30748
 Alpha  occ. eigenvalues --  -10.30607 -10.30399 -10.30264 -10.30247 -10.30055
 Alpha  occ. eigenvalues --  -10.30045 -10.29966 -10.29651 -10.29575 -10.29546
 Alpha  occ. eigenvalues --  -10.29248 -10.29175 -10.29142 -10.28840 -10.28778
 Alpha  occ. eigenvalues --  -10.28449  -3.22820  -3.20258  -1.96413  -1.95912
 Alpha  occ. eigenvalues --   -1.95772  -1.93835  -1.93402  -1.93239  -1.20157
 Alpha  occ. eigenvalues --   -1.18795  -1.11737  -1.11277  -1.11235  -1.10825
 Alpha  occ. eigenvalues --   -1.09405  -1.08807  -1.07189  -1.06541  -1.05763
 Alpha  occ. eigenvalues --   -1.05742  -1.05454  -1.05230  -1.04574  -1.04409
 Alpha  occ. eigenvalues --   -0.94650  -0.93900  -0.91383  -0.91301  -0.91021
 Alpha  occ. eigenvalues --   -0.90969  -0.90142  -0.90136  -0.89972  -0.89762
 Alpha  occ. eigenvalues --   -0.89562  -0.89201  -0.89009  -0.87768  -0.86848
 Alpha  occ. eigenvalues --   -0.86797  -0.86612  -0.85786  -0.84867  -0.84647
 Alpha  occ. eigenvalues --   -0.84532  -0.84414  -0.83493  -0.82907  -0.82538
 Alpha  occ. eigenvalues --   -0.82525  -0.80742  -0.80626  -0.79570  -0.79112
 Alpha  occ. eigenvalues --   -0.78820  -0.78818  -0.78427  -0.77826  -0.77378
 Alpha  occ. eigenvalues --   -0.76784  -0.75171  -0.74723  -0.74513  -0.73601
 Alpha  occ. eigenvalues --   -0.71768  -0.71376  -0.71214  -0.70802  -0.69943
 Alpha  occ. eigenvalues --   -0.69618  -0.69144  -0.68863  -0.68307  -0.67667
 Alpha  occ. eigenvalues --   -0.67191  -0.67025  -0.66809  -0.66668  -0.66564
 Alpha  occ. eigenvalues --   -0.66196  -0.65330  -0.64250  -0.62407  -0.62107
 Alpha  occ. eigenvalues --   -0.62043  -0.61729  -0.61004  -0.60942  -0.60886
 Alpha  occ. eigenvalues --   -0.60464  -0.60296  -0.59517  -0.59240  -0.59069
 Alpha  occ. eigenvalues --   -0.58469  -0.58264  -0.58042  -0.57829  -0.57556
 Alpha  occ. eigenvalues --   -0.57464  -0.57232  -0.57095  -0.56526  -0.56438
 Alpha  occ. eigenvalues --   -0.55784  -0.55510  -0.55332  -0.55213  -0.55133
 Alpha  occ. eigenvalues --   -0.55109  -0.54846  -0.54787  -0.54650  -0.54585
 Alpha  occ. eigenvalues --   -0.54293  -0.54225  -0.53805  -0.53689  -0.53500
 Alpha  occ. eigenvalues --   -0.53452  -0.53297  -0.53100  -0.52839  -0.52505
 Alpha  occ. eigenvalues --   -0.51984  -0.51913  -0.51849  -0.51801  -0.51555
 Alpha  occ. eigenvalues --   -0.51419  -0.51253  -0.51141  -0.51046  -0.50987
 Alpha  occ. eigenvalues --   -0.50580  -0.50485  -0.50392  -0.50354  -0.50338
 Alpha  occ. eigenvalues --   -0.50119  -0.49591  -0.49475  -0.49271  -0.49213
 Alpha  occ. eigenvalues --   -0.48956  -0.48726  -0.48667  -0.48637  -0.48446
 Alpha  occ. eigenvalues --   -0.48284  -0.48283  -0.48264  -0.48073  -0.47706
 Alpha  occ. eigenvalues --   -0.47695  -0.47111  -0.47075  -0.47052  -0.46814
 Alpha  occ. eigenvalues --   -0.46651  -0.46473  -0.46384  -0.46313  -0.46022
 Alpha  occ. eigenvalues --   -0.46007  -0.45967  -0.45910  -0.45543  -0.45350
 Alpha  occ. eigenvalues --   -0.45317  -0.45295  -0.44941  -0.44933  -0.44830
 Alpha  occ. eigenvalues --   -0.44629  -0.44564  -0.44533  -0.44355  -0.43886
 Alpha  occ. eigenvalues --   -0.43712  -0.43681  -0.43399  -0.43315  -0.43000
 Alpha  occ. eigenvalues --   -0.42915  -0.42832  -0.42711  -0.42659  -0.42423
 Alpha  occ. eigenvalues --   -0.42094  -0.42076  -0.41554  -0.41354  -0.41143
 Alpha  occ. eigenvalues --   -0.40600  -0.40332  -0.39938  -0.39674  -0.39660
 Alpha  occ. eigenvalues --   -0.39328  -0.39256  -0.39161  -0.38952  -0.38683
 Alpha  occ. eigenvalues --   -0.38347  -0.38160  -0.36921  -0.36256  -0.36146
 Alpha  occ. eigenvalues --   -0.35767  -0.35752  -0.35317  -0.33727  -0.33327
 Alpha  occ. eigenvalues --   -0.33158  -0.32993  -0.32621  -0.31976  -0.31924
 Alpha  occ. eigenvalues --   -0.31590  -0.31453  -0.31343  -0.26441  -0.25978
 Alpha  occ. eigenvalues --   -0.23380  -0.22896
 Alpha virt. eigenvalues --   -0.07770  -0.07079  -0.00355   0.00207   0.02011
 Alpha virt. eigenvalues --    0.02317   0.04338   0.04399   0.04536   0.06293
 Alpha virt. eigenvalues --    0.07129   0.07262   0.07284   0.07990   0.08196

 Mulliken charges:
               1
     1  Mg   0.978145
     2  C   -0.019820
     3  C   -0.101213
     4  C   -0.061245
     5  C   -0.071021
     6  N   -0.323252
     7  C   -0.008588
     8  C   -0.058176
     9  C   -0.138046
    10  C    0.061811
    11  C    0.058254
    12  C    0.014041
    13  C   -0.126938
    14  H    0.052386
    15  N   -0.518334
    16  C    0.183429
    17  C   -0.195972
    18  C   -0.036971
    19  C    0.166596
    20  C    0.060697
    21  C    0.056621
    22  O   -0.280025
    23  C    0.001843
    24  N   -0.409968
    25  C    0.066123
    26  C   -0.084857
    27  C   -0.063878
    28  C    0.089615
    29  C    0.031874
    30  C   -0.016720
    31  C   -0.058139
    32  N   -0.398531
    33  C    0.097382
    34  C   -0.187916
    35  C   -0.040113
    36  C    0.126126
    37  C    0.081436
    38  C    0.128847
    39  O   -0.224756
    40  C   -0.076893
    41  C    0.275818
    42  O   -0.284566
    43  O   -0.335617
    44  C    0.120589
    45  H    0.007869
    46  H    0.010664
    47  H   -0.017352
    48  H    0.026005
    49  H    0.022613
    50  H    0.047111
    51  H    0.037798
    52  H    0.040088
    53  H    0.035389
    54  H    0.067705
    55  H    0.038941
    56  H    0.040614
    57  H    0.029661
    58  H    0.049005
    59  H    0.062162
    60  H    0.057788
    61  H    0.061837
    62  H    0.053023
    63  H    0.042948
    64  H    0.035659
    65  H    0.045323
    66  H    0.034323
    67  H    0.025705
    68  H    0.032613
    69  H    0.029409
    70  H    0.029227
    71  H    0.042204
    72  H    0.049656
    73  H    0.070894
    74  H    0.031400
    75  H    0.069395
    76  H    0.065860
    77  H    0.061278
    78  H    0.062825
    79  H    0.070282
    80  Mg   0.930696
    81  C   -0.012333
    82  C   -0.078737
    83  C   -0.029802
    84  C   -0.055261
    85  N   -0.359405
    86  C   -0.011327
    87  C   -0.090438
    88  C   -0.100389
    89  C    0.079478
    90  C    0.032994
    91  C    0.011805
    92  C   -0.107052
    93  H    0.041740
    94  N   -0.446580
    95  C    0.131668
    96  C   -0.166280
    97  C   -0.071322
    98  C    0.121636
    99  C    0.092350
   100  C   -0.000498
   101  O   -0.245881
   102  C    0.011480
   103  N   -0.354281
   104  C    0.049208
   105  C   -0.068680
   106  C   -0.054147
   107  C    0.053359
   108  C    0.028791
   109  C   -0.008420
   110  C   -0.059102
   111  N   -0.367975
   112  C    0.038714
   113  C   -0.158645
   114  C   -0.038475
   115  C    0.117337
   116  C    0.062075
   117  C    0.094528
   118  O   -0.225733
   119  C   -0.017565
   120  C    0.221557
   121  O   -0.212642
   122  O   -0.366517
   123  C    0.140018
   124  H    0.006076
   125  H   -0.031073
   126  H   -0.001355
   127  H    0.038027
   128  H    0.035488
   129  H    0.032285
   130  H    0.046126
   131  H    0.040155
   132  H    0.042489
   133  H    0.036084
   134  H    0.065944
   135  H    0.053282
   136  H    0.070796
   137  H    0.039809
   138  H    0.017328
   139  H    0.051088
   140  H    0.064283
   141  H    0.052284
   142  H    0.047996
   143  H    0.037671
   144  H    0.035139
   145  H    0.041426
   146  H    0.037079
   147  H    0.041959
   148  H    0.039585
   149  H    0.042337
   150  H    0.030774
   151  H    0.032995
   152  H    0.064840
   153  H    0.051570
   154  H    0.065763
   155  H    0.062064
   156  H    0.046739
   157  H    0.053342
   158  H    0.057661
 Sum of Mulliken charges =  -0.00000

 Dipole moment (field-independent basis, Debye):
    X=             -4.2873    Y=             -3.8173    Z=              4.3215  Tot=              7.1852
 Quadrupole moment (field-independent basis, Debye-Ang):
   XX=           -258.6105   YY=           -555.2706   ZZ=           -488.9354
   XY=            -99.8469   XZ=            -49.0836   YZ=            -10.3213

 Normal termination of Gaussian 16 at Sun Sep 19 08:03:02 2021.
