 Gaussian 16, Revision A.03,
 Gaussian 16:  ES64L-G16RevA.03 25-Dec-2016

 --------------------------------
 #p wB97XD/Def2SVP td=(nstates=5)
 --------------------------------

 --------------------------------
 TDDFT excited states in gaussian
 --------------------------------
 Symbolic Z-matrix:
 Charge =  0 Multiplicity = 1

                         Standard orientation:
 ---------------------------------------------------------------------
 Center     Atomic      Atomic             Coordinates (Angstroms)
 Number     Number       Type             X           Y           Z
 ---------------------------------------------------------------------
      1         12           0       25.012017   -0.369177   -0.678633
      2          6           0       23.377602    1.343918    2.012760
      3          6           0       25.275544   -3.024533    1.234799
      4          6           0       27.173427   -1.463310   -2.940405
      5          6           0       24.914207    2.852592   -2.450461
      6          7           0       24.347994   -0.791042    1.374995
      7          6           0       23.727379    0.040797    2.328109
      8          6           0       23.461400   -0.665232    3.711191
      9          6           0       24.070269   -2.150970    3.332387
     10          6           0       24.591762   -2.030757    1.903893
     11          6           0       25.233578   -2.595423    4.319114
     12          6           0       21.976144   -0.644499    4.214720
     13          6           0       21.632856   -1.650017    5.307305
     14          1           0       21.275654   -1.023988    6.667847
     15          7           0       26.002175   -2.069624   -0.872285
     16          6           0       26.012739   -3.134208   -0.001961
     17          6           0       26.809445   -4.239428   -0.491441
     18          6           0       27.351229   -3.747662   -1.744541
     19          6           0       26.767924   -2.370543   -1.924262
     20          6           0       26.950236   -5.553251    0.120461
     21          6           0       28.262429   -4.431135   -2.749259
     22          8           0       28.554120   -3.967832   -3.816023
     23          6           0       28.864978   -5.726192   -2.273118
     24          7           0       25.970581    0.588142   -2.420708
     25          6           0       26.810848   -0.137290   -3.200966
     26          6           0       27.253739    0.676041   -4.446539
     27          6           0       26.402458    1.986220   -4.311317
     28          6           0       25.665610    1.793431   -2.999876
     29          6           0       28.781096    0.971401   -4.632394
     30          6           0       25.388123    2.275127   -5.473590
     31          6           0       26.059969    2.833571   -6.747548
     32          7           0       24.349050    1.670516   -0.360987
     33          6           0       24.304917    2.791225   -1.157900
     34          6           0       23.589739    3.802647   -0.486835
     35          6           0       23.255778    3.352810    0.735318
     36          6           0       23.754189    2.017506    0.821052
     37          6           0       23.251298    5.118848   -1.174591
     38          6           0       22.659066    3.619872    2.047907
     39          8           0       22.144734    4.616447    2.485988
     40          6           0       22.752693    2.287763    2.934265
     41          6           0       23.723872    2.558243    4.038807
     42          8           0       24.928661    2.457283    4.096486
     43          8           0       22.938229    2.939031    5.108569
     44          6           0       23.636056    3.256913    6.377125
     45          1           0       25.457679   -3.934271    1.810491
     46          1           0       27.997069   -1.821781   -3.562506
     47          1           0       24.877729    3.692933   -3.147586
     48          1           0       24.148843   -0.234103    4.439150
     49          1           0       23.267148   -2.879511    3.445844
     50          1           0       25.087931   -3.637836    4.601999
     51          1           0       25.416213   -2.010814    5.220371
     52          1           0       26.184100   -2.633106    3.787846
     53          1           0       21.458347   -0.792558    3.266161
     54          1           0       21.553542    0.304420    4.545690
     55          1           0       22.483407   -2.314076    5.458624
     56          1           0       20.705060   -2.153395    5.036860
     57          1           0       26.462236   -6.156191   -0.645287
     58          1           0       26.476446   -5.583188    1.101768
     59          1           0       27.956168   -5.950404    0.254848
     60          1           0       28.241901   -6.556536   -2.605121
     61          1           0       29.291266   -5.668253   -1.271188
     62          1           0       29.859536   -5.706694   -2.717846
     63          1           0       26.762829    0.187661   -5.288847
     64          1           0       27.070960    2.822114   -4.104005
     65          1           0       29.067533    2.022279   -4.682900
     66          1           0       29.018529    0.616207   -5.634924
     67          1           0       29.437793    0.525561   -3.885357
     68          1           0       24.666835    3.021992   -5.143770
     69          1           0       24.868619    1.329034   -5.631895
     70          1           0       27.024949    3.278983   -6.504858
     71          1           0       25.349359    3.543824   -7.170081
     72          1           0       26.301714    2.076211   -7.493846
     73          1           0       22.350939    5.564580   -0.751627
     74          1           0       23.149731    4.938540   -2.244814
     75          1           0       24.098449    5.803050   -1.121715
     76          1           0       21.775225    1.982453    3.308441
     77          1           0       23.115893    4.123434    6.785190
     78          1           0       24.695513    3.485307    6.261946
     79          1           0       23.434043    2.334478    6.922440
     80         12           0      -25.563016    0.356821    0.156059
     81          6           0      -23.470238   -2.420029    0.103203
     82          6           0      -22.750452    2.330358    0.623303
     83          6           0      -27.342984    3.100950   -0.320050
     84          6           0      -28.211067   -1.653442   -0.805815
     85          7           0      -23.365276    0.025638    0.179572
     86          6           0      -22.749983   -1.205205    0.281227
     87          6           0      -21.285678   -1.100588    0.589726
     88          6           0      -21.177099    0.396136    1.122002
     89          6           0      -22.474710    0.990470    0.590749
     90          6           0      -20.781327    0.733219    2.637533
     91          6           0      -20.303241   -1.492010   -0.609281
     92          6           0      -20.780844   -1.198564   -2.062630
     93          1           0      -19.706693   -0.648696   -2.970069
     94          7           0      -25.098859    2.440321    0.033131
     95          6           0      -23.862386    3.051748    0.275021
     96          6           0      -23.929529    4.473778    0.077626
     97          6           0      -25.285552    4.738824   -0.229023
     98          6           0      -25.993338    3.423963   -0.217400
     99          6           0      -22.750657    5.363796    0.474570
    100          6           0      -25.799791    6.176581   -0.468909
    101          8           0      -25.038196    7.148574   -0.500003
    102          6           0      -27.256986    6.325166   -0.601714
    103          7           0      -27.471009    0.618439   -0.595305
    104          6           0      -28.056807    1.861149   -0.422122
    105          6           0      -29.579709    1.850605   -0.679740
    106          6           0      -29.735560    0.321453   -1.061302
    107          6           0      -28.411591   -0.271569   -0.865242
    108          6           0      -30.512599    2.281439    0.407706
    109          6           0      -30.196695    0.099440   -2.589861
    110          6           0      -31.309226   -0.912362   -2.679382
    111          7           0      -25.898139   -1.684672   -0.093465
    112          6           0      -27.039522   -2.356468   -0.490247
    113          6           0      -26.764527   -3.808866   -0.578181
    114          6           0      -25.347180   -3.880641   -0.344133
    115          6           0      -24.905496   -2.581148   -0.069303
    116          6           0      -27.600671   -4.912422   -1.085997
    117          6           0      -24.136925   -4.729477   -0.321193
    118          8           0      -24.017959   -5.901966   -0.592310
    119          6           0      -22.899222   -3.833329    0.005677
    120          6           0      -22.202093   -4.341446    1.187768
    121          8           0      -21.053664   -4.769108    1.307060
    122          8           0      -23.187648   -4.542520    2.189500
    123          6           0      -22.677211   -5.004330    3.498123
    124          1           0      -21.893344    2.880606    1.018368
    125          1           0      -28.065187    3.919720   -0.304100
    126          1           0      -29.124634   -2.203900   -1.037450
    127          1           0      -21.014898   -1.804451    1.376640
    128          1           0      -20.367994    0.767417    0.492531
    129          1           0      -20.499675   -0.119310    3.255314
    130          1           0      -21.591290    1.179698    3.214201
    131          1           0      -19.851609    1.302784    2.646350
    132          1           0      -19.985596   -2.530390   -0.520454
    133          1           0      -19.378651   -0.943444   -0.429692
    134          1           0      -21.637561   -0.523993   -2.057705
    135          1           0      -21.119632   -2.121558   -2.532359
    136          1           0      -22.658063    6.267074   -0.129263
    137          1           0      -21.820118    4.832275    0.277092
    138          1           0      -22.928520    5.642461    1.513497
    139          1           0      -27.712967    6.142410    0.370858
    140          1           0      -27.627554    5.647280   -1.371283
    141          1           0      -27.407240    7.364780   -0.892652
    142          1           0      -29.752444    2.368544   -1.623428
    143          1           0      -30.345575   -0.060749   -0.242848
    144          1           0      -31.509064    1.990709    0.074683
    145          1           0      -30.518562    3.371440    0.408100
    146          1           0      -30.206759    1.856565    1.364498
    147          1           0      -29.302758   -0.195641   -3.139166
    148          1           0      -30.475554    0.987489   -3.158464
    149          1           0      -30.908877   -1.805717   -3.158091
    150          1           0      -32.061750   -0.637704   -3.419299
    151          1           0      -31.614372   -1.215103   -1.677924
    152          1           0      -28.604190   -4.636853   -1.413601
    153          1           0      -27.738281   -5.591468   -0.245250
    154          1           0      -27.056387   -5.164388   -1.995922
    155          1           0      -22.273583   -3.899952   -0.884092
    156          1           0      -23.220807   -4.360214    4.190244
    157          1           0      -21.616318   -4.944708    3.741292
    158          1           0      -23.152768   -5.974283    3.644685
 ---------------------------------------------------------------------

 SCF Done:  E(RwB97XD) =  -4070.61877361     A.U. after   19 cycles

 Excitation energies and oscillator strengths:

 Excited State   1:      Singlet-A      1.6367 eV  757.51 nm  f=0.3887  <S**2>=0.000
     310 -> 316        0.18393
     312 -> 314        0.68412
     310 <- 316        0.11741
 This state for optimization and/or second-order correction.
 Total Energy, E(TD-HF/TD-DFT) =  -4070.55862459
 Copying the excited state density for this state as the 1-particle RhoCI density.

 Excited State   2:      Singlet-A      1.6615 eV  746.20 nm  f=0.3774  <S**2>=0.000
     309 -> 315       -0.18777
     311 -> 313        0.68146
     309 <- 315       -0.11477

 Excited State   3:      Singlet-A      2.1479 eV  577.23 nm  f=0.0866  <S**2>=0.000
     309 -> 313        0.62819
     311 -> 315        0.30711

 Excited State   4:      Singlet-A      2.1546 eV  575.45 nm  f=0.1350  <S**2>=0.000
     310 -> 314        0.64883
     312 -> 316       -0.26861

 Excited State   5:      Singlet-A      3.4236 eV  362.14 nm  f=0.0597  <S**2>=0.000
     306 -> 313       -0.15881
     308 -> 313        0.62271
     311 -> 315       -0.23179

 The electronic state is 1-A.
 Alpha  occ. eigenvalues --  -46.95453 -46.94890 -19.29583 -19.29073 -19.25493
 Alpha  occ. eigenvalues --  -19.24834 -19.24155 -19.24062 -19.23956 -19.23879
 Alpha  occ. eigenvalues --  -14.46847 -14.46810 -14.46790 -14.45888 -14.44266
 Alpha  occ. eigenvalues --  -14.44202 -14.43775 -14.43437 -10.43604 -10.42804
 Alpha  occ. eigenvalues --  -10.39289 -10.39147 -10.39079 -10.38710 -10.35691
 Alpha  occ. eigenvalues --  -10.35214 -10.35028 -10.34953 -10.34926 -10.34874
 Alpha  occ. eigenvalues --  -10.34735 -10.34669 -10.34370 -10.34227 -10.34142
 Alpha  occ. eigenvalues --  -10.34126 -10.34098 -10.34087 -10.33399 -10.33342
 Alpha  occ. eigenvalues --  -10.33097 -10.32963 -10.32948 -10.32933 -10.32895
 Alpha  occ. eigenvalues --  -10.32800 -10.32618 -10.32572 -10.32503 -10.32382
 Alpha  occ. eigenvalues --  -10.32379 -10.32319 -10.32278 -10.32116 -10.31791
 Alpha  occ. eigenvalues --  -10.31723 -10.31684 -10.31428 -10.31208 -10.31130
 Alpha  occ. eigenvalues --  -10.31095 -10.31031 -10.31015 -10.30913 -10.30875
 Alpha  occ. eigenvalues --  -10.30871 -10.30845 -10.30839 -10.30834 -10.30829
 Alpha  occ. eigenvalues --  -10.30773 -10.30744 -10.30637 -10.30081 -10.30069
 Alpha  occ. eigenvalues --  -10.30025 -10.29906 -10.29900 -10.29719 -10.29583
 Alpha  occ. eigenvalues --  -10.29578 -10.29569 -10.29466 -10.29447 -10.29367
 Alpha  occ. eigenvalues --  -10.28737  -3.21423  -3.20879  -1.94995  -1.94561
 Alpha  occ. eigenvalues --   -1.94465  -1.94384  -1.93981  -1.93869  -1.17844
 Alpha  occ. eigenvalues --   -1.16975  -1.13571  -1.13034  -1.12612  -1.11595
 Alpha  occ. eigenvalues --   -1.09650  -1.09115  -1.07064  -1.05808  -1.05726
 Alpha  occ. eigenvalues --   -1.05327  -1.05221  -1.04486  -1.04394  -1.03602
 Alpha  occ. eigenvalues --   -0.94988  -0.94435  -0.91510  -0.91169  -0.90815
 Alpha  occ. eigenvalues --   -0.90127  -0.89956  -0.89887  -0.89563  -0.89084
 Alpha  occ. eigenvalues --   -0.88818  -0.88750  -0.88160  -0.87961  -0.86733
 Alpha  occ. eigenvalues --   -0.86366  -0.85809  -0.85071  -0.84663  -0.84278
 Alpha  occ. eigenvalues --   -0.84056  -0.83949  -0.82799  -0.82647  -0.82109
 Alpha  occ. eigenvalues --   -0.82027  -0.80239  -0.80067  -0.79459  -0.78872
 Alpha  occ. eigenvalues --   -0.78763  -0.78554  -0.78145  -0.77707  -0.77460
 Alpha  occ. eigenvalues --   -0.76747  -0.74748  -0.74634  -0.74127  -0.73266
 Alpha  occ. eigenvalues --   -0.71556  -0.71360  -0.71244  -0.70655  -0.70085
 Alpha  occ. eigenvalues --   -0.69713  -0.68953  -0.68827  -0.68346  -0.66995
 Alpha  occ. eigenvalues --   -0.66903  -0.66555  -0.66516  -0.66342  -0.65992
 Alpha  occ. eigenvalues --   -0.65883  -0.64532  -0.63454  -0.62255  -0.62061
 Alpha  occ. eigenvalues --   -0.61454  -0.61403  -0.60940  -0.60794  -0.60277
 Alpha  occ. eigenvalues --   -0.60250  -0.59815  -0.59513  -0.59200  -0.58889
 Alpha  occ. eigenvalues --   -0.58299  -0.58083  -0.57770  -0.57656  -0.57347
 Alpha  occ. eigenvalues --   -0.57049  -0.56975  -0.56550  -0.56361  -0.56186
 Alpha  occ. eigenvalues --   -0.56046  -0.55798  -0.55598  -0.54865  -0.54654
 Alpha  occ. eigenvalues --   -0.54607  -0.54562  -0.54295  -0.54112  -0.53917
 Alpha  occ. eigenvalues --   -0.53884  -0.53547  -0.53545  -0.53273  -0.53047
 Alpha  occ. eigenvalues --   -0.52925  -0.52751  -0.52438  -0.52372  -0.52234
 Alpha  occ. eigenvalues --   -0.52087  -0.51714  -0.51603  -0.51554  -0.51498
 Alpha  occ. eigenvalues --   -0.51405  -0.51256  -0.51052  -0.50760  -0.50754
 Alpha  occ. eigenvalues --   -0.50502  -0.50332  -0.50190  -0.50100  -0.49904
 Alpha  occ. eigenvalues --   -0.49729  -0.49683  -0.49649  -0.49205  -0.48954
 Alpha  occ. eigenvalues --   -0.48875  -0.48664  -0.48465  -0.48274  -0.48216
 Alpha  occ. eigenvalues --   -0.48145  -0.47815  -0.47661  -0.47655  -0.47346
 Alpha  occ. eigenvalues --   -0.47321  -0.47206  -0.47104  -0.47060  -0.46951
 Alpha  occ. eigenvalues --   -0.46911  -0.46860  -0.46771  -0.46642  -0.46634
 Alpha  occ. eigenvalues --   -0.46576  -0.45948  -0.45864  -0.45767  -0.45448
 Alpha  occ. eigenvalues --   -0.45360  -0.45168  -0.45089  -0.45047  -0.44750
 Alpha  occ. eigenvalues --   -0.44666  -0.44467  -0.44451  -0.44065  -0.43983
 Alpha  occ. eigenvalues --   -0.43960  -0.43785  -0.43676  -0.43583  -0.43571
 Alpha  occ. eigenvalues --   -0.43125  -0.43037  -0.42799  -0.42683  -0.42382
 Alpha  occ. eigenvalues --   -0.42374  -0.41880  -0.41211  -0.41015  -0.40694
 Alpha  occ. eigenvalues --   -0.40436  -0.39978  -0.39964  -0.39663  -0.39404
 Alpha  occ. eigenvalues --   -0.38983  -0.38908  -0.38550  -0.38499  -0.38446
 Alpha  occ. eigenvalues --   -0.37725  -0.37660  -0.37149  -0.36774  -0.36557
 Alpha  occ. eigenvalues --   -0.35917  -0.35573  -0.34860  -0.33502  -0.33465
 Alpha  occ. eigenvalues --   -0.33143  -0.32823  -0.32799  -0.32563  -0.32280
 Alpha  occ. eigenvalues --   -0.32172  -0.31912  -0.31834  -0.26020  -0.25490
 Alpha  occ. eigenvalues --   -0.23024  -0.22752
 Alpha virt. eigenvalues --   -0.07011  -0.06881  -0.00317   0.00811   0.02719
 Alpha virt. eigenvalues --    0.02950   0.04558   0.04737   0.04855   0.05666
 Alpha virt. eigenvalues --    0.06206   0.07460   0.07505   0.08151   0.08682

 Mulliken charges:
               1
     1  Mg   0.976987
     2  C   -0.038528
     3  C   -0.071949
     4  C   -0.068449
     5  C   -0.096281
     6  N   -0.383295
     7  C   -0.009865
     8  C   -0.026791
     9  C   -0.121408
    10  C    0.109322
    11  C   -0.013720
    12  C   -0.019265
    13  C   -0.123090
    14  H    0.029453
    15  N   -0.491487
    16  C    0.111736
    17  C   -0.136087
    18  C   -0.128153
    19  C    0.164691
    20  C    0.081530
    21  C    0.041156
    22  O   -0.208230
    23  C   -0.027456
    24  N   -0.338802
    25  C    0.031197
    26  C   -0.031757
    27  C   -0.109761
    28  C    0.026858
    29  C    0.019865
    30  C   -0.035713
    31  C   -0.029327
    32  N   -0.401375
    33  C    0.165282
    34  C   -0.241995
    35  C    0.013964
    36  C    0.138218
    37  C    0.096251
    38  C    0.119946
    39  O   -0.173068
    40  C   -0.118422
    41  C    0.285167
    42  O   -0.233253
    43  O   -0.386712
    44  C    0.128164
    45  H   -0.028674
    46  H    0.025170
    47  H    0.001847
    48  H    0.050809
    49  H    0.047823
    50  H    0.031110
    51  H    0.050468
    52  H    0.042789
    53  H    0.033671
    54  H    0.059739
    55  H    0.061091
    56  H    0.063952
    57  H    0.057860
    58  H    0.039878
    59  H    0.047105
    60  H    0.079751
    61  H    0.047352
    62  H    0.039927
    63  H    0.038810
    64  H    0.032535
    65  H    0.032678
    66  H    0.039123
    67  H    0.051679
    68  H    0.028450
    69  H    0.032742
    70  H    0.031894
    71  H    0.042772
    72  H    0.037476
    73  H    0.058696
    74  H    0.027655
    75  H    0.045764
    76  H    0.081065
    77  H    0.063691
    78  H    0.072771
    79  H    0.054986
    80  Mg   0.956515
    81  C   -0.040747
    82  C   -0.109770
    83  C   -0.099594
    84  C   -0.098522
    85  N   -0.351168
    86  C    0.005665
    87  C   -0.079475
    88  C   -0.049969
    89  C    0.025375
    90  C    0.014895
    91  C   -0.013975
    92  C   -0.131264
    93  H    0.040651
    94  N   -0.438483
    95  C    0.180651
    96  C   -0.147209
    97  C   -0.107002
    98  C    0.206953
    99  C    0.079863
   100  C    0.051337
   101  O   -0.236313
   102  C   -0.010408
   103  N   -0.369038
   104  C    0.022471
   105  C   -0.081694
   106  C   -0.120575
   107  C    0.043208
   108  C    0.052820
   109  C   -0.004591
   110  C   -0.029180
   111  N   -0.430955
   112  C    0.160500
   113  C   -0.200452
   114  C   -0.051377
   115  C    0.127742
   116  C    0.085783
   117  C    0.113350
   118  O   -0.186410
   119  C   -0.040961
   120  C    0.283580
   121  O   -0.239908
   122  O   -0.406691
   123  C    0.140517
   124  H   -0.005316
   125  H   -0.020553
   126  H   -0.017693
   127  H    0.039129
   128  H    0.033409
   129  H    0.033377
   130  H    0.047818
   131  H    0.043644
   132  H    0.053267
   133  H    0.034493
   134  H    0.067877
   135  H    0.053319
   136  H    0.060277
   137  H    0.036797
   138  H    0.064867
   139  H    0.070849
   140  H    0.065195
   141  H    0.051358
   142  H    0.031713
   143  H    0.032430
   144  H    0.042845
   145  H    0.037350
   146  H    0.047642
   147  H    0.039938
   148  H    0.030706
   149  H    0.027366
   150  H    0.038725
   151  H    0.043345
   152  H    0.019161
   153  H    0.066778
   154  H    0.074743
   155  H    0.069293
   156  H    0.037399
   157  H    0.075528
   158  H    0.056778
 Sum of Mulliken charges =  -0.00000

 Dipole moment (field-independent basis, Debye):
    X=             -4.7706    Y=             -1.4651    Z=              2.8023  Tot=              5.7235
 Quadrupole moment (field-independent basis, Debye-Ang):
   XX=           -264.7339   YY=           -562.6291   ZZ=           -479.4670
   XY=           -129.3625   XZ=            -41.0137   YZ=            -28.6107

 Normal termination of Gaussian 16 at Sun Sep 19 07:11:56 2021.
