 Gaussian 16, Revision A.03,
 Gaussian 16:  ES64L-G16RevA.03 25-Dec-2016

 --------------------------------
 #p wB97XD/Def2SVP td=(nstates=5)
 --------------------------------

 --------------------------------
 TDDFT excited states in gaussian
 --------------------------------
 Symbolic Z-matrix:
 Charge =  0 Multiplicity = 1

                         Standard orientation:
 ---------------------------------------------------------------------
 Center     Atomic      Atomic             Coordinates (Angstroms)
 Number     Number       Type             X           Y           Z
 ---------------------------------------------------------------------
      1         12           0      -26.204528    0.648662   -0.050117
      2          6           0      -24.308233   -1.716796    1.591416
      3          6           0      -26.776997   -1.849088   -2.552399
      4          6           0      -27.740799    2.875346   -1.876293
      5          6           0      -25.295229    3.053136    2.264378
      6          7           0      -25.395602   -1.519819   -0.505972
      7          6           0      -24.846871   -2.281633    0.425388
      8          6           0      -25.000487   -3.788536    0.074333
      9          6           0      -25.268648   -3.676440   -1.467248
     10          6           0      -25.863667   -2.263488   -1.577409
     11          6           0      -23.958347   -3.841386   -2.316447
     12          6           0      -26.207985   -4.297741    0.892544
     13          6           0      -26.485664   -5.806158    0.837751
     14          1           0      -25.766591   -6.677510   -0.172440
     15          7           0      -27.226700    0.595207   -1.859600
     16          6           0      -27.368810   -0.554053   -2.711040
     17          6           0      -28.321877   -0.170634   -3.743563
     18          6           0      -28.693444    1.185371   -3.482914
     19          6           0      -27.852032    1.644175   -2.378581
     20          6           0      -28.855016   -1.127799   -4.873953
     21          6           0      -29.801738    2.015984   -4.210457
     22          8           0      -29.899246    3.182282   -3.943134
     23          6           0      -30.681692    1.376645   -5.234996
     24          7           0      -26.558194    2.683423    0.217288
     25          6           0      -27.237345    3.425817   -0.685961
     26          6           0      -27.294664    4.910025   -0.326334
     27          6           0      -26.628004    4.925282    1.068791
     28          6           0      -26.116592    3.432968    1.197187
     29          6           0      -26.604674    5.885720   -1.349020
     30          6           0      -27.436796    5.470909    2.217923
     31          6           0      -28.904136    5.035189    2.447340
     32          7           0      -25.043615    0.751858    1.597212
     33          6           0      -24.761679    1.775184    2.456285
     34          6           0      -23.990270    1.216259    3.546414
     35          6           0      -23.785573   -0.185383    3.302641
     36          6           0      -24.456666   -0.396166    2.067040
     37          6           0      -23.494584    2.010022    4.714690
     38          6           0      -23.160773   -1.389073    3.737908
     39          8           0      -22.435461   -1.665592    4.718105
     40          6           0      -23.285158   -2.358048    2.439562
     41          6           0      -23.526848   -3.770310    2.975001
     42          8           0      -24.370359   -4.079724    3.726679
     43          8           0      -22.561674   -4.586490    2.457400
     44          6           0      -22.776823   -6.017593    2.518138
     45          1           0      -26.891492   -2.594050   -3.341999
     46          1           0      -28.197456    3.670056   -2.469916
     47          1           0      -24.957998    3.766636    3.018133
     48          1           0      -24.073909   -4.343258    0.221381
     49          1           0      -26.015453   -4.449582   -1.649499
     50          1           0      -23.946454   -4.830202   -2.773271
     51          1           0      -23.108973   -3.696242   -1.648639
     52          1           0      -23.894245   -3.149530   -3.156332
     53          1           0      -27.100686   -3.835751    0.471737
     54          1           0      -26.198877   -3.920528    1.914693
     55          1           0      -27.542596   -6.051838    0.943284
     56          1           0      -26.175219   -6.168158    1.818074
     57          1           0      -28.770512   -0.684865   -5.866752
     58          1           0      -29.880620   -1.366753   -4.593099
     59          1           0      -28.327689   -2.081051   -4.821086
     60          1           0      -31.588044    1.977140   -5.154207
     61          1           0      -30.987535    0.368719   -4.956900
     62          1           0      -30.294910    1.133195   -6.224520
     63          1           0      -28.357691    5.142745   -0.267894
     64          1           0      -25.679313    5.461829    1.081116
     65          1           0      -26.173303    6.682837   -0.744110
     66          1           0      -27.452301    6.240357   -1.935787
     67          1           0      -25.932940    5.335146   -2.007537
     68          1           0      -27.587405    6.492483    1.870537
     69          1           0      -26.980668    5.457951    3.208380
     70          1           0      -29.682199    5.795560    2.394429
     71          1           0      -29.061997    4.695677    3.470989
     72          1           0      -29.170117    4.275144    1.712561
     73          1           0      -22.905848    1.313604    5.311080
     74          1           0      -24.334803    2.325150    5.334875
     75          1           0      -22.991724    2.943776    4.464751
     76          1           0      -22.343102   -2.228489    1.906389
     77          1           0      -21.810539   -6.167249    3.000012
     78          1           0      -22.984814   -6.472923    1.549651
     79          1           0      -23.558414   -6.327074    3.212484
     80         12           0       26.407877    0.628923   -0.089069
     81          6           0       24.357305   -1.822053   -1.575705
     82          6           0       27.905063   -1.939800    1.672954
     83          6           0       28.381760    2.901994    1.520752
     84          6           0       24.643101    3.049233   -1.604634
     85          7           0       26.176740   -1.657165    0.007026
     86          6           0       25.372942   -2.468949   -0.784250
     87          6           0       25.769052   -3.922995   -0.624215
     88          6           0       26.645738   -3.924739    0.680610
     89          6           0       26.930766   -2.442620    0.774523
     90          6           0       25.977993   -4.576725    1.954299
     91          6           0       26.592114   -4.459801   -1.804710
     92          6           0       26.313763   -5.915993   -2.192517
     93          1           0       26.760912   -7.040952   -1.218044
     94          7           0       27.983628    0.505406    1.314994
     95          6           0       28.369891   -0.649916    1.903657
     96          6           0       29.348191   -0.348566    2.897647
     97          6           0       29.662554    1.052528    2.825910
     98          6           0       28.640343    1.538950    1.916209
     99          6           0       29.939391   -1.408163    3.785522
    100          6           0       30.663907    1.914336    3.595195
    101          8           0       30.903649    3.096847    3.265437
    102          6           0       31.373362    1.424099    4.852337
    103          7           0       26.554024    2.651468   -0.120136
    104          6           0       27.396159    3.419427    0.678394
    105          6           0       27.099066    4.865686    0.448410
    106          6           0       25.943495    4.999302   -0.607556
    107          6           0       25.697019    3.501933   -0.853165
    108          6           0       26.917975    5.707920    1.747008
    109          6           0       26.310389    5.750590   -1.905674
    110          6           0       25.905141    7.237204   -1.891232
    111          7           0       24.828126    0.679729   -1.277663
    112          6           0       24.195916    1.744282   -1.918564
    113          6           0       23.100805    1.292095   -2.854536
    114          6           0       23.158462   -0.100028   -2.679017
    115          6           0       24.226129   -0.426304   -1.782316
    116          6           0       22.216460    2.174593   -3.716465
    117          6           0       22.516013   -1.325450   -3.129540
    118          8           0       21.560473   -1.506100   -3.885422
    119          6           0       23.382994   -2.495825   -2.497897
    120          6           0       22.366496   -3.420619   -1.799847
    121          8           0       21.396527   -3.072890   -1.158423
    122          8           0       22.642639   -4.737281   -2.163411
    123          6           0       21.725459   -5.701802   -1.556020
    124          1           0       28.409280   -2.781089    2.152610
    125          1           0       28.960528    3.711642    1.969639
    126          1           0       24.047078    3.892956   -1.957690
    127          1           0       24.935246   -4.605567   -0.461861
    128          1           0       27.581508   -4.477828    0.599373
    129          1           0       25.016069   -5.061423    1.784890
    130          1           0       25.753202   -3.906941    2.783990
    131          1           0       26.599760   -5.382107    2.345317
    132          1           0       27.661595   -4.373481   -1.614107
    133          1           0       26.370129   -3.901833   -2.714597
    134          1           0       26.694802   -6.152309   -3.185931
    135          1           0       25.248668   -6.086549   -2.347931
    136          1           0       29.045934   -1.921169    4.141730
    137          1           0       30.477899   -1.082381    4.675335
    138          1           0       30.567617   -2.136407    3.273103
    139          1           0       30.660657    1.001125    5.560516
    140          1           0       31.842182    2.338339    5.216015
    141          1           0       32.091942    0.638984    4.617124
    142          1           0       28.030039    5.322837    0.111768
    143          1           0       25.008846    5.409243   -0.222662
    144          1           0       26.985323    5.026330    2.595225
    145          1           0       25.923595    6.153508    1.740252
    146          1           0       27.751180    6.411016    1.721618
    147          1           0       25.919044    5.166517   -2.738330
    148          1           0       27.392247    5.825743   -2.017538
    149          1           0       25.827407    7.588173   -0.862027
    150          1           0       24.923203    7.479932   -2.297836
    151          1           0       26.704292    7.806593   -2.366768
    152          1           0       22.835519    2.551867   -4.530615
    153          1           0       21.797007    3.049631   -3.220403
    154          1           0       21.431288    1.520979   -4.096126
    155          1           0       23.967778   -3.084445   -3.204509
    156          1           0       22.042478   -6.086903   -0.586378
    157          1           0       21.652435   -6.492784   -2.302291
    158          1           0       20.705765   -5.393578   -1.325161
 ---------------------------------------------------------------------

 SCF Done:  E(RwB97XD) =  -4070.63462821     A.U. after   19 cycles

 Excitation energies and oscillator strengths:

 Excited State   1:      Singlet-A      1.6477 eV  752.48 nm  f=0.3752  <S**2>=0.000
     309 -> 316        0.19179
     312 -> 313        0.68144
     309 <- 316        0.11858
 This state for optimization and/or second-order correction.
 Total Energy, E(TD-HF/TD-DFT) =  -4070.57407743
 Copying the excited state density for this state as the 1-particle RhoCI density.

 Excited State   2:      Singlet-A      1.6762 eV  739.68 nm  f=0.3715  <S**2>=0.000
     310 -> 315       -0.20180
     311 -> 314        0.67874
     310 <- 315       -0.12040

 Excited State   3:      Singlet-A      2.1628 eV  573.25 nm  f=0.0886  <S**2>=0.000
     310 -> 314        0.63320
     311 -> 315        0.30171

 Excited State   4:      Singlet-A      2.1798 eV  568.78 nm  f=0.0977  <S**2>=0.000
     309 -> 313        0.63414
     312 -> 316       -0.30023

 Excited State   5:      Singlet-A      3.3462 eV  370.52 nm  f=0.0457  <S**2>=0.000
     302 -> 314        0.24690
     302 -> 318       -0.17767
     305 -> 314        0.41102
     305 -> 318       -0.24593
     305 -> 320        0.11248
     307 -> 314       -0.15638
     308 -> 314       -0.18616
     311 -> 315       -0.18121

 The electronic state is 1-A.
 Alpha  occ. eigenvalues --  -46.94597 -46.93980 -19.30971 -19.29623 -19.25326
 Alpha  occ. eigenvalues --  -19.25183 -19.24258 -19.24124 -19.24120 -19.24056
 Alpha  occ. eigenvalues --  -14.47278 -14.46315 -14.46276 -14.45869 -14.44479
 Alpha  occ. eigenvalues --  -14.44090 -14.43890 -14.43886 -10.43526 -10.42766
 Alpha  occ. eigenvalues --  -10.39850 -10.39187 -10.39131 -10.39085 -10.35443
 Alpha  occ. eigenvalues --  -10.35213 -10.35197 -10.34893 -10.34823 -10.34785
 Alpha  occ. eigenvalues --  -10.34732 -10.34619 -10.34571 -10.34430 -10.34305
 Alpha  occ. eigenvalues --  -10.34297 -10.34271 -10.33669 -10.33645 -10.33364
 Alpha  occ. eigenvalues --  -10.33182 -10.33072 -10.32947 -10.32910 -10.32876
 Alpha  occ. eigenvalues --  -10.32826 -10.32785 -10.32734 -10.32688 -10.32577
 Alpha  occ. eigenvalues --  -10.32564 -10.32426 -10.32142 -10.31888 -10.31834
 Alpha  occ. eigenvalues --  -10.31792 -10.31757 -10.31717 -10.31691 -10.31678
 Alpha  occ. eigenvalues --  -10.31610 -10.31531 -10.31294 -10.31216 -10.31154
 Alpha  occ. eigenvalues --  -10.31012 -10.30693 -10.30573 -10.30508 -10.30468
 Alpha  occ. eigenvalues --  -10.30376 -10.30306 -10.30248 -10.30237 -10.30117
 Alpha  occ. eigenvalues --  -10.30099 -10.30043 -10.30024 -10.29965 -10.29839
 Alpha  occ. eigenvalues --  -10.29708 -10.29694 -10.29516 -10.29362 -10.29061
 Alpha  occ. eigenvalues --  -10.28916  -3.20662  -3.20174  -1.94254  -1.93805
 Alpha  occ. eigenvalues --   -1.93768  -1.93622  -1.93279  -1.93193  -1.19777
 Alpha  occ. eigenvalues --   -1.18449  -1.13687  -1.12009  -1.11437  -1.11156
 Alpha  occ. eigenvalues --   -1.10366  -1.10280  -1.07211  -1.06715  -1.06074
 Alpha  occ. eigenvalues --   -1.05734  -1.05100  -1.05065  -1.04079  -1.03437
 Alpha  occ. eigenvalues --   -0.95030  -0.94530  -0.91285  -0.91199  -0.90907
 Alpha  occ. eigenvalues --   -0.90582  -0.90380  -0.90202  -0.89390  -0.89235
 Alpha  occ. eigenvalues --   -0.88979  -0.88387  -0.88074  -0.87583  -0.86315
 Alpha  occ. eigenvalues --   -0.85974  -0.85600  -0.85426  -0.84307  -0.84206
 Alpha  occ. eigenvalues --   -0.83659  -0.83643  -0.83365  -0.82907  -0.82235
 Alpha  occ. eigenvalues --   -0.82035  -0.80423  -0.79928  -0.79375  -0.79254
 Alpha  occ. eigenvalues --   -0.79188  -0.78722  -0.78078  -0.77813  -0.77427
 Alpha  occ. eigenvalues --   -0.76993  -0.74668  -0.74664  -0.73971  -0.73624
 Alpha  occ. eigenvalues --   -0.72162  -0.71341  -0.70853  -0.70727  -0.70152
 Alpha  occ. eigenvalues --   -0.70072  -0.69317  -0.68172  -0.67712  -0.67435
 Alpha  occ. eigenvalues --   -0.67145  -0.66850  -0.66478  -0.66269  -0.66153
 Alpha  occ. eigenvalues --   -0.66114  -0.64544  -0.64339  -0.62467  -0.62353
 Alpha  occ. eigenvalues --   -0.62141  -0.61616  -0.61133  -0.60930  -0.60811
 Alpha  occ. eigenvalues --   -0.60467  -0.60144  -0.59867  -0.59693  -0.59487
 Alpha  occ. eigenvalues --   -0.58111  -0.58091  -0.58026  -0.57623  -0.57450
 Alpha  occ. eigenvalues --   -0.57270  -0.57074  -0.56528  -0.56183  -0.55745
 Alpha  occ. eigenvalues --   -0.55614  -0.55452  -0.55418  -0.55077  -0.54884
 Alpha  occ. eigenvalues --   -0.54813  -0.54501  -0.54302  -0.54191  -0.54108
 Alpha  occ. eigenvalues --   -0.53991  -0.53769  -0.53700  -0.53688  -0.53156
 Alpha  occ. eigenvalues --   -0.52702  -0.52634  -0.52384  -0.52187  -0.52052
 Alpha  occ. eigenvalues --   -0.51989  -0.51893  -0.51716  -0.51608  -0.51481
 Alpha  occ. eigenvalues --   -0.51259  -0.51239  -0.51200  -0.51003  -0.50839
 Alpha  occ. eigenvalues --   -0.50740  -0.50393  -0.50182  -0.50166  -0.50065
 Alpha  occ. eigenvalues --   -0.49997  -0.49886  -0.49572  -0.49549  -0.49318
 Alpha  occ. eigenvalues --   -0.48809  -0.48765  -0.48584  -0.48534  -0.48454
 Alpha  occ. eigenvalues --   -0.48445  -0.48205  -0.47907  -0.47824  -0.47743
 Alpha  occ. eigenvalues --   -0.47525  -0.47443  -0.47155  -0.46930  -0.46828
 Alpha  occ. eigenvalues --   -0.46606  -0.46578  -0.46452  -0.46286  -0.46252
 Alpha  occ. eigenvalues --   -0.45783  -0.45510  -0.45363  -0.45279  -0.45192
 Alpha  occ. eigenvalues --   -0.45131  -0.44951  -0.44898  -0.44840  -0.44626
 Alpha  occ. eigenvalues --   -0.44617  -0.44292  -0.44255  -0.44040  -0.43940
 Alpha  occ. eigenvalues --   -0.43848  -0.43778  -0.43723  -0.43562  -0.43515
 Alpha  occ. eigenvalues --   -0.43324  -0.43105  -0.42966  -0.42840  -0.42391
 Alpha  occ. eigenvalues --   -0.42153  -0.42104  -0.41592  -0.41483  -0.41312
 Alpha  occ. eigenvalues --   -0.40594  -0.40285  -0.40230  -0.39852  -0.39845
 Alpha  occ. eigenvalues --   -0.39551  -0.39286  -0.39156  -0.38841  -0.38710
 Alpha  occ. eigenvalues --   -0.38369  -0.37745  -0.37167  -0.37143  -0.36947
 Alpha  occ. eigenvalues --   -0.35933  -0.35560  -0.35088  -0.33657  -0.33497
 Alpha  occ. eigenvalues --   -0.33148  -0.33010  -0.32931  -0.32674  -0.32493
 Alpha  occ. eigenvalues --   -0.32198  -0.32010  -0.31498  -0.25865  -0.25719
 Alpha  occ. eigenvalues --   -0.22892  -0.22880
 Alpha virt. eigenvalues --   -0.06909  -0.06778   0.00037   0.00145   0.02052
 Alpha virt. eigenvalues --    0.02249   0.03857   0.04727   0.06115   0.06787
 Alpha virt. eigenvalues --    0.07121   0.07429   0.08011   0.08233   0.08335

 Mulliken charges:
               1
     1  Mg   0.965726
     2  C   -0.025719
     3  C   -0.077204
     4  C   -0.087911
     5  C   -0.117630
     6  N   -0.288256
     7  C   -0.036041
     8  C   -0.083917
     9  C   -0.089569
    10  C    0.019639
    11  C    0.040464
    12  C    0.000240
    13  C   -0.089369
    14  H    0.044127
    15  N   -0.478657
    16  C    0.175995
    17  C   -0.189436
    18  C   -0.081248
    19  C    0.188788
    20  C    0.062620
    21  C    0.064990
    22  O   -0.213713
    23  C   -0.007476
    24  N   -0.341982
    25  C    0.014282
    26  C   -0.099244
    27  C   -0.054346
    28  C    0.091239
    29  C    0.035513
    30  C   -0.009972
    31  C   -0.072566
    32  N   -0.486688
    33  C    0.144478
    34  C   -0.184399
    35  C   -0.031007
    36  C    0.180625
    37  C    0.067921
    38  C    0.153330
    39  O   -0.233738
    40  C   -0.147481
    41  C    0.242737
    42  O   -0.185824
    43  O   -0.368594
    44  C    0.110505
    45  H    0.003773
    46  H    0.009622
    47  H   -0.005490
    48  H    0.019502
    49  H    0.022919
    50  H    0.039839
    51  H    0.043893
    52  H    0.040367
    53  H    0.025768
    54  H    0.065896
    55  H    0.042719
    56  H    0.038155
    57  H    0.059004
    58  H    0.057721
    59  H    0.030215
    60  H    0.058170
    61  H    0.020608
    62  H    0.069314
    63  H    0.047923
    64  H    0.031246
    65  H    0.046321
    66  H    0.047897
    67  H    0.054241
    68  H    0.029214
    69  H    0.040698
    70  H    0.032767
    71  H    0.032882
    72  H    0.039580
    73  H    0.062265
    74  H    0.042929
    75  H    0.047413
    76  H    0.085743
    77  H    0.070111
    78  H    0.062622
    79  H    0.062920
    80  Mg   1.001428
    81  C   -0.064984
    82  C   -0.110785
    83  C   -0.083466
    84  C   -0.100660
    85  N   -0.307727
    86  C    0.022504
    87  C   -0.031761
    88  C   -0.097728
    89  C    0.019031
    90  C    0.007939
    91  C    0.023187
    92  C   -0.123392
    93  H    0.017003
    94  N   -0.427973
    95  C    0.224180
    96  C   -0.180430
    97  C   -0.042789
    98  C    0.127515
    99  C    0.061816
   100  C    0.049183
   101  O   -0.257566
   102  C   -0.023803
   103  N   -0.456738
   104  C    0.108926
   105  C   -0.100384
   106  C   -0.055391
   107  C    0.059321
   108  C    0.015916
   109  C    0.000253
   110  C   -0.055616
   111  N   -0.483383
   112  C    0.140194
   113  C   -0.167199
   114  C   -0.071770
   115  C    0.182953
   116  C    0.080905
   117  C    0.161328
   118  O   -0.208556
   119  C   -0.105838
   120  C    0.266229
   121  O   -0.223754
   122  O   -0.369632
   123  C    0.126360
   124  H   -0.009042
   125  H    0.016358
   126  H   -0.010458
   127  H    0.030627
   128  H    0.039915
   129  H    0.034312
   130  H    0.041879
   131  H    0.034277
   132  H    0.040668
   133  H    0.036903
   134  H    0.048527
   135  H    0.050349
   136  H    0.046163
   137  H    0.026869
   138  H    0.058699
   139  H    0.061405
   140  H    0.063748
   141  H    0.063644
   142  H    0.042764
   143  H    0.042939
   144  H    0.043691
   145  H    0.034128
   146  H    0.043579
   147  H    0.037022
   148  H    0.028014
   149  H    0.024576
   150  H    0.041183
   151  H    0.040899
   152  H    0.050529
   153  H    0.047769
   154  H    0.066166
   155  H    0.072892
   156  H    0.043213
   157  H    0.055684
   158  H    0.065264
 Sum of Mulliken charges =  -0.00000

 Dipole moment (field-independent basis, Debye):
    X=              1.1031    Y=             -2.2099    Z=             -1.6048  Tot=              2.9455
 Quadrupole moment (field-independent basis, Debye-Ang):
   XX=           -269.4179   YY=           -448.3676   ZZ=           -523.3283
   XY=            -41.9230   XZ=            137.4224   YZ=             13.5007

 Normal termination of Gaussian 16 at Sun Sep 19 01:04:40 2021.
