 Gaussian 16, Revision A.03,
 Gaussian 16:  ES64L-G16RevA.03 25-Dec-2016

 --------------------------------
 #p wB97XD/Def2SVP td=(nstates=5)
 --------------------------------

 --------------------------------
 TDDFT excited states in gaussian
 --------------------------------
 Symbolic Z-matrix:
 Charge =  0 Multiplicity = 1

                         Standard orientation:
 ---------------------------------------------------------------------
 Center     Atomic      Atomic             Coordinates (Angstroms)
 Number     Number       Type             X           Y           Z
 ---------------------------------------------------------------------
      1         12           0      -16.860444    0.533605    0.278722
      2          6           0      -15.626987   -1.880692   -2.015613
      3          6           0      -14.141169    2.545963   -0.754708
      4          6           0      -17.660390    2.688480    2.594091
      5          6           0      -19.263406   -1.757286    1.315149
      6          7           0      -15.043412    0.345302   -1.239990
      7          6           0      -14.877237   -0.714637   -2.097317
      8          6           0      -13.761434   -0.499023   -3.105694
      9          6           0      -13.220722    0.897900   -2.576088
     10          6           0      -14.208098    1.324443   -1.478900
     11          6           0      -11.745581    0.805210   -2.197165
     12          6           0      -14.326235   -0.436558   -4.541878
     13          6           0      -13.471198   -1.049740   -5.715522
     14          1           0      -11.954189   -1.246675   -5.485936
     15          7           0      -16.070161    2.410703    0.803828
     16          6           0      -14.909822    3.008761    0.311440
     17          6           0      -14.740783    4.303351    0.990244
     18          6           0      -15.835644    4.395913    1.910249
     19          6           0      -16.586201    3.136894    1.741262
     20          6           0      -13.621618    5.172026    0.763611
     21          6           0      -16.167352    5.524490    2.881351
     22          8           0      -17.101998    5.417692    3.691154
     23          6           0      -15.502071    6.839666    2.767198
     24          7           0      -18.200762    0.430625    1.818940
     25          6           0      -18.418214    1.502700    2.585271
     26          6           0      -19.510012    1.209620    3.665067
     27          6           0      -20.133286   -0.115378    3.122071
     28          6           0      -19.177844   -0.541823    2.052033
     29          6           0      -18.967282    1.165772    5.138831
     30          6           0      -21.525728    0.303420    2.513032
     31          6           0      -21.651072    0.649201    0.989190
     32          7           0      -17.445953   -1.367335   -0.275459
     33          6           0      -18.455058   -2.182798    0.268079
     34          6           0      -18.406151   -3.499477   -0.414810
     35          6           0      -17.295707   -3.415753   -1.246630
     36          6           0      -16.745435   -2.152562   -1.194223
     37          6           0      -19.200187   -4.611625    0.078198
     38          6           0      -16.454269   -4.248685   -2.102348
     39          8           0      -16.578913   -5.443121   -2.348286
     40          6           0      -15.292051   -3.286090   -2.635715
     41          6           0      -13.952799   -3.806985   -2.268563
     42          8           0      -13.301124   -3.495548   -1.275866
     43          8           0      -13.526875   -4.713387   -3.257859
     44          6           0      -12.276409   -5.428724   -3.139764
     45          1           0      -13.494802    3.318369   -1.177608
     46          1           0      -17.993303    3.373775    3.376874
     47          1           0      -20.085476   -2.368030    1.693384
     48          1           0      -12.995106   -1.273025   -3.056389
     49          1           0      -13.209841    1.559026   -3.442199
     50          1           0      -11.096938    1.525044   -2.695131
     51          1           0      -11.274312   -0.168077   -2.334184
     52          1           0      -11.680890    1.088607   -1.145799
     53          1           0      -14.557751    0.590785   -4.822808
     54          1           0      -15.268827   -0.967438   -4.404055
     55          1           0      -13.486820   -0.387465   -6.580469
     56          1           0      -14.054933   -1.896606   -6.076285
     57          1           0      -14.039719    6.151919    0.532262
     58          1           0      -12.893259    4.705382    0.101111
     59          1           0      -13.133740    5.110390    1.736890
     60          1           0      -14.462342    6.831989    3.095708
     61          1           0      -16.009224    7.557533    3.411557
     62          1           0      -15.441183    7.086422    1.707635
     63          1           0      -20.108377    2.109535    3.522709
     64          1           0      -20.316557   -0.835259    3.920141
     65          1           0      -19.122682    2.130369    5.622234
     66          1           0      -17.933113    0.827961    5.080207
     67          1           0      -19.552394    0.399861    5.647601
     68          1           0      -22.006125    1.022052    3.177329
     69          1           0      -22.069881   -0.641088    2.484978
     70          1           0      -22.276235    1.541630    0.987302
     71          1           0      -22.165102   -0.124010    0.416756
     72          1           0      -20.724862    0.908250    0.477372
     73          1           0      -19.066422   -4.680492    1.157012
     74          1           0      -18.782360   -5.511917   -0.373491
     75          1           0      -20.215964   -4.571662   -0.314187
     76          1           0      -15.410304   -3.331303   -3.718782
     77          1           0      -12.388180   -6.429955   -2.724369
     78          1           0      -11.489425   -4.790304   -2.738011
     79          1           0      -11.969198   -5.467205   -4.185258
     80         12           0       16.382608    0.466112   -0.827714
     81          6           0       16.226764   -2.692818    0.783288
     82          6           0       12.900890    0.373270   -1.017814
     83          6           0       16.503042    3.737149   -1.176936
     84          6           0       19.982442    0.367111   -0.167893
     85          7           0       14.713670   -0.947351    0.068153
     86          6           0       14.935200   -2.239767    0.414128
     87          6           0       13.612736   -2.984640    0.447502
     88          6           0       12.759831   -2.273615   -0.603316
     89          6           0       13.459830   -0.824763   -0.485710
     90          6           0       12.829177   -2.760618   -2.051888
     91          6           0       13.053430   -3.012271    1.936546
     92          6           0       12.548894   -4.346739    2.323285
     93          1           0       11.238449   -4.407323    3.132009
     94          7           0       14.889722    1.940402   -1.028076
     95          6           0       13.504346    1.676390   -1.166003
     96          6           0       12.870081    2.948570   -1.403562
     97          6           0       13.855434    3.960377   -1.552415
     98          6           0       15.157212    3.272730   -1.234004
     99          6           0       11.352658    3.051223   -1.521146
    100          6           0       13.604508    5.394222   -1.806739
    101          8           0       12.447458    5.779777   -1.919479
    102          6           0       14.617533    6.490439   -1.858087
    103          7           0       18.092953    1.886387   -0.579903
    104          6           0       17.818118    3.137118   -1.000503
    105          6           0       19.109460    3.966394   -1.121241
    106          6           0       20.287156    2.851532   -0.947193
    107          6           0       19.440217    1.604600   -0.583357
    108          6           0       19.184744    4.890977   -2.418565
    109          6           0       21.402888    3.207024    0.084726
    110          6           0       21.293456    2.587335    1.519600
    111          7           0       17.790699   -0.807424    0.064046
    112          6           0       19.207200   -0.727039    0.186206
    113          6           0       19.731517   -2.084593    0.650870
    114          6           0       18.574486   -2.798814    0.918079
    115          6           0       17.445203   -1.992125    0.530640
    116          6           0       21.154390   -2.629336    0.880893
    117          6           0       18.075477   -4.064754    1.352801
    118          8           0       18.674873   -5.098465    1.653235
    119          6           0       16.596724   -3.916020    1.401889
    120          6           0       16.302209   -3.878519    2.918942
    121          8           0       16.444605   -2.925073    3.681592
    122          8           0       15.900262   -5.188699    3.300442
    123          6           0       15.689030   -5.449203    4.666407
    124          1           0       11.823100    0.368938   -1.194077
    125          1           0       16.451852    4.786201   -1.475088
    126          1           0       21.054720    0.186478   -0.074790
    127          1           0       13.685653   -4.009443    0.083718
    128          1           0       11.680764   -2.193319   -0.477021
    129          1           0       13.220468   -3.772029   -2.157759
    130          1           0       13.255272   -2.003364   -2.710455
    131          1           0       11.774181   -2.833585   -2.318548
    132          1           0       12.211063   -2.323653    2.003188
    133          1           0       13.726127   -2.576966    2.675600
    134          1           0       13.395117   -4.745791    2.881391
    135          1           0       12.391020   -4.927778    1.414800
    136          1           0       11.014694    3.188924   -2.548053
    137          1           0       11.003180    3.832176   -0.847394
    138          1           0       10.883802    2.129856   -1.175361
    139          1           0       15.231373    6.344098   -2.747181
    140          1           0       15.269146    6.577803   -0.987816
    141          1           0       14.162440    7.444759   -2.120366
    142          1           0       19.094236    4.570556   -0.214375
    143          1           0       20.703948    2.633651   -1.929931
    144          1           0       18.187897    5.124388   -2.792365
    145          1           0       19.846360    4.604109   -3.236782
    146          1           0       19.767633    5.742202   -2.063306
    147          1           0       21.532625    4.282586    0.202100
    148          1           0       22.288833    2.780590   -0.385135
    149          1           0       21.762358    3.426639    2.033749
    150          1           0       21.853559    1.675963    1.729994
    151          1           0       20.233983    2.516053    1.766499
    152          1           0       21.338362   -3.512324    0.269851
    153          1           0       20.982154   -3.007610    1.888085
    154          1           0       21.839021   -1.782016    0.850000
    155          1           0       16.128256   -4.801751    0.972649
    156          1           0       15.395099   -6.474654    4.893791
    157          1           0       14.888143   -4.791566    5.001972
    158          1           0       16.642412   -5.223148    5.144807
 ---------------------------------------------------------------------

 SCF Done:  E(RwB97XD) =  -4070.56340145     A.U. after   20 cycles

 Excitation energies and oscillator strengths:

 Excited State   1:      Singlet-A      1.6240 eV  763.46 nm  f=0.3509  <S**2>=0.000
     309 -> 315        0.20431
     311 -> 313        0.67796
     309 <- 315        0.12287
 This state for optimization and/or second-order correction.
 Total Energy, E(TD-HF/TD-DFT) =  -4070.50372122
 Copying the excited state density for this state as the 1-particle RhoCI density.

 Excited State   2:      Singlet-A      1.7000 eV  729.31 nm  f=0.3731  <S**2>=0.000
     310 -> 316        0.19451
     312 -> 314        0.67886
     310 <- 316        0.11674

 Excited State   3:      Singlet-A      2.1336 eV  581.11 nm  f=0.0543  <S**2>=0.000
     309 -> 313        0.61274
     311 -> 315       -0.34222

 Excited State   4:      Singlet-A      2.2205 eV  558.36 nm  f=0.0707  <S**2>=0.000
     310 -> 314        0.62143
     312 -> 316       -0.32316

 Excited State   5:      Singlet-A      3.3541 eV  369.65 nm  f=0.4794  <S**2>=0.000
     304 -> 313        0.10006
     307 -> 313        0.32977
     309 -> 313        0.27001
     311 -> 315        0.53445
     309 <- 313       -0.10397

 The electronic state is 1-A.
 Alpha  occ. eigenvalues --  -46.97684 -46.94804 -19.29973 -19.29196 -19.26367
 Alpha  occ. eigenvalues --  -19.24782 -19.24310 -19.24019 -19.23787 -19.22604
 Alpha  occ. eigenvalues --  -14.47018 -14.46712 -14.46543 -14.45814 -14.44863
 Alpha  occ. eigenvalues --  -14.44374 -14.44261 -14.43491 -10.44525 -10.43297
 Alpha  occ. eigenvalues --  -10.39348 -10.39266 -10.38610 -10.38092 -10.35877
 Alpha  occ. eigenvalues --  -10.35488 -10.35485 -10.35386 -10.35076 -10.35029
 Alpha  occ. eigenvalues --  -10.34891 -10.34875 -10.34791 -10.34728 -10.34511
 Alpha  occ. eigenvalues --  -10.34427 -10.34414 -10.34180 -10.34143 -10.33600
 Alpha  occ. eigenvalues --  -10.33519 -10.33203 -10.33194 -10.33133 -10.32889
 Alpha  occ. eigenvalues --  -10.32862 -10.32600 -10.32482 -10.32468 -10.32289
 Alpha  occ. eigenvalues --  -10.32188 -10.32179 -10.32140 -10.31967 -10.31807
 Alpha  occ. eigenvalues --  -10.31672 -10.31672 -10.31641 -10.31558 -10.31484
 Alpha  occ. eigenvalues --  -10.31420 -10.31389 -10.31386 -10.31327 -10.31204
 Alpha  occ. eigenvalues --  -10.31167 -10.31095 -10.31066 -10.31039 -10.30739
 Alpha  occ. eigenvalues --  -10.30695 -10.30374 -10.30373 -10.30282 -10.30249
 Alpha  occ. eigenvalues --  -10.30193 -10.29658 -10.29585 -10.29536 -10.29345
 Alpha  occ. eigenvalues --  -10.29214 -10.29176 -10.29070 -10.29068 -10.28890
 Alpha  occ. eigenvalues --  -10.28654  -3.23389  -3.20794  -1.96905  -1.96551
 Alpha  occ. eigenvalues --   -1.96300  -1.94390  -1.93928  -1.93752  -1.18010
 Alpha  occ. eigenvalues --   -1.16782  -1.11874  -1.11842  -1.11578  -1.11425
 Alpha  occ. eigenvalues --   -1.10880  -1.09408  -1.06776  -1.06235  -1.06065
 Alpha  occ. eigenvalues --   -1.05470  -1.05053  -1.04894  -1.03336  -1.03323
 Alpha  occ. eigenvalues --   -0.96430  -0.93904  -0.91840  -0.91056  -0.90650
 Alpha  occ. eigenvalues --   -0.90505  -0.90219  -0.89708  -0.89274  -0.89232
 Alpha  occ. eigenvalues --   -0.88815  -0.88610  -0.88068  -0.87533  -0.86720
 Alpha  occ. eigenvalues --   -0.86033  -0.85595  -0.85177  -0.84637  -0.84552
 Alpha  occ. eigenvalues --   -0.83835  -0.83582  -0.82834  -0.82731  -0.82384
 Alpha  occ. eigenvalues --   -0.82262  -0.80930  -0.80011  -0.79218  -0.78985
 Alpha  occ. eigenvalues --   -0.78829  -0.78745  -0.77987  -0.77673  -0.77178
 Alpha  occ. eigenvalues --   -0.76707  -0.74770  -0.74068  -0.73854  -0.73256
 Alpha  occ. eigenvalues --   -0.71862  -0.71108  -0.70838  -0.70744  -0.69806
 Alpha  occ. eigenvalues --   -0.69276  -0.68845  -0.68714  -0.67331  -0.66941
 Alpha  occ. eigenvalues --   -0.66905  -0.66720  -0.66609  -0.66575  -0.66399
 Alpha  occ. eigenvalues --   -0.66149  -0.64241  -0.63494  -0.62335  -0.61948
 Alpha  occ. eigenvalues --   -0.61790  -0.61296  -0.61284  -0.61020  -0.60884
 Alpha  occ. eigenvalues --   -0.60296  -0.59989  -0.59813  -0.59117  -0.59038
 Alpha  occ. eigenvalues --   -0.58247  -0.58119  -0.57961  -0.57644  -0.57437
 Alpha  occ. eigenvalues --   -0.57174  -0.56875  -0.56531  -0.56149  -0.55908
 Alpha  occ. eigenvalues --   -0.55726  -0.55660  -0.55322  -0.55263  -0.55073
 Alpha  occ. eigenvalues --   -0.54998  -0.54682  -0.54593  -0.54160  -0.54114
 Alpha  occ. eigenvalues --   -0.53921  -0.53681  -0.53633  -0.53414  -0.53358
 Alpha  occ. eigenvalues --   -0.53270  -0.53201  -0.52734  -0.52506  -0.52469
 Alpha  occ. eigenvalues --   -0.52111  -0.51923  -0.51865  -0.51682  -0.51512
 Alpha  occ. eigenvalues --   -0.51421  -0.51195  -0.50933  -0.50874  -0.50804
 Alpha  occ. eigenvalues --   -0.50451  -0.50411  -0.50295  -0.50203  -0.49996
 Alpha  occ. eigenvalues --   -0.49727  -0.49519  -0.49423  -0.49273  -0.49138
 Alpha  occ. eigenvalues --   -0.48828  -0.48799  -0.48590  -0.48036  -0.47997
 Alpha  occ. eigenvalues --   -0.47928  -0.47907  -0.47851  -0.47821  -0.47387
 Alpha  occ. eigenvalues --   -0.47262  -0.47256  -0.47084  -0.46908  -0.46511
 Alpha  occ. eigenvalues --   -0.46470  -0.46391  -0.46182  -0.46123  -0.46048
 Alpha  occ. eigenvalues --   -0.45958  -0.45820  -0.45795  -0.45527  -0.45467
 Alpha  occ. eigenvalues --   -0.45346  -0.45259  -0.45239  -0.45012  -0.44878
 Alpha  occ. eigenvalues --   -0.44409  -0.44369  -0.43996  -0.43826  -0.43657
 Alpha  occ. eigenvalues --   -0.43515  -0.43336  -0.43317  -0.42980  -0.42896
 Alpha  occ. eigenvalues --   -0.42859  -0.42568  -0.42351  -0.42181  -0.41977
 Alpha  occ. eigenvalues --   -0.41730  -0.41251  -0.41086  -0.40522  -0.40479
 Alpha  occ. eigenvalues --   -0.40200  -0.39904  -0.39679  -0.39652  -0.39332
 Alpha  occ. eigenvalues --   -0.39075  -0.38619  -0.38591  -0.38336  -0.38094
 Alpha  occ. eigenvalues --   -0.37743  -0.37610  -0.37199  -0.36250  -0.36092
 Alpha  occ. eigenvalues --   -0.35981  -0.35638  -0.35493  -0.33555  -0.33159
 Alpha  occ. eigenvalues --   -0.33118  -0.33006  -0.32756  -0.32737  -0.32358
 Alpha  occ. eigenvalues --   -0.32172  -0.31656  -0.31442  -0.25988  -0.25782
 Alpha  occ. eigenvalues --   -0.22857  -0.22559
 Alpha virt. eigenvalues --   -0.06906  -0.06455  -0.00753   0.00235   0.01829
 Alpha virt. eigenvalues --    0.02326   0.02904   0.04290   0.04311   0.06401
 Alpha virt. eigenvalues --    0.06831   0.07108   0.07547   0.07695   0.08334

 Mulliken charges:
               1
     1  Mg   0.958965
     2  C    0.014358
     3  C   -0.116015
     4  C   -0.071743
     5  C   -0.091870
     6  N   -0.268401
     7  C   -0.050245
     8  C   -0.080583
     9  C   -0.081138
    10  C    0.061358
    11  C    0.017826
    12  C   -0.000805
    13  C   -0.101170
    14  H    0.041867
    15  N   -0.420436
    16  C    0.160647
    17  C   -0.187117
    18  C   -0.089641
    19  C    0.146002
    20  C    0.087494
    21  C    0.060951
    22  O   -0.251542
    23  C   -0.004564
    24  N   -0.411621
    25  C    0.041688
    26  C   -0.106343
    27  C   -0.056900
    28  C    0.053414
    29  C    0.041983
    30  C   -0.057125
    31  C   -0.040271
    32  N   -0.481891
    33  C    0.164111
    34  C   -0.192820
    35  C   -0.021547
    36  C    0.159996
    37  C    0.078053
    38  C    0.119451
    39  O   -0.197052
    40  C   -0.104606
    41  C    0.296090
    42  O   -0.245659
    43  O   -0.393142
    44  C    0.148844
    45  H    0.010826
    46  H    0.016626
    47  H   -0.005093
    48  H    0.045958
    49  H    0.028881
    50  H    0.025273
    51  H    0.045277
    52  H    0.027122
    53  H    0.030853
    54  H    0.034362
    55  H    0.044110
    56  H    0.052189
    57  H    0.062367
    58  H    0.037785
    59  H    0.061620
    60  H    0.050682
    61  H    0.063478
    62  H    0.049873
    63  H    0.039320
    64  H    0.036111
    65  H    0.056276
    66  H    0.049524
    67  H    0.029617
    68  H    0.044648
    69  H    0.027405
    70  H    0.033399
    71  H    0.043515
    72  H    0.047355
    73  H    0.057788
    74  H    0.044306
    75  H    0.045784
    76  H    0.074962
    77  H    0.071650
    78  H    0.047351
    79  H    0.039949
    80  Mg   0.936689
    81  C    0.010863
    82  C   -0.075353
    83  C   -0.029860
    84  C   -0.064514
    85  N   -0.298359
    86  C   -0.021480
    87  C   -0.051979
    88  C   -0.134057
    89  C    0.043961
    90  C    0.038273
    91  C    0.033644
    92  C   -0.117058
    93  H    0.034960
    94  N   -0.490317
    95  C    0.145837
    96  C   -0.165537
    97  C   -0.025103
    98  C    0.111734
    99  C    0.096270
   100  C   -0.007014
   101  O   -0.246589
   102  C    0.014102
   103  N   -0.325739
   104  C    0.062948
   105  C   -0.098259
   106  C   -0.020447
   107  C    0.007527
   108  C    0.005933
   109  C   -0.047055
   110  C   -0.048143
   111  N   -0.422891
   112  C    0.106821
   113  C   -0.210722
   114  C   -0.023450
   115  C    0.161987
   116  C    0.090949
   117  C    0.075814
   118  O   -0.216194
   119  C   -0.055147
   120  C    0.276435
   121  O   -0.229425
   122  O   -0.374809
   123  C    0.144796
   124  H    0.004520
   125  H   -0.047451
   126  H   -0.000838
   127  H    0.012710
   128  H    0.029553
   129  H    0.042176
   130  H    0.046994
   131  H    0.028369
   132  H    0.032650
   133  H    0.056494
   134  H    0.045354
   135  H    0.046286
   136  H    0.058236
   137  H    0.061290
   138  H    0.009455
   139  H    0.040874
   140  H    0.071651
   141  H    0.046835
   142  H    0.050763
   143  H    0.037835
   144  H    0.052376
   145  H    0.033879
   146  H    0.031534
   147  H    0.040217
   148  H    0.031004
   149  H    0.035625
   150  H    0.046472
   151  H    0.060498
   152  H    0.072969
   153  H    0.068028
   154  H    0.038992
   155  H    0.061057
   156  H    0.058090
   157  H    0.041814
   158  H    0.053653
 Sum of Mulliken charges =  -0.00000

 Dipole moment (field-independent basis, Debye):
    X=              3.8404    Y=              4.2415    Z=             -4.5949  Tot=              7.3384
 Quadrupole moment (field-independent basis, Debye-Ang):
   XX=           -437.3196   YY=           -530.5420   ZZ=           -503.8748
   XY=            -14.3034   XZ=            -50.4667   YZ=            -10.9091

 Normal termination of Gaussian 16 at Sun Sep 19 04:54:48 2021.
