 Gaussian 16, Revision A.03,
 Gaussian 16:  ES64L-G16RevA.03 25-Dec-2016

 --------------------------------
 #p wB97XD/Def2SVP td=(nstates=5)
 --------------------------------

 --------------------------------
 TDDFT excited states in gaussian
 --------------------------------
 Symbolic Z-matrix:
 Charge =  0 Multiplicity = 1

                         Standard orientation:
 ---------------------------------------------------------------------
 Center     Atomic      Atomic             Coordinates (Angstroms)
 Number     Number       Type             X           Y           Z
 ---------------------------------------------------------------------
      1         12           0      -13.839200   -0.158742    0.112380
      2          6           0      -10.532780    1.250350   -0.323994
      3          6           0      -14.567208    1.213046   -2.720566
      4          6           0      -16.851896   -1.288073    0.827094
      5          6           0      -13.058672   -0.899353    3.583967
      6          7           0      -12.589661    1.008825   -1.421643
      7          6           0      -11.296255    1.488251   -1.431682
      8          6           0      -11.043951    2.268081   -2.671472
      9          6           0      -12.466937    2.641334   -3.160774
     10          6           0      -13.287789    1.596695   -2.368357
     11          6           0      -12.909195    4.076530   -2.800337
     12          6           0      -10.359313    1.356709   -3.735239
     13          6           0       -9.152304    1.989581   -4.530354
     14          1           0       -8.110357    1.053628   -5.262723
     15          7           0      -15.538670   -0.067083   -0.923668
     16          6           0      -15.647930    0.435240   -2.124677
     17          6           0      -16.991172    0.171276   -2.604994
     18          6           0      -17.563535   -0.653478   -1.608065
     19          6           0      -16.645483   -0.668798   -0.501629
     20          6           0      -17.428802    0.611479   -4.013790
     21          6           0      -18.907307   -1.324653   -1.669783
     22          8           0      -19.297244   -1.975009   -0.746555
     23          6           0      -19.700531   -1.253361   -2.933743
     24          7           0      -14.879411   -0.735732    2.117315
     25          6           0      -16.080027   -1.294500    1.979719
     26          6           0      -16.487856   -2.045941    3.190962
     27          6           0      -15.296093   -1.722590    4.146760
     28          6           0      -14.291002   -1.051116    3.248630
     29          6           0      -17.924169   -1.783558    3.770970
     30          6           0      -14.765159   -3.028556    4.857013
     31          6           0      -15.082880   -3.272191    6.358723
     32          7           0      -12.261424    0.073569    1.378811
     33          6           0      -12.015337   -0.320139    2.713159
     34          6           0      -10.622779    0.015771    3.075100
     35          6           0      -10.060993    0.584135    1.939674
     36          6           0      -11.043736    0.654150    0.966836
     37          6           0      -10.014863   -0.107841    4.493283
     38          6           0       -8.776555    1.166388    1.433542
     39          8           0       -7.672448    1.297883    1.906639
     40          6           0       -9.083347    1.787363   -0.020077
     41          6           0       -8.062394    1.475708   -0.951708
     42          8           0       -8.121600    0.477122   -1.682709
     43          8           0       -6.959731    2.323817   -0.980800
     44          6           0       -5.951102    2.162680   -2.072664
     45          1           0      -14.931002    1.583152   -3.680715
     46          1           0      -17.831081   -1.720502    1.042650
     47          1           0      -12.805483   -1.124295    4.621152
     48          1           0      -10.542593    3.204476   -2.425321
     49          1           0      -12.648218    2.565281   -4.232723
     50          1           0      -13.123418    4.648332   -3.703739
     51          1           0      -12.084146    4.533806   -2.254965
     52          1           0      -13.772824    4.133542   -2.137173
     53          1           0      -11.151576    1.119894   -4.445644
     54          1           0      -10.080950    0.444476   -3.207948
     55          1           0       -8.625532    2.657824   -3.849672
     56          1           0       -9.665678    2.591073   -5.281468
     57          1           0      -17.614312   -0.282445   -4.610674
     58          1           0      -16.753272    1.290090   -4.533473
     59          1           0      -18.421517    1.059003   -3.974795
     60          1           0      -19.191344   -1.726790   -3.772795
     61          1           0      -19.871596   -0.261196   -3.351263
     62          1           0      -20.623328   -1.818157   -2.798917
     63          1           0      -16.444962   -3.107596    2.947719
     64          1           0      -15.599021   -0.944886    4.848174
     65          1           0      -18.424806   -1.129805    3.057534
     66          1           0      -17.991980   -1.430101    4.800444
     67          1           0      -18.450728   -2.736621    3.823808
     68          1           0      -13.676081   -3.039173    4.805639
     69          1           0      -14.992371   -3.831888    4.156215
     70          1           0      -15.416739   -4.299430    6.504159
     71          1           0      -15.841541   -2.562439    6.688992
     72          1           0      -14.186902   -3.142887    6.967037
     73          1           0      -10.485644   -0.960780    4.981313
     74          1           0      -10.310743    0.759274    5.084221
     75          1           0       -8.931685   -0.228838    4.466397
     76          1           0       -9.150744    2.869523    0.087740
     77          1           0       -6.396652    2.354258   -3.049844
     78          1           0       -5.360255    1.256996   -1.941143
     79          1           0       -5.296823    3.032605   -2.017082
     80         12           0       13.385345    0.536279   -0.089134
     81          6           0       12.323686   -2.727030   -0.700073
     82          6           0       10.100429    1.578227   -0.179986
     83          6           0       14.594769    3.509475    0.593287
     84          6           0       16.574492   -0.832521    1.023639
     85          7           0       11.392558   -0.544403   -0.486063
     86          6           0       11.190898   -1.881916   -0.681038
     87          6           0        9.753123   -2.172668   -0.928031
     88          6           0        9.034724   -0.780828   -0.714891
     89          6           0       10.236963    0.203672   -0.437041
     90          6           0        8.038566   -0.387422   -1.834599
     91          6           0        9.184643   -3.262594    0.012885
     92          6           0        8.482607   -4.357461   -0.788532
     93          1           0        7.021154   -4.718942   -0.385428
     94          7           0       12.465645    2.316697    0.140431
     95          6           0       11.102386    2.585282    0.026799
     96          6           0       10.978315    4.029789    0.173218
     97          6           0       12.303977    4.638394    0.369037
     98          6           0       13.241686    3.473055    0.306131
     99          6           0        9.700182    4.696761    0.288841
    100          6           0       12.475440    6.059808    0.713173
    101          8           0       11.564644    6.857019    0.795847
    102          6           0       13.778004    6.669262    1.098863
    103          7           0       15.232031    1.181409    0.709313
    104          6           0       15.563014    2.509765    0.619988
    105          6           0       16.975891    2.729442    1.118127
    106          6           0       17.368182    1.418919    1.690716
    107          6           0       16.335896    0.533249    1.195184
    108          6           0       17.971272    3.360062    0.060132
    109          6           0       17.281334    1.377663    3.255056
    110          6           0       18.206836    0.481312    3.939015
    111          7           0       14.330284   -1.382487    0.110833
    112          6           0       15.616770   -1.778099    0.499867
    113          6           0       15.809928   -3.148935    0.144380
    114          6           0       14.561311   -3.583508   -0.284373
    115          6           0       13.656533   -2.463019   -0.252190
    116          6           0       17.095420   -3.873372    0.304054
    117          6           0       13.830253   -4.711993   -0.704697
    118          8           0       14.186997   -5.858578   -0.859964
    119          6           0       12.406157   -4.214221   -1.038132
    120          6           0       12.092886   -4.555688   -2.434814
    121          8           0       12.380050   -3.869204   -3.429941
    122          8           0       11.573527   -5.828676   -2.491731
    123          6           0       11.088012   -6.367200   -3.751904
    124          1           0        9.047315    1.845470   -0.284314
    125          1           0       15.117663    4.421840    0.890836
    126          1           0       17.554109   -1.194444    1.342797
    127          1           0        9.688223   -2.292518   -2.009844
    128          1           0        8.396602   -0.750851    0.167752
    129          1           0        7.843478   -1.345797   -2.317324
    130          1           0        8.349674    0.412017   -2.507147
    131          1           0        7.105380   -0.038264   -1.393285
    132          1           0        8.392254   -2.910387    0.673061
    133          1           0       10.031869   -3.641642    0.584113
    134          1           0        9.081930   -5.212328   -0.475647
    135          1           0        8.623950   -4.126192   -1.843265
    136          1           0        8.917762    3.946352    0.173681
    137          1           0        9.468587    5.424781   -0.489202
    138          1           0        9.607658    5.128091    1.286203
    139          1           0       14.398575    6.268143    0.297533
    140          1           0       14.076096    6.268978    2.068250
    141          1           0       13.731074    7.757967    1.065886
    142          1           0       16.847378    3.493067    1.884356
    143          1           0       18.290678    0.961468    1.333022
    144          1           0       17.425553    3.709690   -0.816452
    145          1           0       18.842663    2.747489   -0.173859
    146          1           0       18.382417    4.318154    0.376915
    147          1           0       16.258861    1.141282    3.549886
    148          1           0       17.472704    2.364494    3.676239
    149          1           0       19.143518    1.013025    4.109865
    150          1           0       18.361415   -0.449850    3.392906
    151          1           0       17.885686    0.342026    4.971780
    152          1           0       17.941871   -3.233401    0.055307
    153          1           0       17.150094   -4.807039   -0.255977
    154          1           0       17.170645   -4.022772    1.381185
    155          1           0       11.628871   -4.772443   -0.516124
    156          1           0       11.807694   -6.649329   -4.520453
    157          1           0       10.348636   -5.688217   -4.176162
    158          1           0       10.635707   -7.318013   -3.472443
 ---------------------------------------------------------------------

 SCF Done:  E(RwB97XD) =  -4070.54959121     A.U. after   19 cycles

 Excitation energies and oscillator strengths:

 Excited State   1:      Singlet-A      1.6144 eV  768.00 nm  f=0.3692  <S**2>=0.000
     309 -> 315       -0.19421
     312 -> 314        0.68126
     309 <- 315       -0.12112
 This state for optimization and/or second-order correction.
 Total Energy, E(TD-HF/TD-DFT) =  -4070.49026372
 Copying the excited state density for this state as the 1-particle RhoCI density.

 Excited State   2:      Singlet-A      1.6951 eV  731.42 nm  f=0.3822  <S**2>=0.000
     310 -> 316        0.16830
     311 -> 313        0.68659
     310 <- 316        0.11045

 Excited State   3:      Singlet-A      2.1227 eV  584.09 nm  f=0.2338  <S**2>=0.000
     310 -> 313        0.66988
     311 -> 316       -0.20455

 Excited State   4:      Singlet-A      2.1298 eV  582.15 nm  f=0.0891  <S**2>=0.000
     309 -> 314        0.63160
     312 -> 315        0.29909

 Excited State   5:      Singlet-A      3.2692 eV  379.24 nm  f=0.0024  <S**2>=0.000
     305 -> 314       -0.24522
     307 -> 314        0.51881
     308 -> 314        0.36065

 The electronic state is 1-A.
 Alpha  occ. eigenvalues --  -46.95807 -46.95211 -19.30022 -19.29228 -19.24655
 Alpha  occ. eigenvalues --  -19.24336 -19.24243 -19.23488 -19.23324 -19.22335
 Alpha  occ. eigenvalues --  -14.46848 -14.46478 -14.46409 -14.44832 -14.44757
 Alpha  occ. eigenvalues --  -14.44442 -14.44393 -14.43688 -10.42867 -10.42358
 Alpha  occ. eigenvalues --  -10.39962 -10.39146 -10.38126 -10.37581 -10.35599
 Alpha  occ. eigenvalues --  -10.35578 -10.35507 -10.35413 -10.35331 -10.35318
 Alpha  occ. eigenvalues --  -10.35120 -10.35072 -10.35013 -10.34763 -10.34385
 Alpha  occ. eigenvalues --  -10.34099 -10.34050 -10.33854 -10.33815 -10.33608
 Alpha  occ. eigenvalues --  -10.33380 -10.33020 -10.32989 -10.32873 -10.32855
 Alpha  occ. eigenvalues --  -10.32635 -10.32627 -10.32334 -10.32290 -10.32283
 Alpha  occ. eigenvalues --  -10.32271 -10.32207 -10.32153 -10.32125 -10.31998
 Alpha  occ. eigenvalues --  -10.31995 -10.31921 -10.31780 -10.31338 -10.31337
 Alpha  occ. eigenvalues --  -10.31324 -10.31322 -10.31268 -10.31256 -10.31132
 Alpha  occ. eigenvalues --  -10.31023 -10.30877 -10.30613 -10.30582 -10.30417
 Alpha  occ. eigenvalues --  -10.30293 -10.30292 -10.30235 -10.30187 -10.30045
 Alpha  occ. eigenvalues --  -10.30026 -10.29899 -10.29617 -10.29574 -10.29420
 Alpha  occ. eigenvalues --  -10.29367 -10.29299 -10.29107 -10.28997 -10.28704
 Alpha  occ. eigenvalues --  -10.28678  -3.21786  -3.21148  -1.95360  -1.94917
 Alpha  occ. eigenvalues --   -1.94746  -1.94739  -1.94280  -1.94104  -1.17553
 Alpha  occ. eigenvalues --   -1.16358  -1.14448  -1.13074  -1.12214  -1.11990
 Alpha  occ. eigenvalues --   -1.08823  -1.08556  -1.07863  -1.06997  -1.06940
 Alpha  occ. eigenvalues --   -1.06916  -1.05740  -1.04929  -1.03553  -1.02986
 Alpha  occ. eigenvalues --   -0.94558  -0.93216  -0.92582  -0.91363  -0.91170
 Alpha  occ. eigenvalues --   -0.90920  -0.90839  -0.89904  -0.89791  -0.89645
 Alpha  occ. eigenvalues --   -0.89569  -0.89115  -0.88195  -0.87150  -0.87091
 Alpha  occ. eigenvalues --   -0.86381  -0.86300  -0.85292  -0.84969  -0.84423
 Alpha  occ. eigenvalues --   -0.84098  -0.83937  -0.83306  -0.82902  -0.82714
 Alpha  occ. eigenvalues --   -0.82402  -0.80796  -0.80523  -0.79839  -0.79068
 Alpha  occ. eigenvalues --   -0.78983  -0.78627  -0.78168  -0.78156  -0.77408
 Alpha  occ. eigenvalues --   -0.77265  -0.75327  -0.74751  -0.73950  -0.73112
 Alpha  occ. eigenvalues --   -0.71243  -0.71230  -0.70962  -0.70740  -0.69995
 Alpha  occ. eigenvalues --   -0.69858  -0.69387  -0.69307  -0.68339  -0.68079
 Alpha  occ. eigenvalues --   -0.67809  -0.67556  -0.67213  -0.67005  -0.66619
 Alpha  occ. eigenvalues --   -0.66262  -0.63945  -0.63516  -0.63081  -0.62645
 Alpha  occ. eigenvalues --   -0.62095  -0.61400  -0.61370  -0.61084  -0.60901
 Alpha  occ. eigenvalues --   -0.60057  -0.59857  -0.59556  -0.59305  -0.59197
 Alpha  occ. eigenvalues --   -0.58597  -0.58324  -0.57747  -0.57666  -0.57505
 Alpha  occ. eigenvalues --   -0.57349  -0.57061  -0.56287  -0.56089  -0.55945
 Alpha  occ. eigenvalues --   -0.55856  -0.55393  -0.55069  -0.55043  -0.54678
 Alpha  occ. eigenvalues --   -0.54624  -0.54419  -0.54408  -0.54161  -0.53958
 Alpha  occ. eigenvalues --   -0.53953  -0.53801  -0.53595  -0.53520  -0.53245
 Alpha  occ. eigenvalues --   -0.53140  -0.53117  -0.52553  -0.52277  -0.52207
 Alpha  occ. eigenvalues --   -0.52094  -0.51885  -0.51827  -0.51663  -0.51561
 Alpha  occ. eigenvalues --   -0.51540  -0.51276  -0.51192  -0.50975  -0.50780
 Alpha  occ. eigenvalues --   -0.50701  -0.50673  -0.50415  -0.50341  -0.50260
 Alpha  occ. eigenvalues --   -0.49966  -0.49725  -0.49495  -0.49447  -0.49372
 Alpha  occ. eigenvalues --   -0.49001  -0.48870  -0.48640  -0.48490  -0.48398
 Alpha  occ. eigenvalues --   -0.48172  -0.48169  -0.48094  -0.47735  -0.47596
 Alpha  occ. eigenvalues --   -0.47481  -0.47332  -0.47165  -0.46902  -0.46814
 Alpha  occ. eigenvalues --   -0.46757  -0.46546  -0.46452  -0.46445  -0.46385
 Alpha  occ. eigenvalues --   -0.45973  -0.45905  -0.45517  -0.45449  -0.45340
 Alpha  occ. eigenvalues --   -0.45298  -0.45084  -0.44933  -0.44911  -0.44785
 Alpha  occ. eigenvalues --   -0.44750  -0.44686  -0.44376  -0.44183  -0.43914
 Alpha  occ. eigenvalues --   -0.43798  -0.43580  -0.43465  -0.43298  -0.43226
 Alpha  occ. eigenvalues --   -0.43006  -0.42934  -0.42590  -0.42508  -0.42293
 Alpha  occ. eigenvalues --   -0.42117  -0.42102  -0.41811  -0.41785  -0.41040
 Alpha  occ. eigenvalues --   -0.40353  -0.40281  -0.39588  -0.39569  -0.39222
 Alpha  occ. eigenvalues --   -0.39125  -0.38984  -0.38493  -0.38296  -0.38218
 Alpha  occ. eigenvalues --   -0.38196  -0.37755  -0.36270  -0.35663  -0.35580
 Alpha  occ. eigenvalues --   -0.35127  -0.35068  -0.34791  -0.33998  -0.33643
 Alpha  occ. eigenvalues --   -0.33524  -0.33303  -0.32793  -0.32589  -0.31969
 Alpha  occ. eigenvalues --   -0.31820  -0.31618  -0.31469  -0.26155  -0.25489
 Alpha  occ. eigenvalues --   -0.23490  -0.23303
 Alpha virt. eigenvalues --   -0.07448  -0.07446  -0.00524   0.01550   0.02389
 Alpha virt. eigenvalues --    0.03016   0.04534   0.04686   0.05460   0.05904
 Alpha virt. eigenvalues --    0.06587   0.06701   0.07534   0.07696   0.08025

 Mulliken charges:
               1
     1  Mg   0.973841
     2  C   -0.021156
     3  C   -0.054167
     4  C   -0.053580
     5  C   -0.110144
     6  N   -0.302026
     7  C   -0.007166
     8  C   -0.073171
     9  C   -0.132845
    10  C    0.070349
    11  C    0.036892
    12  C    0.034172
    13  C   -0.096355
    14  H    0.049720
    15  N   -0.460763
    16  C    0.091480
    17  C   -0.147316
    18  C   -0.078589
    19  C    0.134450
    20  C    0.063178
    21  C    0.051874
    22  O   -0.201347
    23  C   -0.020693
    24  N   -0.271054
    25  C    0.014613
    26  C   -0.095393
    27  C   -0.044728
    28  C    0.058271
    29  C    0.023234
    30  C   -0.029464
    31  C   -0.028146
    32  N   -0.485482
    33  C    0.125856
    34  C   -0.223676
    35  C   -0.055441
    36  C    0.152337
    37  C    0.077589
    38  C    0.163176
    39  O   -0.174957
    40  C   -0.083152
    41  C    0.267151
    42  O   -0.273100
    43  O   -0.389966
    44  C    0.157582
    45  H   -0.025665
    46  H    0.021107
    47  H   -0.000146
    48  H    0.020610
    49  H    0.035050
    50  H    0.041987
    51  H    0.027886
    52  H    0.045303
    53  H    0.025050
    54  H    0.073785
    55  H    0.043901
    56  H    0.037156
    57  H    0.048572
    58  H    0.053721
    59  H    0.042109
    60  H    0.049873
    61  H    0.043000
    62  H    0.056178
    63  H    0.045884
    64  H    0.031689
    65  H    0.049332
    66  H    0.037576
    67  H    0.032043
    68  H    0.020830
    69  H    0.014721
    70  H    0.040159
    71  H    0.034935
    72  H    0.038229
    73  H    0.028665
    74  H    0.052747
    75  H    0.061799
    76  H    0.080279
    77  H    0.043784
    78  H    0.073521
    79  H    0.042442
    80  Mg   0.953357
    81  C    0.048449
    82  C   -0.057330
    83  C   -0.122023
    84  C   -0.096330
    85  N   -0.342783
    86  C   -0.024103
    87  C   -0.029526
    88  C   -0.145904
    89  C    0.045736
    90  C    0.012053
    91  C    0.023672
    92  C   -0.137570
    93  H    0.039914
    94  N   -0.537372
    95  C    0.202024
    96  C   -0.171390
    97  C   -0.064015
    98  C    0.269739
    99  C    0.097362
   100  C   -0.011555
   101  O   -0.238997
   102  C    0.006742
   103  N   -0.368923
   104  C    0.069663
   105  C   -0.083263
   106  C   -0.081831
   107  C    0.063040
   108  C    0.032070
   109  C    0.003128
   110  C   -0.018633
   111  N   -0.407031
   112  C    0.111896
   113  C   -0.185452
   114  C   -0.015275
   115  C    0.112675
   116  C    0.089633
   117  C    0.108481
   118  O   -0.187691
   119  C   -0.127674
   120  C    0.253738
   121  O   -0.269168
   122  O   -0.361153
   123  C    0.148996
   124  H    0.001736
   125  H   -0.005852
   126  H   -0.002913
   127  H    0.049444
   128  H    0.042925
   129  H    0.038523
   130  H    0.051485
   131  H    0.032766
   132  H    0.052217
   133  H    0.051912
   134  H    0.064129
   135  H    0.053134
   136  H    0.001275
   137  H    0.057373
   138  H    0.065003
   139  H    0.039477
   140  H    0.062526
   141  H    0.058102
   142  H    0.032754
   143  H    0.026990
   144  H    0.033972
   145  H    0.045365
   146  H    0.027724
   147  H    0.039502
   148  H    0.019922
   149  H    0.027010
   150  H    0.029228
   151  H    0.034572
   152  H    0.036070
   153  H    0.067865
   154  H    0.051099
   155  H    0.051054
   156  H    0.057993
   157  H    0.047344
   158  H    0.050901
 Sum of Mulliken charges =  -0.00000

 Dipole moment (field-independent basis, Debye):
    X=             -2.8389    Y=              2.4475    Z=             -1.6352  Tot=              4.0894
 Quadrupole moment (field-independent basis, Debye-Ang):
   XX=           -367.4778   YY=           -540.0542   ZZ=           -478.8797
   XY=             16.2082   XZ=             76.6523   YZ=            -18.4933

 Normal termination of Gaussian 16 at Sun Sep 19 14:12:48 2021.
