 Gaussian 16, Revision A.03,
 Gaussian 16:  ES64L-G16RevA.03 25-Dec-2016

 --------------------------------
 #p wB97XD/Def2SVP td=(nstates=5)
 --------------------------------

 --------------------------------
 TDDFT excited states in gaussian
 --------------------------------
 Symbolic Z-matrix:
 Charge =  0 Multiplicity = 1

                         Standard orientation:
 ---------------------------------------------------------------------
 Center     Atomic      Atomic             Coordinates (Angstroms)
 Number     Number       Type             X           Y           Z
 ---------------------------------------------------------------------
      1         12           0       25.141811   -0.771748    0.297664
      2          6           0       25.110463    2.299986   -1.337166
      3          6           0       25.640807    0.782915    3.244773
      4          6           0       25.606142   -3.806189    1.712602
      5          6           0       25.121978   -2.294074   -2.796188
      6          7           0       25.369561    1.360062    0.858798
      7          6           0       25.110105    2.437488    0.050474
      8          6           0       25.147295    3.692880    0.836170
      9          6           0       25.368789    3.285439    2.297436
     10          6           0       25.456277    1.701843    2.194917
     11          6           0       26.509715    3.922942    3.075117
     12          6           0       23.805582    4.590501    0.590845
     13          6           0       23.984196    5.993956   -0.034191
     14          1           0       23.167003    7.166457    0.449894
     15          7           0       25.442807   -1.429192    2.222088
     16          6           0       25.644576   -0.623083    3.332366
     17          6           0       25.891816   -1.433158    4.469244
     18          6           0       25.892677   -2.791360    4.050570
     19          6           0       25.619814   -2.720745    2.611408
     20          6           0       25.981384   -0.733780    5.881792
     21          6           0       26.203348   -3.989929    4.945436
     22          8           0       26.281292   -5.168217    4.565996
     23          6           0       26.352603   -3.795477    6.390233
     24          7           0       25.589143   -2.786790   -0.408918
     25          6           0       25.623030   -3.867683    0.342726
     26          6           0       25.900416   -5.126480   -0.509689
     27          6           0       25.240528   -4.617898   -1.851597
     28          6           0       25.289163   -3.102706   -1.682247
     29          6           0       27.374205   -5.613896   -0.767836
     30          6           0       23.756166   -5.132264   -2.173350
     31          6           0       22.686997   -4.819392   -1.208437
     32          7           0       25.164766   -0.191697   -1.770795
     33          6           0       25.139584   -0.950366   -2.957464
     34          6           0       25.131666   -0.069613   -4.081736
     35          6           0       25.185836    1.195003   -3.530335
     36          6           0       25.095870    1.065895   -2.105610
     37          6           0       25.333952   -0.441108   -5.468733
     38          6           0       25.057977    2.542221   -3.833772
     39          8           0       24.985312    3.138539   -4.913199
     40          6           0       25.099546    3.357532   -2.461728
     41          6           0       26.408098    4.076360   -2.467712
     42          8           0       27.550939    3.674764   -2.533853
     43          8           0       26.089784    5.370921   -2.414308
     44          6           0       27.241757    6.330313   -2.376636
     45          1           0       25.570678    1.395488    4.146016
     46          1           0       25.604480   -4.765878    2.232259
     47          1           0       25.049369   -2.791331   -3.765465
     48          1           0       26.011806    4.233425    0.452773
     49          1           0       24.457967    3.486492    2.860991
     50          1           0       27.235989    3.133403    2.885730
     51          1           0       26.301987    4.149083    4.121122
     52          1           0       26.949097    4.855964    2.723302
     53          1           0       23.269597    4.680450    1.535225
     54          1           0       23.118349    4.159616   -0.137704
     55          1           0       23.672566    5.898658   -1.074741
     56          1           0       25.032256    6.283783   -0.096669
     57          1           0       26.905273   -1.051706    6.364588
     58          1           0       25.141925   -1.259114    6.337404
     59          1           0       26.036584    0.354215    5.919458
     60          1           0       27.141402   -3.077131    6.609221
     61          1           0       26.824733   -4.706016    6.758408
     62          1           0       25.425606   -3.611497    6.933915
     63          1           0       25.215222   -5.911217   -0.188758
     64          1           0       25.899012   -5.014983   -2.623773
     65          1           0       28.107960   -4.828883   -0.946770
     66          1           0       27.251321   -6.272013   -1.628752
     67          1           0       27.745178   -6.187019    0.082288
     68          1           0       23.687753   -6.215706   -2.274221
     69          1           0       23.326893   -4.592315   -3.017268
     70          1           0       22.417411   -3.795802   -1.464804
     71          1           0       22.912758   -4.823356   -0.141645
     72          1           0       21.756347   -5.383256   -1.262931
     73          1           0       26.418293   -0.520052   -5.555315
     74          1           0       24.970350    0.275693   -6.204436
     75          1           0       24.793978   -1.342859   -5.759548
     76          1           0       24.229981    3.997545   -2.311874
     77          1           0       27.263990    6.681931   -1.344903
     78          1           0       27.081129    7.125466   -3.104318
     79          1           0       28.237350    5.926391   -2.562472
     80         12           0      -25.938793   -0.350201   -0.362262
     81          6           0      -23.860513    2.419545   -0.079900
     82          6           0      -27.988119    1.091655    1.981765
     83          6           0      -27.876435   -3.205957   -0.433700
     84          6           0      -23.553514   -2.001624   -2.294573
     85          7           0      -25.952665    1.582899    0.727760
     86          6           0      -25.085664    2.603948    0.618224
     87          6           0      -25.502216    3.892774    1.364576
     88          6           0      -26.726810    3.360030    2.225052
     89          6           0      -26.911565    1.872651    1.655093
     90          6           0      -26.360646    3.452987    3.749274
     91          6           0      -25.893869    4.984070    0.241219
     92          6           0      -25.172442    6.361261    0.327748
     93          1           0      -24.572843    6.682014    1.744554
     94          7           0      -27.640701   -1.042458    0.658002
     95          6           0      -28.389040   -0.233791    1.538198
     96          6           0      -29.636572   -0.904200    1.836764
     97          6           0      -29.606801   -2.152275    1.201828
     98          6           0      -28.360179   -2.163857    0.350140
     99          6           0      -30.570750   -0.391533    2.942052
    100          6           0      -30.651438   -3.296158    1.292151
    101          8           0      -30.573146   -4.386993    0.696705
    102          6           0      -31.926105   -3.051115    2.117869
    103          7           0      -25.658890   -2.336043   -1.194769
    104          6           0      -26.691439   -3.318867   -1.108026
    105          6           0      -26.202864   -4.662677   -1.687932
    106          6           0      -24.933094   -4.172415   -2.528351
    107          6           0      -24.719607   -2.726044   -2.009850
    108          6           0      -25.968396   -5.648474   -0.555252
    109          6           0      -25.233599   -4.167111   -4.086464
    110          6           0      -26.452942   -3.459896   -4.770306
    111          7           0      -24.073592    0.036141   -0.995388
    112          6           0      -23.187372   -0.722004   -1.766725
    113          6           0      -21.996294    0.033094   -1.984211
    114          6           0      -22.218045    1.264708   -1.394959
    115          6           0      -23.454735    1.205668   -0.706154
    116          6           0      -20.724268   -0.429360   -2.664985
    117          6           0      -21.646776    2.534058   -1.175796
    118          8           0      -20.548978    2.888943   -1.466282
    119          6           0      -22.649429    3.290373   -0.209296
    120          6           0      -21.922225    3.454069    1.096677
    121          8           0      -22.161237    2.803638    2.092621
    122          8           0      -20.983418    4.390891    0.917726
    123          6           0      -19.940141    4.337974    1.912412
    124          1           0      -28.688464    1.575846    2.665175
    125          1           0      -28.365583   -4.165126   -0.255222
    126          1           0      -22.790910   -2.509659   -2.889414
    127          1           0      -24.725312    4.341465    1.983310
    128          1           0      -27.668961    3.880919    2.052846
    129          1           0      -26.639862    2.584212    4.345875
    130          1           0      -26.948439    4.334279    4.004465
    131          1           0      -25.310124    3.737920    3.801713
    132          1           0      -26.981298    5.054994    0.229821
    133          1           0      -25.645830    4.538977   -0.722664
    134          1           0      -25.987827    7.035900    0.069031
    135          1           0      -24.367962    6.505954   -0.392739
    136          1           0      -30.700190   -1.207769    3.653208
    137          1           0      -31.558051   -0.200379    2.519435
    138          1           0      -30.149347    0.503864    3.397931
    139          1           0      -31.630410   -3.078803    3.167446
    140          1           0      -32.545849   -3.934697    1.966139
    141          1           0      -32.479111   -2.213043    1.694406
    142          1           0      -26.974369   -4.948883   -2.403345
    143          1           0      -24.117156   -4.885146   -2.414083
    144          1           0      -26.605961   -5.466251    0.310007
    145          1           0      -24.931232   -5.610873   -0.222903
    146          1           0      -26.223936   -6.661422   -0.865598
    147          1           0      -25.212147   -5.201794   -4.428766
    148          1           0      -24.389401   -3.604367   -4.484980
    149          1           0      -27.288758   -4.159566   -4.783606
    150          1           0      -26.123288   -3.237450   -5.785844
    151          1           0      -26.723062   -2.479557   -4.376487
    152          1           0      -20.894722   -0.727838   -3.699529
    153          1           0      -20.422168   -1.299935   -2.083159
    154          1           0      -19.963165    0.337389   -2.816270
    155          1           0      -22.973220    4.291372   -0.494929
    156          1           0      -18.965452    4.662233    1.548562
    157          1           0      -19.806104    3.468729    2.556110
    158          1           0      -20.095391    5.030134    2.740290
 ---------------------------------------------------------------------

 SCF Done:  E(RwB97XD) =  -4070.59076867     A.U. after   19 cycles

 Excitation energies and oscillator strengths:

 Excited State   1:      Singlet-A      1.6463 eV  753.10 nm  f=0.3633  <S**2>=0.000
     309 -> 315        0.18119
     311 -> 313        0.68324
     309 <- 315        0.11546
 This state for optimization and/or second-order correction.
 Total Energy, E(TD-HF/TD-DFT) =  -4070.53026789
 Copying the excited state density for this state as the 1-particle RhoCI density.

 Excited State   2:      Singlet-A      1.6514 eV  750.80 nm  f=0.3981  <S**2>=0.000
     310 -> 316       -0.18072
     312 -> 314        0.68385
     310 <- 316       -0.11550

 Excited State   3:      Singlet-A      2.1205 eV  584.69 nm  f=0.1342  <S**2>=0.000
     309 -> 313        0.64941
     311 -> 315       -0.26633

 Excited State   4:      Singlet-A      2.1706 eV  571.20 nm  f=0.1247  <S**2>=0.000
     310 -> 314        0.64463
     312 -> 316        0.27782

 Excited State   5:      Singlet-A      3.3232 eV  373.09 nm  f=0.0023  <S**2>=0.000
     304 -> 313       -0.37121
     304 -> 317       -0.23953
     304 -> 319        0.16356
     307 -> 313        0.45652
     307 -> 317        0.15071

 The electronic state is 1-A.
 Alpha  occ. eigenvalues --  -46.95686 -46.94419 -19.31400 -19.30284 -19.25024
 Alpha  occ. eigenvalues --  -19.24450 -19.24040 -19.23708 -19.23581 -19.23323
 Alpha  occ. eigenvalues --  -14.46839 -14.46592 -14.46434 -14.46024 -14.44324
 Alpha  occ. eigenvalues --  -14.44116 -14.43704 -14.43587 -10.43172 -10.42464
 Alpha  occ. eigenvalues --  -10.39049 -10.39048 -10.38868 -10.38209 -10.35672
 Alpha  occ. eigenvalues --  -10.35482 -10.35480 -10.35246 -10.35112 -10.34695
 Alpha  occ. eigenvalues --  -10.34641 -10.34332 -10.34311 -10.34280 -10.34113
 Alpha  occ. eigenvalues --  -10.33889 -10.33828 -10.33823 -10.33615 -10.33604
 Alpha  occ. eigenvalues --  -10.33134 -10.33011 -10.32966 -10.32818 -10.32620
 Alpha  occ. eigenvalues --  -10.32618 -10.32585 -10.32445 -10.32350 -10.32304
 Alpha  occ. eigenvalues --  -10.32298 -10.32207 -10.32017 -10.31964 -10.31912
 Alpha  occ. eigenvalues --  -10.31857 -10.31757 -10.31710 -10.31633 -10.31612
 Alpha  occ. eigenvalues --  -10.31554 -10.31485 -10.31473 -10.31204 -10.31077
 Alpha  occ. eigenvalues --  -10.31040 -10.30782 -10.30749 -10.30574 -10.30542
 Alpha  occ. eigenvalues --  -10.30485 -10.30334 -10.30327 -10.30199 -10.30126
 Alpha  occ. eigenvalues --  -10.29939 -10.29863 -10.29660 -10.29618 -10.29459
 Alpha  occ. eigenvalues --  -10.29425 -10.29181 -10.29082 -10.28783 -10.28714
 Alpha  occ. eigenvalues --  -10.28554  -3.21550  -3.20451  -1.95140  -1.94648
 Alpha  occ. eigenvalues --   -1.94534  -1.94044  -1.93553  -1.93444  -1.20369
 Alpha  occ. eigenvalues --   -1.19202  -1.14308  -1.11344  -1.11286  -1.10834
 Alpha  occ. eigenvalues --   -1.10483  -1.09571  -1.07443  -1.06316  -1.06187
 Alpha  occ. eigenvalues --   -1.05412  -1.05331  -1.04745  -1.04668  -1.03137
 Alpha  occ. eigenvalues --   -0.94826  -0.94210  -0.91135  -0.90630  -0.90433
 Alpha  occ. eigenvalues --   -0.90328  -0.89989  -0.89898  -0.89628  -0.89538
 Alpha  occ. eigenvalues --   -0.89025  -0.88820  -0.88431  -0.87923  -0.86579
 Alpha  occ. eigenvalues --   -0.86163  -0.85885  -0.85263  -0.85001  -0.84155
 Alpha  occ. eigenvalues --   -0.83947  -0.83525  -0.83161  -0.82805  -0.82712
 Alpha  occ. eigenvalues --   -0.81872  -0.80726  -0.79642  -0.79610  -0.79321
 Alpha  occ. eigenvalues --   -0.79018  -0.78660  -0.77907  -0.77786  -0.77306
 Alpha  occ. eigenvalues --   -0.76887  -0.75493  -0.74966  -0.73674  -0.73143
 Alpha  occ. eigenvalues --   -0.71353  -0.71053  -0.70823  -0.70635  -0.69936
 Alpha  occ. eigenvalues --   -0.69744  -0.69181  -0.68327  -0.67813  -0.67742
 Alpha  occ. eigenvalues --   -0.67391  -0.66789  -0.66546  -0.66459  -0.65968
 Alpha  occ. eigenvalues --   -0.65868  -0.64372  -0.64061  -0.62438  -0.61987
 Alpha  occ. eigenvalues --   -0.61926  -0.61416  -0.61321  -0.60907  -0.60610
 Alpha  occ. eigenvalues --   -0.60389  -0.60262  -0.59998  -0.59904  -0.59242
 Alpha  occ. eigenvalues --   -0.58433  -0.58211  -0.57707  -0.57663  -0.57490
 Alpha  occ. eigenvalues --   -0.57005  -0.56908  -0.56782  -0.56656  -0.56367
 Alpha  occ. eigenvalues --   -0.55895  -0.55316  -0.55306  -0.55177  -0.55062
 Alpha  occ. eigenvalues --   -0.54958  -0.54657  -0.54439  -0.54150  -0.54102
 Alpha  occ. eigenvalues --   -0.53898  -0.53859  -0.53828  -0.53682  -0.53134
 Alpha  occ. eigenvalues --   -0.53031  -0.52867  -0.52582  -0.52341  -0.51850
 Alpha  occ. eigenvalues --   -0.51764  -0.51740  -0.51672  -0.51456  -0.51398
 Alpha  occ. eigenvalues --   -0.51143  -0.51062  -0.50972  -0.50740  -0.50484
 Alpha  occ. eigenvalues --   -0.50452  -0.50289  -0.50224  -0.50039  -0.49852
 Alpha  occ. eigenvalues --   -0.49662  -0.49396  -0.49323  -0.49111  -0.49092
 Alpha  occ. eigenvalues --   -0.48775  -0.48623  -0.48582  -0.48188  -0.48184
 Alpha  occ. eigenvalues --   -0.48091  -0.47927  -0.47769  -0.47751  -0.47486
 Alpha  occ. eigenvalues --   -0.47188  -0.47143  -0.46897  -0.46574  -0.46523
 Alpha  occ. eigenvalues --   -0.46440  -0.46403  -0.46251  -0.46092  -0.46044
 Alpha  occ. eigenvalues --   -0.45674  -0.45633  -0.45575  -0.45371  -0.45306
 Alpha  occ. eigenvalues --   -0.45158  -0.44996  -0.44940  -0.44912  -0.44573
 Alpha  occ. eigenvalues --   -0.44477  -0.44288  -0.44155  -0.44072  -0.43799
 Alpha  occ. eigenvalues --   -0.43758  -0.43706  -0.43627  -0.43267  -0.43022
 Alpha  occ. eigenvalues --   -0.42849  -0.42694  -0.42654  -0.42602  -0.42184
 Alpha  occ. eigenvalues --   -0.42097  -0.41452  -0.41415  -0.41045  -0.40862
 Alpha  occ. eigenvalues --   -0.40048  -0.39987  -0.39665  -0.39649  -0.39393
 Alpha  occ. eigenvalues --   -0.39100  -0.39094  -0.38981  -0.38442  -0.38441
 Alpha  occ. eigenvalues --   -0.38154  -0.38061  -0.36758  -0.36484  -0.36263
 Alpha  occ. eigenvalues --   -0.36085  -0.35756  -0.34933  -0.33810  -0.33698
 Alpha  occ. eigenvalues --   -0.33054  -0.32981  -0.32720  -0.32520  -0.32484
 Alpha  occ. eigenvalues --   -0.32309  -0.32161  -0.31693  -0.25943  -0.25686
 Alpha  occ. eigenvalues --   -0.23268  -0.22781
 Alpha virt. eigenvalues --   -0.07354  -0.06900   0.00277   0.00607   0.02321
 Alpha virt. eigenvalues --    0.02614   0.04340   0.04601   0.05288   0.05619
 Alpha virt. eigenvalues --    0.07109   0.07734   0.08322   0.08608   0.08610

 Mulliken charges:
               1
     1  Mg   0.938926
     2  C   -0.014565
     3  C   -0.073910
     4  C   -0.062203
     5  C   -0.108188
     6  N   -0.378484
     7  C    0.014475
     8  C   -0.066805
     9  C   -0.052579
    10  C   -0.019263
    11  C    0.003418
    12  C    0.004003
    13  C   -0.135897
    14  H    0.038459
    15  N   -0.463803
    16  C    0.198536
    17  C   -0.182702
    18  C   -0.073535
    19  C    0.131217
    20  C    0.083094
    21  C    0.052684
    22  O   -0.248056
    23  C   -0.009928
    24  N   -0.296367
    25  C    0.020051
    26  C   -0.042609
    27  C   -0.112631
    28  C    0.095913
    29  C    0.041901
    30  C    0.013747
    31  C   -0.088510
    32  N   -0.408607
    33  C    0.114830
    34  C   -0.133227
    35  C    0.022677
    36  C    0.108285
    37  C    0.062402
    38  C    0.079712
    39  O   -0.226672
    40  C   -0.091695
    41  C    0.269387
    42  O   -0.244561
    43  O   -0.346894
    44  C    0.120672
    45  H   -0.007281
    46  H    0.014697
    47  H   -0.002417
    48  H    0.047193
    49  H    0.033948
    50  H    0.048096
    51  H    0.042008
    52  H    0.040858
    53  H    0.041746
    54  H    0.042523
    55  H    0.057979
    56  H    0.038114
    57  H    0.037953
    58  H    0.060523
    59  H    0.052887
    60  H    0.039036
    61  H    0.045912
    62  H    0.075401
    63  H    0.019761
    64  H    0.023014
    65  H    0.050109
    66  H    0.040569
    67  H    0.051588
    68  H    0.036079
    69  H    0.028695
    70  H    0.022185
    71  H    0.034901
    72  H    0.039572
    73  H    0.074336
    74  H    0.055806
    75  H    0.035993
    76  H    0.056703
    77  H    0.046823
    78  H    0.068338
    79  H    0.073652
    80  Mg   0.963976
    81  C   -0.022214
    82  C   -0.067075
    83  C   -0.064382
    84  C   -0.108259
    85  N   -0.333592
    86  C    0.014175
    87  C   -0.076063
    88  C   -0.120559
    89  C    0.066785
    90  C    0.027404
    91  C   -0.000322
    92  C   -0.127074
    93  H    0.034981
    94  N   -0.460577
    95  C    0.133461
    96  C   -0.174195
    97  C   -0.090028
    98  C    0.137989
    99  C    0.086327
   100  C    0.051207
   101  O   -0.252407
   102  C   -0.016214
   103  N   -0.338704
   104  C    0.021989
   105  C   -0.061187
   106  C   -0.072516
   107  C    0.097017
   108  C    0.041991
   109  C   -0.059405
   110  C   -0.054439
   111  N   -0.488457
   112  C    0.148376
   113  C   -0.184053
   114  C   -0.008123
   115  C    0.148125
   116  C    0.079502
   117  C    0.095191
   118  O   -0.162831
   119  C   -0.097439
   120  C    0.245582
   121  O   -0.236997
   122  O   -0.309750
   123  C    0.140955
   124  H   -0.012910
   125  H    0.030843
   126  H    0.003270
   127  H    0.039831
   128  H    0.038832
   129  H    0.052150
   130  H    0.032871
   131  H    0.049470
   132  H    0.033243
   133  H    0.042355
   134  H    0.057023
   135  H    0.070026
   136  H    0.044631
   137  H    0.039362
   138  H    0.041550
   139  H    0.061781
   140  H    0.044461
   141  H    0.063955
   142  H    0.035108
   143  H    0.030275
   144  H    0.046251
   145  H    0.035053
   146  H    0.037260
   147  H    0.038903
   148  H    0.021493
   149  H    0.047723
   150  H    0.037258
   151  H    0.043655
   152  H    0.037583
   153  H    0.056835
   154  H    0.057378
   155  H    0.056436
   156  H    0.058009
   157  H    0.054709
   158  H    0.025159
 Sum of Mulliken charges =  -0.00000

 Dipole moment (field-independent basis, Debye):
    X=             -2.3912    Y=              2.6945    Z=              3.3468  Tot=              4.9173
 Quadrupole moment (field-independent basis, Debye-Ang):
   XX=           -530.1865   YY=           -496.1833   ZZ=           -497.4152
   XY=            -55.1087   XZ=             90.3892   YZ=             48.9409

 Normal termination of Gaussian 16 at Sat Sep 18 20:36:13 2021.
