 Gaussian 16, Revision A.03,
 Gaussian 16:  ES64L-G16RevA.03 25-Dec-2016

 --------------------------------
 #p wB97XD/Def2SVP td=(nstates=5)
 --------------------------------

 --------------------------------
 TDDFT excited states in gaussian
 --------------------------------
 Symbolic Z-matrix:
 Charge =  0 Multiplicity = 1

                         Standard orientation:
 ---------------------------------------------------------------------
 Center     Atomic      Atomic             Coordinates (Angstroms)
 Number     Number       Type             X           Y           Z
 ---------------------------------------------------------------------
      1         12           0      -22.737374   -0.700469   -0.195378
      2          6           0      -24.340635    1.792817    1.490661
      3          6           0      -20.341877    1.674727   -1.260250
      4          6           0      -21.263721   -3.066012   -2.051661
      5          6           0      -25.084619   -2.929254    0.954290
      6          7           0      -22.543789    1.513591   -0.188865
      7          6           0      -23.287888    2.311327    0.689767
      8          6           0      -22.818875    3.793726    0.668021
      9          6           0      -21.598973    3.647527   -0.279956
     10          6           0      -21.503391    2.184034   -0.671597
     11          6           0      -21.424888    4.571490   -1.559801
     12          6           0      -22.432885    4.444154    2.068915
     13          6           0      -21.946805    5.910172    1.913991
     14          1           0      -22.953837    6.938248    2.431477
     15          7           0      -20.966798   -0.694718   -1.468252
     16          6           0      -20.036529    0.318739   -1.553310
     17          6           0      -19.026289   -0.150687   -2.494297
     18          6           0      -19.312442   -1.535005   -2.723479
     19          6           0      -20.539717   -1.846995   -2.061119
     20          6           0      -17.931881    0.739171   -2.942674
     21          6           0      -18.466582   -2.435505   -3.690022
     22          8           0      -18.821168   -3.572092   -4.063343
     23          6           0      -17.185496   -1.907436   -4.281164
     24          7           0      -23.112619   -2.593300   -0.511572
     25          6           0      -22.352697   -3.441573   -1.365230
     26          6           0      -23.074471   -4.746822   -1.612732
     27          6           0      -23.929673   -4.816759   -0.349036
     28          6           0      -24.032691   -3.372900    0.121468
     29          6           0      -23.926652   -4.735200   -2.926088
     30          6           0      -23.265293   -5.638347    0.778296
     31          6           0      -23.460431   -7.130762    0.788450
     32          7           0      -24.446061   -0.683608    0.958150
     33          6           0      -25.214511   -1.656552    1.473865
     34          6           0      -26.240499   -1.071741    2.285769
     35          6           0      -25.945071    0.273348    2.351207
     36          6           0      -24.805575    0.463949    1.554234
     37          6           0      -27.290824   -1.884626    2.958803
     38          6           0      -26.364455    1.483139    2.918717
     39          8           0      -27.269446    1.745825    3.687071
     40          6           0      -25.311968    2.558604    2.373568
     41          6           0      -26.072829    3.625240    1.668867
     42          8           0      -26.689400    3.520902    0.636523
     43          8           0      -25.882742    4.816063    2.244789
     44          6           0      -26.564157    5.996846    1.587002
     45          1           0      -19.563930    2.424811   -1.416259
     46          1           0      -20.790273   -3.849419   -2.646851
     47          1           0      -25.788747   -3.592701    1.460046
     48          1           0      -23.592826    4.392794    0.188103
     49          1           0      -20.680485    3.814054    0.283646
     50          1           0      -20.405966    4.875193   -1.801401
     51          1           0      -22.159717    5.376409   -1.536382
     52          1           0      -21.679238    3.916312   -2.392851
     53          1           0      -21.696430    3.750302    2.472400
     54          1           0      -23.311156    4.409178    2.713391
     55          1           0      -21.619021    6.086765    0.889551
     56          1           0      -21.071290    6.013067    2.554400
     57          1           0      -18.089605    0.956430   -3.999267
     58          1           0      -17.007450    0.243378   -2.646463
     59          1           0      -17.932283    1.669593   -2.374674
     60          1           0      -16.703575   -2.684210   -4.874868
     61          1           0      -16.536154   -1.772894   -3.415001
     62          1           0      -17.246661   -0.978186   -4.846999
     63          1           0      -22.372015   -5.577144   -1.690112
     64          1           0      -24.932378   -5.205489   -0.525540
     65          1           0      -24.829491   -4.138297   -2.802889
     66          1           0      -24.179421   -5.753699   -3.222015
     67          1           0      -23.275591   -4.305411   -3.686540
     68          1           0      -23.517176   -5.274072    1.773459
     69          1           0      -22.192284   -5.446174    0.782549
     70          1           0      -22.467401   -7.573846    0.718769
     71          1           0      -23.922190   -7.322930   -0.180153
     72          1           0      -24.072794   -7.502906    1.609964
     73          1           0      -27.010812   -2.084392    3.992377
     74          1           0      -27.660532   -2.776856    2.452554
     75          1           0      -28.159506   -1.228562    3.016869
     76          1           0      -24.783198    2.981575    3.228043
     77          1           0      -26.304235    5.963916    0.528729
     78          1           0      -26.214511    6.958989    1.962255
     79          1           0      -27.638460    5.883540    1.734035
     80         12           0       23.052737   -0.598531    0.530729
     81          6           0       22.866139    2.265459   -1.488629
     82          6           0       24.186570    1.200998    3.099314
     83          6           0       23.233268   -3.359231    2.209885
     84          6           0       22.828639   -2.474065   -2.554854
     85          7           0       23.561667    1.488959    0.690926
     86          6           0       23.270502    2.499324   -0.138046
     87          6           0       23.738003    3.825613    0.403466
     88          6           0       24.533637    3.400111    1.702188
     89          6           0       24.069003    1.965622    1.863281
     90          6           0       26.090747    3.537801    1.700632
     91          6           0       22.477192    4.746308    0.811024
     92          6           0       22.575965    6.210785    0.271301
     93          1           0       21.167242    7.002216    0.431064
     94          7           0       23.377431   -0.974396    2.410220
     95          6           0       23.808868   -0.087199    3.381561
     96          6           0       23.695891   -0.725833    4.663920
     97          6           0       23.370783   -2.132590    4.485128
     98          6           0       23.191146   -2.219047    2.985259
     99          6           0       24.089433    0.073849    5.939056
    100          6           0       23.170586   -3.333516    5.402522
    101          8           0       22.798580   -4.470453    5.060111
    102          6           0       23.357449   -2.992131    6.838440
    103          7           0       23.183129   -2.578435   -0.172946
    104          6           0       23.260453   -3.525985    0.817715
    105          6           0       23.411727   -4.926997    0.224035
    106          6           0       22.969257   -4.685186   -1.242985
    107          6           0       23.050183   -3.163226   -1.376381
    108          6           0       24.868479   -5.475239    0.496895
    109          6           0       21.538908   -5.246773   -1.642098
    110          6           0       21.302956   -5.543572   -3.131675
    111          7           0       22.843518   -0.233436   -1.603089
    112          6           0       22.769507   -1.084753   -2.663647
    113          6           0       22.495304   -0.369759   -3.889980
    114          6           0       22.458962    0.958411   -3.427307
    115          6           0       22.736947    1.002536   -2.053631
    116          6           0       22.284715   -0.848622   -5.344811
    117          6           0       22.233689    2.307543   -3.865562
    118          8           0       21.814470    2.786653   -4.886492
    119          6           0       22.666597    3.231455   -2.612316
    120          6           0       21.579504    4.213951   -2.610364
    121          8           0       20.428894    4.120659   -2.112928
    122          8           0       22.066272    5.270260   -3.284251
    123          6           0       21.189697    6.423861   -3.491313
    124          1           0       24.470489    1.794862    3.970786
    125          1           0       23.218236   -4.290030    2.781058
    126          1           0       22.671417   -3.093887   -3.440041
    127          1           0       24.334317    4.424375   -0.285566
    128          1           0       24.226011    3.880592    2.631146
    129          1           0       26.511555    2.532365    1.691191
    130          1           0       26.330523    4.034268    2.640751
    131          1           0       26.568256    4.064038    0.874839
    132          1           0       22.239828    4.784760    1.874827
    133          1           0       21.592175    4.221942    0.450453
    134          1           0       22.849138    6.211911   -0.783711
    135          1           0       23.270247    6.857291    0.807515
    136          1           0       23.196129    0.576760    6.306878
    137          1           0       24.691475    0.959492    5.732192
    138          1           0       24.720373   -0.433946    6.668175
    139          1           0       22.664765   -2.243517    7.221346
    140          1           0       24.402496   -2.680753    6.861059
    141          1           0       23.298418   -3.853094    7.504892
    142          1           0       22.703543   -5.547280    0.773580
    143          1           0       23.662999   -5.191438   -1.914139
    144          1           0       25.450847   -5.472260   -0.424398
    145          1           0       24.982986   -6.489144    0.879405
    146          1           0       25.507566   -4.870140    1.140292
    147          1           0       20.885535   -4.398332   -1.436943
    148          1           0       21.173882   -6.124474   -1.108281
    149          1           0       20.555397   -4.880659   -3.569269
    150          1           0       20.994694   -6.545231   -3.431964
    151          1           0       22.227006   -5.254621   -3.630446
    152          1           0       22.802679   -1.804932   -5.417541
    153          1           0       22.689945   -0.129301   -6.057706
    154          1           0       21.211811   -0.999412   -5.463678
    155          1           0       23.594478    3.753448   -2.846781
    156          1           0       21.561376    7.251847   -2.887916
    157          1           0       20.138582    6.174127   -3.350747
    158          1           0       21.318356    6.767234   -4.517709
 ---------------------------------------------------------------------

 SCF Done:  E(RwB97XD) =  -4070.62494360     A.U. after   19 cycles

 Excitation energies and oscillator strengths:

 Excited State   1:      Singlet-A      1.5970 eV  776.38 nm  f=0.3889  <S**2>=0.000
     309 -> 316       -0.16564
     312 -> 313        0.68828
     309 <- 316       -0.11238
 This state for optimization and/or second-order correction.
 Total Energy, E(TD-HF/TD-DFT) =  -4070.56625669
 Copying the excited state density for this state as the 1-particle RhoCI density.

 Excited State   2:      Singlet-A      1.6707 eV  742.09 nm  f=0.3788  <S**2>=0.000
     310 -> 315        0.20302
     311 -> 314        0.67878
     310 <- 315        0.12002

 Excited State   3:      Singlet-A      2.1931 eV  565.33 nm  f=0.0559  <S**2>=0.000
     310 -> 314        0.61559
     311 -> 315       -0.33594

 Excited State   4:      Singlet-A      2.1950 eV  564.85 nm  f=0.1104  <S**2>=0.000
     309 -> 313        0.63686
     312 -> 316        0.28933

 Excited State   5:      Singlet-A      3.2153 eV  385.60 nm  f=0.0019  <S**2>=0.000
     308 -> 313        0.67728

 The electronic state is 1-A.
 Alpha  occ. eigenvalues --  -46.93939 -46.93848 -19.30148 -19.30103 -19.24753
 Alpha  occ. eigenvalues --  -19.24486 -19.24088 -19.23695 -19.23541 -19.23423
 Alpha  occ. eigenvalues --  -14.47330 -14.47202 -14.46359 -14.46331 -14.44117
 Alpha  occ. eigenvalues --  -14.43474 -14.43432 -14.43017 -10.42443 -10.42374
 Alpha  occ. eigenvalues --  -10.40009 -10.39157 -10.38997 -10.38681 -10.36132
 Alpha  occ. eigenvalues --  -10.36064 -10.35778 -10.35397 -10.35218 -10.34843
 Alpha  occ. eigenvalues --  -10.34762 -10.34690 -10.34519 -10.34274 -10.34270
 Alpha  occ. eigenvalues --  -10.34172 -10.34021 -10.33535 -10.33480 -10.33458
 Alpha  occ. eigenvalues --  -10.33250 -10.33243 -10.33027 -10.33016 -10.32812
 Alpha  occ. eigenvalues --  -10.32712 -10.32668 -10.32646 -10.32435 -10.32265
 Alpha  occ. eigenvalues --  -10.32144 -10.32011 -10.31903 -10.31864 -10.31814
 Alpha  occ. eigenvalues --  -10.31794 -10.31786 -10.31774 -10.31701 -10.31671
 Alpha  occ. eigenvalues --  -10.31511 -10.31387 -10.31355 -10.31346 -10.31152
 Alpha  occ. eigenvalues --  -10.30785 -10.30720 -10.30658 -10.30539 -10.30402
 Alpha  occ. eigenvalues --  -10.30374 -10.30373 -10.30372 -10.30281 -10.30083
 Alpha  occ. eigenvalues --  -10.29953 -10.29888 -10.29747 -10.29666 -10.29583
 Alpha  occ. eigenvalues --  -10.29505 -10.29487 -10.29206 -10.29094 -10.28889
 Alpha  occ. eigenvalues --  -10.28499  -3.20183  -3.20034  -1.93765  -1.93632
 Alpha  occ. eigenvalues --   -1.93327  -1.93178  -1.93172  -1.93009  -1.19097
 Alpha  occ. eigenvalues --   -1.18137  -1.13023  -1.12728  -1.11649  -1.10447
 Alpha  occ. eigenvalues --   -1.09352  -1.07739  -1.07512  -1.07219  -1.06331
 Alpha  occ. eigenvalues --   -1.05926  -1.05632  -1.05089  -1.04490  -1.03971
 Alpha  occ. eigenvalues --   -0.95352  -0.94712  -0.91077  -0.90937  -0.90664
 Alpha  occ. eigenvalues --   -0.90543  -0.90143  -0.89914  -0.89867  -0.89394
 Alpha  occ. eigenvalues --   -0.89110  -0.88951  -0.88476  -0.88233  -0.86472
 Alpha  occ. eigenvalues --   -0.86278  -0.85838  -0.85751  -0.84415  -0.84409
 Alpha  occ. eigenvalues --   -0.84187  -0.83492  -0.83252  -0.83162  -0.82571
 Alpha  occ. eigenvalues --   -0.82263  -0.80336  -0.80205  -0.79472  -0.79255
 Alpha  occ. eigenvalues --   -0.79137  -0.78846  -0.78143  -0.77869  -0.77339
 Alpha  occ. eigenvalues --   -0.77129  -0.75224  -0.74793  -0.74134  -0.73778
 Alpha  occ. eigenvalues --   -0.71423  -0.71242  -0.70923  -0.70735  -0.70214
 Alpha  occ. eigenvalues --   -0.69869  -0.69218  -0.68044  -0.68008  -0.67764
 Alpha  occ. eigenvalues --   -0.67482  -0.66899  -0.66871  -0.66634  -0.66457
 Alpha  occ. eigenvalues --   -0.66148  -0.64101  -0.63775  -0.62282  -0.62204
 Alpha  occ. eigenvalues --   -0.62016  -0.61813  -0.61164  -0.61122  -0.60865
 Alpha  occ. eigenvalues --   -0.60638  -0.60315  -0.60007  -0.59991  -0.59128
 Alpha  occ. eigenvalues --   -0.58524  -0.58342  -0.57993  -0.57867  -0.57461
 Alpha  occ. eigenvalues --   -0.57012  -0.56682  -0.56305  -0.56205  -0.55861
 Alpha  occ. eigenvalues --   -0.55399  -0.55380  -0.55320  -0.55196  -0.54821
 Alpha  occ. eigenvalues --   -0.54776  -0.54643  -0.54510  -0.54221  -0.54168
 Alpha  occ. eigenvalues --   -0.53723  -0.53584  -0.53542  -0.53357  -0.53265
 Alpha  occ. eigenvalues --   -0.52998  -0.52699  -0.52330  -0.52283  -0.52169
 Alpha  occ. eigenvalues --   -0.52142  -0.51967  -0.51919  -0.51826  -0.51673
 Alpha  occ. eigenvalues --   -0.51378  -0.51169  -0.51036  -0.50872  -0.50860
 Alpha  occ. eigenvalues --   -0.50678  -0.50419  -0.50159  -0.50103  -0.49976
 Alpha  occ. eigenvalues --   -0.49949  -0.49680  -0.49429  -0.49334  -0.49208
 Alpha  occ. eigenvalues --   -0.49077  -0.48831  -0.48831  -0.48442  -0.48430
 Alpha  occ. eigenvalues --   -0.48401  -0.48277  -0.47945  -0.47861  -0.47844
 Alpha  occ. eigenvalues --   -0.47668  -0.47475  -0.47438  -0.47214  -0.47085
 Alpha  occ. eigenvalues --   -0.46870  -0.46646  -0.46170  -0.45980  -0.45706
 Alpha  occ. eigenvalues --   -0.45675  -0.45664  -0.45522  -0.45479  -0.45434
 Alpha  occ. eigenvalues --   -0.45265  -0.45031  -0.44830  -0.44800  -0.44799
 Alpha  occ. eigenvalues --   -0.44612  -0.44181  -0.44044  -0.43900  -0.43894
 Alpha  occ. eigenvalues --   -0.43714  -0.43530  -0.43525  -0.43275  -0.43171
 Alpha  occ. eigenvalues --   -0.43092  -0.42818  -0.42725  -0.42543  -0.42481
 Alpha  occ. eigenvalues --   -0.42283  -0.42220  -0.41955  -0.41728  -0.41521
 Alpha  occ. eigenvalues --   -0.40744  -0.40306  -0.40026  -0.39789  -0.39481
 Alpha  occ. eigenvalues --   -0.39384  -0.39027  -0.38965  -0.38659  -0.38563
 Alpha  occ. eigenvalues --   -0.37534  -0.37239  -0.36247  -0.36173  -0.35992
 Alpha  occ. eigenvalues --   -0.35989  -0.35459  -0.34978  -0.33740  -0.33673
 Alpha  occ. eigenvalues --   -0.33522  -0.33284  -0.32801  -0.32638  -0.32482
 Alpha  occ. eigenvalues --   -0.32420  -0.31792  -0.31237  -0.26532  -0.26137
 Alpha  occ. eigenvalues --   -0.22951  -0.22917
 Alpha virt. eigenvalues --   -0.07416  -0.06806  -0.00415   0.00379   0.01732
 Alpha virt. eigenvalues --    0.02455   0.04482   0.04542   0.06199   0.06385
 Alpha virt. eigenvalues --    0.07307   0.07351   0.07581   0.08006   0.08223

 Mulliken charges:
               1
     1  Mg   0.970988
     2  C   -0.006266
     3  C   -0.072325
     4  C   -0.076277
     5  C   -0.099582
     6  N   -0.340880
     7  C   -0.009333
     8  C   -0.022284
     9  C   -0.153796
    10  C    0.065354
    11  C    0.013345
    12  C   -0.006068
    13  C   -0.111467
    14  H    0.047876
    15  N   -0.435330
    16  C    0.162713
    17  C   -0.218425
    18  C   -0.077997
    19  C    0.134452
    20  C    0.083764
    21  C    0.066536
    22  O   -0.256617
    23  C   -0.006630
    24  N   -0.468416
    25  C    0.098658
    26  C   -0.069463
    27  C   -0.080617
    28  C    0.140139
    29  C    0.040742
    30  C   -0.043649
    31  C   -0.003969
    32  N   -0.428031
    33  C    0.106642
    34  C   -0.178891
    35  C    0.017672
    36  C    0.137180
    37  C    0.064720
    38  C    0.098770
    39  O   -0.191693
    40  C   -0.123555
    41  C    0.249208
    42  O   -0.247096
    43  O   -0.362852
    44  C    0.139231
    45  H   -0.004136
    46  H    0.019913
    47  H   -0.001781
    48  H    0.044478
    49  H    0.034745
    50  H    0.042271
    51  H    0.043397
    52  H    0.037646
    53  H    0.035426
    54  H    0.054638
    55  H    0.050965
    56  H    0.053001
    57  H    0.065791
    58  H    0.049336
    59  H    0.025692
    60  H    0.051292
    61  H    0.045776
    62  H    0.060776
    63  H    0.028084
    64  H    0.023056
    65  H    0.041813
    66  H    0.042111
    67  H    0.041587
    68  H    0.022329
    69  H    0.020633
    70  H    0.035343
    71  H    0.017897
    72  H    0.051235
    73  H    0.062362
    74  H    0.044998
    75  H    0.051465
    76  H    0.073858
    77  H    0.057967
    78  H    0.059953
    79  H    0.069603
    80  Mg   0.994125
    81  C    0.048691
    82  C   -0.082958
    83  C   -0.068807
    84  C   -0.108867
    85  N   -0.341472
    86  C    0.045949
    87  C   -0.121579
    88  C   -0.075846
    89  C    0.029322
    90  C    0.026882
    91  C    0.023864
    92  C   -0.140373
    93  H    0.018662
    94  N   -0.559360
    95  C    0.189897
    96  C   -0.126486
    97  C   -0.130572
    98  C    0.181275
    99  C    0.043908
   100  C    0.089233
   101  O   -0.240694
   102  C   -0.020833
   103  N   -0.363976
   104  C    0.073103
   105  C   -0.083675
   106  C   -0.059621
   107  C    0.063288
   108  C    0.017235
   109  C   -0.011492
   110  C   -0.064752
   111  N   -0.360321
   112  C    0.130826
   113  C   -0.202699
   114  C   -0.017974
   115  C    0.092034
   116  C    0.097848
   117  C    0.101719
   118  O   -0.185117
   119  C   -0.133347
   120  C    0.263564
   121  O   -0.285073
   122  O   -0.350109
   123  C    0.138295
   124  H   -0.014458
   125  H    0.026620
   126  H   -0.019310
   127  H    0.037169
   128  H    0.028903
   129  H    0.042212
   130  H    0.037586
   131  H    0.043002
   132  H    0.031545
   133  H    0.058196
   134  H    0.053304
   135  H    0.056604
   136  H    0.054067
   137  H    0.028111
   138  H    0.054137
   139  H    0.074565
   140  H    0.050238
   141  H    0.047498
   142  H    0.043284
   143  H    0.027353
   144  H    0.021192
   145  H    0.044000
   146  H    0.041021
   147  H    0.036404
   148  H    0.043313
   149  H    0.035184
   150  H    0.044649
   151  H    0.027543
   152  H    0.034230
   153  H    0.066264
   154  H    0.064430
   155  H    0.073479
   156  H    0.048556
   157  H    0.075956
   158  H    0.049435
 Sum of Mulliken charges =  -0.00000

 Dipole moment (field-independent basis, Debye):
    X=              7.2347    Y=              2.2805    Z=              3.5959  Tot=              8.3948
 Quadrupole moment (field-independent basis, Debye-Ang):
   XX=           -498.7031   YY=           -468.3741   ZZ=           -515.8418
   XY=              5.6585   XZ=             69.5964   YZ=             10.7918

 Normal termination of Gaussian 16 at Mon Sep 20 03:12:53 2021.
