 Gaussian 16, Revision A.03,
 Gaussian 16:  ES64L-G16RevA.03 25-Dec-2016

 --------------------------------
 #p wB97XD/Def2SVP td=(nstates=5)
 --------------------------------

 --------------------------------
 TDDFT excited states in gaussian
 --------------------------------
 Symbolic Z-matrix:
 Charge =  0 Multiplicity = 1

                         Standard orientation:
 ---------------------------------------------------------------------
 Center     Atomic      Atomic             Coordinates (Angstroms)
 Number     Number       Type             X           Y           Z
 ---------------------------------------------------------------------
      1         12           0      -22.534192    0.549939    0.188097
      2          6           0      -21.736121   -2.440375   -1.223356
      3          6           0      -21.043563    2.245969   -2.407745
      4          6           0      -23.235855    3.443629    1.798996
      5          6           0      -23.620995   -1.218668    3.048630
      6          7           0      -21.305242   -0.046360   -1.511399
      7          6           0      -21.415703   -1.298387   -2.030317
      8          6           0      -20.979534   -1.391879   -3.453178
      9          6           0      -20.520072    0.138636   -3.692849
     10          6           0      -20.978445    0.852649   -2.463776
     11          6           0      -18.945740    0.283246   -3.908717
     12          6           0      -22.239506   -1.791205   -4.354205
     13          6           0      -21.954790   -2.446909   -5.707202
     14          1           0      -20.566621   -2.467992   -6.394255
     15          7           0      -22.299859    2.582470   -0.245843
     16          6           0      -21.626480    3.071055   -1.377361
     17          6           0      -21.637461    4.512608   -1.285154
     18          6           0      -22.293970    4.872486   -0.090647
     19          6           0      -22.675698    3.597583    0.501066
     20          6           0      -21.050404    5.390566   -2.414918
     21          6           0      -22.481463    6.356702    0.524633
     22          8           0      -23.195498    6.586617    1.508889
     23          6           0      -21.842330    7.608692   -0.053090
     24          7           0      -23.401970    1.020993    2.169273
     25          6           0      -23.532663    2.308592    2.568765
     26          6           0      -23.869564    2.400101    4.056131
     27          6           0      -24.326484    0.863605    4.383064
     28          6           0      -23.868468    0.142213    3.105789
     29          6           0      -22.748937    3.045613    4.993216
     30          6           0      -25.912328    0.592989    4.489994
     31          6           0      -26.468998   -0.172750    5.676127
     32          7           0      -22.734660   -1.422391    0.845798
     33          6           0      -23.159550   -1.991674    1.987377
     34          6           0      -23.152348   -3.481305    1.843991
     35          6           0      -22.635959   -3.657882    0.538376
     36          6           0      -22.293868   -2.370440    0.057315
     37          6           0      -23.604098   -4.554252    2.770415
     38          6           0      -22.312606   -4.693845   -0.369406
     39          8           0      -22.421788   -5.931808   -0.253209
     40          6           0      -21.706908   -3.953558   -1.559205
     41          6           0      -20.346665   -4.404379   -1.745427
     42          8           0      -19.424569   -4.429765   -0.991626
     43          8           0      -20.229749   -4.735069   -3.092210
     44          6           0      -18.923148   -5.196690   -3.699726
     45          1           0      -20.797963    2.844677   -3.286890
     46          1           0      -23.369977    4.376233    2.351631
     47          1           0      -23.752513   -1.817857    3.951361
     48          1           0      -20.179901   -2.064557   -3.762695
     49          1           0      -21.010984    0.567490   -4.566436
     50          1           0      -18.631166    1.045878   -4.620757
     51          1           0      -18.522286   -0.700514   -4.110633
     52          1           0      -18.534705    0.597813   -2.948895
     53          1           0      -22.879320   -0.930628   -4.550488
     54          1           0      -22.814723   -2.486558   -3.742360
     55          1           0      -22.668276   -2.001834   -6.401862
     56          1           0      -22.266705   -3.489468   -5.657862
     57          1           0      -20.692468    4.830270   -3.278559
     58          1           0      -20.249768    5.977777   -1.966398
     59          1           0      -21.832045    6.089577   -2.713338
     60          1           0      -22.357319    7.762735   -1.000607
     61          1           0      -20.834776    7.428512   -0.428420
     62          1           0      -21.783923    8.390610    0.703796
     63          1           0      -24.761580    3.020019    4.153774
     64          1           0      -23.864380    0.506994    5.303811
     65          1           0      -22.440432    2.352916    5.776577
     66          1           0      -23.116047    3.973418    5.430492
     67          1           0      -21.839456    3.241830    4.424875
     68          1           0      -26.309324    0.144980    3.579187
     69          1           0      -26.383965    1.575203    4.487552
     70          1           0      -27.013729   -1.022308    5.265752
     71          1           0      -27.100235    0.439057    6.319991
     72          1           0      -25.648557   -0.601751    6.253100
     73          1           0      -24.077079   -4.200798    3.686488
     74          1           0      -22.765030   -5.175988    3.083758
     75          1           0      -24.319641   -5.183475    2.241476
     76          1           0      -22.264367   -4.127582   -2.480022
     77          1           0      -18.127680   -5.169631   -2.954697
     78          1           0      -18.624864   -4.507794   -4.491142
     79          1           0      -19.111867   -6.210104   -4.053854
     80         12           0       22.641168    0.431733   -0.289879
     81          6           0       21.011227   -2.510034    0.594828
     82          6           0       19.569060    1.711504   -1.263542
     83          6           0       23.950812    3.444623   -0.653935
     84          6           0       25.541065   -0.766856    1.170432
     85          7           0       20.524865   -0.239160   -0.182809
     86          6           0       20.114620   -1.529119    0.084772
     87          6           0       18.662592   -1.753106   -0.218132
     88          6           0       18.336506   -0.509996   -1.158153
     89          6           0       19.506892    0.411430   -0.841246
     90          6           0       17.940636   -0.690537   -2.700160
     91          6           0       17.716700   -1.935206    1.057853
     92          6           0       18.095999   -1.164004    2.357014
     93          1           0       16.920544   -0.555647    3.083519
     94          7           0       21.851021    2.360442   -0.766612
     95          6           0       20.541946    2.670641   -1.155608
     96          6           0       20.378026    4.081028   -1.378274
     97          6           0       21.665017    4.636268   -1.182201
     98          6           0       22.571059    3.504379   -0.824615
     99          6           0       19.086824    4.618962   -1.997029
    100          6           0       21.938568    6.145203   -1.375639
    101          8           0       21.032800    6.950292   -1.614756
    102          6           0       23.349249    6.556670   -1.313921
    103          7           0       24.459460    1.199806    0.324374
    104          6           0       24.847402    2.417261   -0.209277
    105          6           0       26.344057    2.724831    0.016854
    106          6           0       26.726667    1.415338    0.821230
    107          6           0       25.519475    0.587278    0.825226
    108          6           0       27.231315    2.968294   -1.162951
    109          6           0       27.168517    1.718742    2.341474
    110          6           0       28.423127    0.966833    2.702127
    111          7           0       23.285580   -1.370885    0.533262
    112          6           0       24.505417   -1.708779    1.089433
    113          6           0       24.459958   -3.099066    1.597219
    114          6           0       23.079708   -3.460726    1.415789
    115          6           0       22.447777   -2.383137    0.784313
    116          6           0       25.443013   -3.861588    2.389061
    117          6           0       22.019577   -4.462429    1.657616
    118          8           0       22.078254   -5.510784    2.257530
    119          6           0       20.667130   -3.907971    1.105080
    120          6           0       20.096400   -4.839034    0.130966
    121          8           0       19.034002   -5.460803    0.157993
    122          8           0       21.132454   -5.159268   -0.785146
    123          6           0       20.742694   -6.053119   -1.896643
    124          1           0       18.648895    1.980554   -1.787367
    125          1           0       24.535191    4.328725   -0.916770
    126          1           0       26.522150   -1.074051    1.536996
    127          1           0       18.531026   -2.687277   -0.764019
    128          1           0       17.459559   -0.107809   -0.650272
    129          1           0       17.816414   -1.718230   -3.041045
    130          1           0       18.687973   -0.305144   -3.393623
    131          1           0       16.933567   -0.303837   -2.858691
    132          1           0       17.569521   -2.992133    1.277546
    133          1           0       16.723392   -1.616600    0.741830
    134          1           0       18.835508   -0.391404    2.144291
    135          1           0       18.560922   -1.846473    3.067946
    136          1           0       18.834107    5.630737   -1.678367
    137          1           0       18.245842    4.024995   -1.640140
    138          1           0       19.251291    4.611952   -3.074786
    139          1           0       23.858799    6.177448   -2.199225
    140          1           0       23.797468    6.196934   -0.387220
    141          1           0       23.324635    7.646091   -1.337907
    142          1           0       26.403182    3.512808    0.768015
    143          1           0       27.414796    0.916690    0.138669
    144          1           0       28.250114    2.948772   -0.775603
    145          1           0       27.065546    3.998495   -1.478143
    146          1           0       27.026570    2.243158   -1.951472
    147          1           0       26.315317    1.455035    2.966326
    148          1           0       27.285941    2.765398    2.625069
    149          1           0       28.153558    0.196761    3.424516
    150          1           0       29.099261    1.559193    3.319508
    151          1           0       28.803609    0.441883    1.826145
    152          1           0       26.379758   -3.346746    2.607600
    153          1           0       25.712326   -4.722502    1.778167
    154          1           0       24.916749   -3.925026    3.341279
    155          1           0       20.032014   -3.815178    1.985744
    156          1           0       21.199641   -5.556856   -2.753577
    157          1           0       19.693864   -6.236323   -2.130249
    158          1           0       21.369464   -6.935202   -1.764230
 ---------------------------------------------------------------------

 SCF Done:  E(RwB97XD) =  -4070.60901920     A.U. after   20 cycles

 Excitation energies and oscillator strengths:

 Excited State   1:      Singlet-A      1.6615 eV  746.22 nm  f=0.3565  <S**2>=0.000
     309 -> 315        0.18774
     311 -> 313        0.68137
     309 <- 315        0.11475
 This state for optimization and/or second-order correction.
 Total Energy, E(TD-HF/TD-DFT) =  -4070.54796054
 Copying the excited state density for this state as the 1-particle RhoCI density.

 Excited State   2:      Singlet-A      1.6817 eV  737.25 nm  f=0.4065  <S**2>=0.000
     310 -> 316        0.19773
     312 -> 314        0.68050
     310 <- 316        0.11933

 Excited State   3:      Singlet-A      2.1479 eV  577.24 nm  f=0.0864  <S**2>=0.000
     309 -> 313        0.62823
     311 -> 315       -0.30708

 Excited State   4:      Singlet-A      2.1739 eV  570.33 nm  f=0.0988  <S**2>=0.000
     310 -> 314        0.63669
     312 -> 316       -0.29859

 Excited State   5:      Singlet-A      3.4235 eV  362.16 nm  f=0.0611  <S**2>=0.000
     307 -> 313       -0.15599
     308 -> 313        0.62218
     311 -> 315        0.23473

 The electronic state is 1-A.
 Alpha  occ. eigenvalues --  -46.95721 -46.95455 -19.29580 -19.28920 -19.25490
 Alpha  occ. eigenvalues --  -19.24512 -19.24195 -19.24065 -19.23887 -19.23877
 Alpha  occ. eigenvalues --  -14.47030 -14.46846 -14.46790 -14.46262 -14.44265
 Alpha  occ. eigenvalues --  -14.44114 -14.43971 -14.43775 -10.43601 -10.42472
 Alpha  occ. eigenvalues --  -10.40205 -10.39145 -10.39081 -10.38518 -10.35783
 Alpha  occ. eigenvalues --  -10.35691 -10.35648 -10.35214 -10.35024 -10.34735
 Alpha  occ. eigenvalues --  -10.34669 -10.34657 -10.34648 -10.34195 -10.34143
 Alpha  occ. eigenvalues --  -10.34087 -10.34026 -10.33877 -10.33710 -10.33399
 Alpha  occ. eigenvalues --  -10.33047 -10.32978 -10.32949 -10.32800 -10.32785
 Alpha  occ. eigenvalues --  -10.32619 -10.32573 -10.32380 -10.32377 -10.32371
 Alpha  occ. eigenvalues --  -10.32328 -10.32320 -10.32316 -10.32278 -10.32275
 Alpha  occ. eigenvalues --  -10.32116 -10.32010 -10.32000 -10.31850 -10.31723
 Alpha  occ. eigenvalues --  -10.31584 -10.31428 -10.31417 -10.31389 -10.31299
 Alpha  occ. eigenvalues --  -10.31210 -10.31095 -10.31016 -10.30870 -10.30830
 Alpha  occ. eigenvalues --  -10.30744 -10.30505 -10.30456 -10.30104 -10.30081
 Alpha  occ. eigenvalues --  -10.30068 -10.30032 -10.30011 -10.29943 -10.29910
 Alpha  occ. eigenvalues --  -10.29902 -10.29900 -10.29569 -10.29447 -10.29151
 Alpha  occ. eigenvalues --  -10.28822  -3.21575  -3.21424  -1.95184  -1.94996
 Alpha  occ. eigenvalues --   -1.94678  -1.94562  -1.94557  -1.94386  -1.17773
 Alpha  occ. eigenvalues --   -1.16973  -1.12611  -1.11704  -1.11598  -1.10582
 Alpha  occ. eigenvalues --   -1.09404  -1.09112  -1.07608  -1.07064  -1.06457
 Alpha  occ. eigenvalues --   -1.05726  -1.05572  -1.05221  -1.04634  -1.04394
 Alpha  occ. eigenvalues --   -0.95500  -0.94434  -0.91511  -0.91169  -0.90527
 Alpha  occ. eigenvalues --   -0.90117  -0.89887  -0.89563  -0.89419  -0.88976
 Alpha  occ. eigenvalues --   -0.88817  -0.88778  -0.88161  -0.88145  -0.86733
 Alpha  occ. eigenvalues --   -0.86365  -0.86261  -0.85339  -0.84664  -0.84278
 Alpha  occ. eigenvalues --   -0.84236  -0.83506  -0.83115  -0.82798  -0.82254
 Alpha  occ. eigenvalues --   -0.82108  -0.80356  -0.80239  -0.79460  -0.79390
 Alpha  occ. eigenvalues --   -0.79046  -0.78763  -0.78144  -0.78112  -0.77708
 Alpha  occ. eigenvalues --   -0.77090  -0.74633  -0.74592  -0.74127  -0.73943
 Alpha  occ. eigenvalues --   -0.71359  -0.71264  -0.71244  -0.70550  -0.70146
 Alpha  occ. eigenvalues --   -0.70084  -0.68828  -0.68347  -0.67949  -0.67236
 Alpha  occ. eigenvalues --   -0.67150  -0.66904  -0.66516  -0.66499  -0.66233
 Alpha  occ. eigenvalues --   -0.65991  -0.64531  -0.63823  -0.62451  -0.62255
 Alpha  occ. eigenvalues --   -0.61874  -0.61403  -0.61162  -0.60940  -0.60787
 Alpha  occ. eigenvalues --   -0.60423  -0.60276  -0.59724  -0.59513  -0.59199
 Alpha  occ. eigenvalues --   -0.58299  -0.58003  -0.57770  -0.57498  -0.57347
 Alpha  occ. eigenvalues --   -0.57222  -0.57048  -0.56550  -0.56128  -0.55796
 Alpha  occ. eigenvalues --   -0.55690  -0.54944  -0.54883  -0.54865  -0.54690
 Alpha  occ. eigenvalues --   -0.54655  -0.54561  -0.54111  -0.54097  -0.54064
 Alpha  occ. eigenvalues --   -0.53918  -0.53579  -0.53545  -0.53538  -0.53334
 Alpha  occ. eigenvalues --   -0.53046  -0.52751  -0.52746  -0.52467  -0.52371
 Alpha  occ. eigenvalues --   -0.52235  -0.51712  -0.51592  -0.51554  -0.51498
 Alpha  occ. eigenvalues --   -0.51353  -0.51257  -0.51052  -0.50802  -0.50759
 Alpha  occ. eigenvalues --   -0.50502  -0.50228  -0.50190  -0.50099  -0.50078
 Alpha  occ. eigenvalues --   -0.49869  -0.49684  -0.49536  -0.49227  -0.49205
 Alpha  occ. eigenvalues --   -0.48874  -0.48857  -0.48486  -0.48465  -0.48380
 Alpha  occ. eigenvalues --   -0.48217  -0.48145  -0.48131  -0.48073  -0.47661
 Alpha  occ. eigenvalues --   -0.47500  -0.47322  -0.47118  -0.47060  -0.46911
 Alpha  occ. eigenvalues --   -0.46860  -0.46634  -0.46622  -0.46576  -0.46255
 Alpha  occ. eigenvalues --   -0.46218  -0.45891  -0.45863  -0.45813  -0.45636
 Alpha  occ. eigenvalues --   -0.45359  -0.45168  -0.45056  -0.45046  -0.44750
 Alpha  occ. eigenvalues --   -0.44575  -0.44450  -0.44306  -0.44065  -0.43962
 Alpha  occ. eigenvalues --   -0.43676  -0.43664  -0.43583  -0.43551  -0.43284
 Alpha  occ. eigenvalues --   -0.43125  -0.43051  -0.42908  -0.42738  -0.42373
 Alpha  occ. eigenvalues --   -0.42091  -0.41880  -0.41637  -0.41326  -0.41015
 Alpha  occ. eigenvalues --   -0.40435  -0.40307  -0.39964  -0.39731  -0.39513
 Alpha  occ. eigenvalues --   -0.39404  -0.38908  -0.38750  -0.38556  -0.38549
 Alpha  occ. eigenvalues --   -0.38105  -0.37658  -0.37148  -0.36773  -0.36450
 Alpha  occ. eigenvalues --   -0.36211  -0.35573  -0.35392  -0.33502  -0.33372
 Alpha  occ. eigenvalues --   -0.33146  -0.33120  -0.33005  -0.32797  -0.32348
 Alpha  occ. eigenvalues --   -0.32213  -0.32173  -0.31834  -0.26020  -0.25737
 Alpha  occ. eigenvalues --   -0.23024  -0.22923
 Alpha virt. eigenvalues --   -0.07011  -0.06848  -0.00317   0.00206   0.02055
 Alpha virt. eigenvalues --    0.02719   0.04456   0.04558   0.04855   0.05838
 Alpha virt. eigenvalues --    0.06209   0.07333   0.07459   0.08026   0.08382

 Mulliken charges:
               1
     1  Mg   0.950964
     2  C   -0.080321
     3  C   -0.065136
     4  C   -0.054622
     5  C   -0.099705
     6  N   -0.357775
     7  C    0.029343
     8  C   -0.079277
     9  C   -0.109899
    10  C    0.090213
    11  C    0.022799
    12  C   -0.013551
    13  C   -0.098892
    14  H    0.035616
    15  N   -0.438813
    16  C    0.108646
    17  C   -0.179333
    18  C   -0.083515
    19  C    0.122391
    20  C    0.062458
    21  C    0.076046
    22  O   -0.249656
    23  C    0.010261
    24  N   -0.332166
    25  C    0.030946
    26  C   -0.062600
    27  C   -0.122856
    28  C    0.110863
    29  C    0.017305
    30  C   -0.023502
    31  C   -0.037690
    32  N   -0.390680
    33  C    0.092677
    34  C   -0.157252
    35  C   -0.058404
    36  C    0.195080
    37  C    0.082432
    38  C    0.129088
    39  O   -0.229534
    40  C   -0.055289
    41  C    0.260401
    42  O   -0.202695
    43  O   -0.416610
    44  C    0.130277
    45  H   -0.007824
    46  H    0.015260
    47  H    0.000067
    48  H    0.042208
    49  H    0.032245
    50  H    0.044437
    51  H    0.033002
    52  H    0.038548
    53  H    0.033225
    54  H    0.032471
    55  H    0.042986
    56  H    0.053460
    57  H    0.042690
    58  H    0.051412
    59  H    0.048430
    60  H    0.054889
    61  H    0.026395
    62  H    0.075611
    63  H    0.037486
    64  H    0.035320
    65  H    0.033708
    66  H    0.050448
    67  H    0.045485
    68  H    0.038386
    69  H    0.020843
    70  H    0.037095
    71  H    0.048329
    72  H    0.024441
    73  H    0.023627
    74  H    0.065368
    75  H    0.063730
    76  H    0.069621
    77  H    0.065979
    78  H    0.053363
    79  H    0.069228
    80  Mg   0.956550
    81  C   -0.040891
    82  C   -0.109700
    83  C   -0.099626
    84  C   -0.098523
    85  N   -0.351133
    86  C    0.005660
    87  C   -0.079495
    88  C   -0.050067
    89  C    0.025397
    90  C    0.014893
    91  C   -0.013933
    92  C   -0.131281
    93  H    0.040667
    94  N   -0.438333
    95  C    0.180498
    96  C   -0.147262
    97  C   -0.106906
    98  C    0.206958
    99  C    0.079830
   100  C    0.051169
   101  O   -0.236342
   102  C   -0.010230
   103  N   -0.369006
   104  C    0.022437
   105  C   -0.081657
   106  C   -0.120662
   107  C    0.043141
   108  C    0.052812
   109  C   -0.004578
   110  C   -0.029204
   111  N   -0.430976
   112  C    0.160622
   113  C   -0.200482
   114  C   -0.051306
   115  C    0.127683
   116  C    0.085805
   117  C    0.113319
   118  O   -0.186365
   119  C   -0.040855
   120  C    0.283686
   121  O   -0.239918
   122  O   -0.406714
   123  C    0.140530
   124  H   -0.005362
   125  H   -0.020566
   126  H   -0.017655
   127  H    0.039156
   128  H    0.033402
   129  H    0.033389
   130  H    0.047803
   131  H    0.043624
   132  H    0.053308
   133  H    0.034489
   134  H    0.067854
   135  H    0.053333
   136  H    0.060276
   137  H    0.036796
   138  H    0.064848
   139  H    0.070818
   140  H    0.065169
   141  H    0.051318
   142  H    0.031710
   143  H    0.032434
   144  H    0.042845
   145  H    0.037338
   146  H    0.047638
   147  H    0.039940
   148  H    0.030707
   149  H    0.027385
   150  H    0.038726
   151  H    0.043353
   152  H    0.019170
   153  H    0.066783
   154  H    0.074760
   155  H    0.069289
   156  H    0.037377
   157  H    0.075525
   158  H    0.056804
 Sum of Mulliken charges =  -0.00000

 Dipole moment (field-independent basis, Debye):
    X=              4.2386    Y=              5.0201    Z=             -5.8381  Tot=              8.7892
 Quadrupole moment (field-independent basis, Debye-Ang):
   XX=           -287.3714   YY=           -587.3579   ZZ=           -470.1234
   XY=              1.4102   XZ=            -14.5668   YZ=             17.1552

 Normal termination of Gaussian 16 at Sun Sep 19 13:46:40 2021.
