 Gaussian 16, Revision A.03,
 Gaussian 16:  ES64L-G16RevA.03 25-Dec-2016

 --------------------------------
 #p wB97XD/Def2SVP td=(nstates=5)
 --------------------------------

 --------------------------------
 TDDFT excited states in gaussian
 --------------------------------
 Symbolic Z-matrix:
 Charge =  0 Multiplicity = 1

                         Standard orientation:
 ---------------------------------------------------------------------
 Center     Atomic      Atomic             Coordinates (Angstroms)
 Number     Number       Type             X           Y           Z
 ---------------------------------------------------------------------
      1         12           0       21.817933   -0.581764    0.330924
      2          6           0       21.872726    2.533340   -1.208712
      3          6           0       23.093321    0.796813    3.127783
      4          6           0       22.486239   -3.677422    1.518108
      5          6           0       21.286427   -2.055355   -2.847092
      6          7           0       22.293579    1.433049    0.824581
      7          6           0       22.119319    2.622750    0.151697
      8          6           0       22.599466    3.816010    1.022949
      9          6           0       23.449880    3.079716    2.103616
     10          6           0       22.833333    1.688602    2.099532
     11          6           0       24.985737    3.002855    1.790830
     12          6           0       21.362469    4.651559    1.400168
     13          6           0       21.567378    6.116120    1.314000
     14          1           0       20.341500    6.905571    1.213473
     15          7           0       22.457951   -1.295417    2.156103
     16          6           0       22.881432   -0.542925    3.204392
     17          6           0       22.922702   -1.379085    4.377682
     18          6           0       22.735670   -2.723995    3.893562
     19          6           0       22.630792   -2.611602    2.435810
     20          6           0       23.245290   -0.875190    5.738727
     21          6           0       22.800677   -4.102470    4.628482
     22          8           0       22.604910   -5.175938    4.055046
     23          6           0       22.966299   -4.183412    6.120322
     24          7           0       22.204341   -2.551097   -0.661992
     25          6           0       22.334561   -3.718179    0.139227
     26          6           0       22.219177   -4.987915   -0.637470
     27          6           0       21.621552   -4.395301   -1.954888
     28          6           0       21.640717   -2.877731   -1.791951
     29          6           0       23.569829   -5.762414   -0.808164
     30          6           0       20.156040   -4.882207   -2.251104
     31          6           0       19.144440   -4.714522   -1.088812
     32          7           0       21.510291    0.061781   -1.619074
     33          6           0       21.256117   -0.648288   -2.802676
     34          6           0       21.095575    0.316712   -3.825039
     35          6           0       21.301515    1.554352   -3.228323
     36          6           0       21.556646    1.338124   -1.914291
     37          6           0       20.721473    0.024665   -5.243281
     38          6           0       21.412582    2.909537   -3.504430
     39          8           0       21.293873    3.508046   -4.589115
     40          6           0       21.783348    3.696463   -2.211332
     41          6           0       20.584088    4.678474   -2.029686
     42          8           0       19.423559    4.351665   -1.723643
     43          8           0       21.043768    5.967934   -2.274575
     44          6           0       20.036349    7.067190   -2.413498
     45          1           0       23.591173    1.340256    3.933649
     46          1           0       22.522148   -4.744265    1.751426
     47          1           0       20.915346   -2.438226   -3.800128
     48          1           0       23.192867    4.506454    0.424509
     49          1           0       23.253509    3.527509    3.077343
     50          1           0       25.322068    3.533046    0.899372
     51          1           0       25.278507    1.978815    1.562583
     52          1           0       25.532782    3.455676    2.617495
     53          1           0       21.194518    4.460322    2.459114
     54          1           0       20.535373    4.318211    0.772774
     55          1           0       22.113897    6.280809    0.385255
     56          1           0       22.215916    6.422842    2.134386
     57          1           0       23.103617    0.203127    5.808729
     58          1           0       24.205888   -1.296149    6.037519
     59          1           0       22.524110   -1.278353    6.449769
     60          1           0       23.409084   -5.165257    6.289262
     61          1           0       21.997551   -4.163065    6.620066
     62          1           0       23.652999   -3.425306    6.498187
     63          1           0       21.497025   -5.694208   -0.225507
     64          1           0       22.269251   -4.672423   -2.787252
     65          1           0       24.396520   -5.069376   -0.649702
     66          1           0       23.747554   -6.232118   -1.775708
     67          1           0       23.737603   -6.587702   -0.115575
     68          1           0       20.251349   -5.910391   -2.600598
     69          1           0       19.877284   -4.310147   -3.135993
     70          1           0       18.297717   -4.082348   -1.356985
     71          1           0       19.699631   -4.290778   -0.251507
     72          1           0       18.720991   -5.663112   -0.760067
     73          1           0       21.508612    0.468615   -5.852658
     74          1           0       19.734302    0.451753   -5.419822
     75          1           0       20.711933   -1.030212   -5.517868
     76          1           0       22.684956    4.274246   -2.412988
     77          1           0       19.403044    6.790151   -3.255972
     78          1           0       20.407832    8.075299   -2.597129
     79          1           0       19.568930    6.938371   -1.437228
     80         12           0      -21.705871   -0.749613   -0.291929
     81          6           0      -23.242648    1.755712    1.656361
     82          6           0      -19.945839    1.711351   -1.922067
     83          6           0      -20.255826   -3.067701   -2.242405
     84          6           0      -23.923477   -3.136293    0.984461
     85          7           0      -21.572396    1.412442    0.006378
     86          6           0      -22.212018    2.269929    0.796560
     87          6           0      -21.813440    3.754947    0.668396
     88          6           0      -20.982703    3.614062   -0.697708
     89          6           0      -20.859428    2.126087   -0.917679
     90          6           0      -21.627863    4.304328   -1.874839
     91          6           0      -20.909943    4.315469    1.900903
     92          6           0      -21.051845    5.825762    2.111444
     93          1           0      -21.614485    6.222325    3.500703
     94          7           0      -20.148849   -0.731458   -1.785006
     95          6           0      -19.592274    0.444687   -2.345809
     96          6           0      -18.460514    0.028992   -3.143334
     97          6           0      -18.506939   -1.358924   -3.238886
     98          6           0      -19.655592   -1.807465   -2.390829
     99          6           0      -17.571478    0.986842   -3.913776
    100          6           0      -17.607594   -2.346515   -3.946419
    101          8           0      -17.799699   -3.520642   -3.820537
    102          6           0      -16.423705   -1.909462   -4.750118
    103          7           0      -22.151983   -2.754349   -0.747010
    104          6           0      -21.357309   -3.532952   -1.536942
    105          6           0      -21.916005   -4.978885   -1.427879
    106          6           0      -22.609959   -5.062452   -0.080152
    107          6           0      -22.966692   -3.568242    0.101097
    108          6           0      -22.939586   -5.210463   -2.538508
    109          6           0      -21.782285   -5.634743    1.010466
    110          6           0      -20.366116   -5.146621    1.190162
    111          7           0      -23.254621   -0.764255    1.065971
    112          6           0      -24.083827   -1.783830    1.494184
    113          6           0      -25.018578   -1.245696    2.494566
    114          6           0      -24.694038    0.118582    2.592016
    115          6           0      -23.652952    0.350614    1.735116
    116          6           0      -26.083530   -1.987011    3.180331
    117          6           0      -24.917777    1.333575    3.328651
    118          8           0      -25.697906    1.585729    4.293423
    119          6           0      -23.924197    2.439495    2.733008
    120          6           0      -24.794152    3.543127    2.189409
    121          8           0      -25.738244    3.338745    1.485407
    122          8           0      -24.385491    4.864063    2.518121
    123          6           0      -25.041713    5.947523    1.724831
    124          1           0      -19.416503    2.481036   -2.486586
    125          1           0      -19.882574   -3.832003   -2.927757
    126          1           0      -24.524051   -3.853272    1.548588
    127          1           0      -22.706660    4.380480    0.645506
    128          1           0      -20.024547    4.081688   -0.467729
    129          1           0      -21.131136    5.269972   -1.967768
    130          1           0      -22.714139    4.351528   -1.795308
    131          1           0      -21.267212    3.740846   -2.735311
    132          1           0      -19.856131    4.110440    1.709838
    133          1           0      -21.141873    3.779334    2.821380
    134          1           0      -21.691278    6.100683    1.272356
    135          1           0      -20.119370    6.356531    1.920368
    136          1           0      -17.738416    1.950114   -3.433251
    137          1           0      -18.045648    1.017267   -4.894350
    138          1           0      -16.517335    0.714785   -3.856486
    139          1           0      -15.768788   -1.589108   -3.939655
    140          1           0      -16.609603   -1.061917   -5.409269
    141          1           0      -16.015664   -2.750192   -5.312216
    142          1           0      -21.180439   -5.772459   -1.554700
    143          1           0      -23.501230   -5.688446   -0.052473
    144          1           0      -24.004648   -5.172958   -2.309505
    145          1           0      -22.728106   -6.186760   -2.974530
    146          1           0      -22.748501   -4.481541   -3.326896
    147          1           0      -21.755399   -6.723985    0.971889
    148          1           0      -22.332061   -5.377210    1.915550
    149          1           0      -20.363231   -4.595447    2.130973
    150          1           0      -19.853049   -4.502080    0.475802
    151          1           0      -19.727946   -6.015847    1.348383
    152          1           0      -26.860281   -2.215659    2.450697
    153          1           0      -26.390598   -1.314703    3.981384
    154          1           0      -25.726895   -2.949919    3.548474
    155          1           0      -23.278548    2.703643    3.570746
    156          1           0      -26.049424    6.131290    2.097321
    157          1           0      -25.095847    5.726397    0.657896
    158          1           0      -24.594826    6.937754    1.808595
 ---------------------------------------------------------------------

 SCF Done:  E(RwB97XD) =  -4070.61107867     A.U. after   19 cycles

 Excitation energies and oscillator strengths:

 Excited State   1:      Singlet-A      1.6038 eV  773.07 nm  f=0.3740  <S**2>=0.000
     309 -> 316       -0.16816
     312 -> 313        0.68665
     309 <- 316       -0.11353
 This state for optimization and/or second-order correction.
 Total Energy, E(TD-HF/TD-DFT) =  -4070.55214029
 Copying the excited state density for this state as the 1-particle RhoCI density.

 Excited State   2:      Singlet-A      1.6528 eV  750.15 nm  f=0.3729  <S**2>=0.000
     310 -> 315        0.17778
     311 -> 314        0.68542
     310 <- 315        0.11378

 Excited State   3:      Singlet-A      2.1347 eV  580.80 nm  f=0.1142  <S**2>=0.000
     310 -> 314        0.64481
     311 -> 315       -0.27142

 Excited State   4:      Singlet-A      2.1620 eV  573.48 nm  f=0.1254  <S**2>=0.000
     309 -> 313        0.64151
     312 -> 316        0.27559

 Excited State   5:      Singlet-A      3.2514 eV  381.33 nm  f=0.0002  <S**2>=0.000
     305 -> 313        0.18347
     305 -> 318       -0.10918
     305 -> 320        0.12622
     306 -> 313        0.55369
     307 -> 313       -0.31710

 The electronic state is 1-A.
 Alpha  occ. eigenvalues --  -46.94946 -46.94701 -19.30024 -19.29706 -19.25018
 Alpha  occ. eigenvalues --  -19.24928 -19.24138 -19.23769 -19.23267 -19.22787
 Alpha  occ. eigenvalues --  -14.48024 -14.46590 -14.46106 -14.45923 -14.44334
 Alpha  occ. eigenvalues --  -14.43948 -14.43615 -14.43145 -10.43977 -10.43230
 Alpha  occ. eigenvalues --  -10.39267 -10.39173 -10.38746 -10.37703 -10.35938
 Alpha  occ. eigenvalues --  -10.35765 -10.35443 -10.35358 -10.35091 -10.35055
 Alpha  occ. eigenvalues --  -10.35045 -10.34745 -10.34589 -10.34508 -10.34369
 Alpha  occ. eigenvalues --  -10.34263 -10.34246 -10.33653 -10.33401 -10.33335
 Alpha  occ. eigenvalues --  -10.33194 -10.32947 -10.32773 -10.32511 -10.32437
 Alpha  occ. eigenvalues --  -10.32373 -10.32370 -10.32313 -10.32311 -10.32303
 Alpha  occ. eigenvalues --  -10.32240 -10.32239 -10.32179 -10.32005 -10.31852
 Alpha  occ. eigenvalues --  -10.31834 -10.31694 -10.31635 -10.31620 -10.31279
 Alpha  occ. eigenvalues --  -10.31168 -10.31141 -10.31132 -10.31087 -10.30942
 Alpha  occ. eigenvalues --  -10.30819 -10.30696 -10.30608 -10.30560 -10.30487
 Alpha  occ. eigenvalues --  -10.30362 -10.30293 -10.30275 -10.29995 -10.29811
 Alpha  occ. eigenvalues --  -10.29718 -10.29702 -10.29670 -10.29657 -10.29432
 Alpha  occ. eigenvalues --  -10.29286 -10.28952 -10.28912 -10.28382 -10.28266
 Alpha  occ. eigenvalues --  -10.27849  -3.20879  -3.20730  -1.94492  -1.94299
 Alpha  occ. eigenvalues --   -1.93978  -1.93866  -1.93859  -1.93704  -1.17725
 Alpha  occ. eigenvalues --   -1.16634  -1.14371  -1.11691  -1.10224  -1.09561
 Alpha  occ. eigenvalues --   -1.08902  -1.08838  -1.07311  -1.06892  -1.05954
 Alpha  occ. eigenvalues --   -1.05626  -1.05553  -1.04912  -1.04265  -1.03753
 Alpha  occ. eigenvalues --   -0.94910  -0.94579  -0.91986  -0.91313  -0.91047
 Alpha  occ. eigenvalues --   -0.90948  -0.90763  -0.90485  -0.89803  -0.89738
 Alpha  occ. eigenvalues --   -0.89106  -0.88842  -0.88503  -0.88100  -0.86606
 Alpha  occ. eigenvalues --   -0.86521  -0.85475  -0.85415  -0.84577  -0.84419
 Alpha  occ. eigenvalues --   -0.84087  -0.83547  -0.83037  -0.82970  -0.82379
 Alpha  occ. eigenvalues --   -0.81861  -0.80920  -0.80181  -0.79249  -0.79016
 Alpha  occ. eigenvalues --   -0.78996  -0.78889  -0.78204  -0.77990  -0.77421
 Alpha  occ. eigenvalues --   -0.76932  -0.75272  -0.74422  -0.74031  -0.73302
 Alpha  occ. eigenvalues --   -0.71736  -0.71600  -0.70840  -0.70779  -0.69813
 Alpha  occ. eigenvalues --   -0.69549  -0.69089  -0.68516  -0.67775  -0.67358
 Alpha  occ. eigenvalues --   -0.66954  -0.66619  -0.66483  -0.66197  -0.66071
 Alpha  occ. eigenvalues --   -0.65328  -0.63748  -0.63628  -0.62411  -0.61903
 Alpha  occ. eigenvalues --   -0.61902  -0.61787  -0.61164  -0.61145  -0.60950
 Alpha  occ. eigenvalues --   -0.60533  -0.60464  -0.59591  -0.59588  -0.58994
 Alpha  occ. eigenvalues --   -0.58414  -0.57974  -0.57750  -0.57594  -0.57296
 Alpha  occ. eigenvalues --   -0.57002  -0.56757  -0.56698  -0.56438  -0.55998
 Alpha  occ. eigenvalues --   -0.55934  -0.55669  -0.55592  -0.55470  -0.54994
 Alpha  occ. eigenvalues --   -0.54981  -0.54925  -0.54798  -0.54409  -0.54351
 Alpha  occ. eigenvalues --   -0.53884  -0.53804  -0.53665  -0.53617  -0.53442
 Alpha  occ. eigenvalues --   -0.53425  -0.52740  -0.52617  -0.52447  -0.52305
 Alpha  occ. eigenvalues --   -0.52190  -0.51906  -0.51618  -0.51589  -0.51536
 Alpha  occ. eigenvalues --   -0.51365  -0.51124  -0.51076  -0.51023  -0.50847
 Alpha  occ. eigenvalues --   -0.50715  -0.50479  -0.50264  -0.50148  -0.50057
 Alpha  occ. eigenvalues --   -0.49933  -0.49676  -0.49666  -0.49580  -0.49351
 Alpha  occ. eigenvalues --   -0.49083  -0.49032  -0.48663  -0.48547  -0.48266
 Alpha  occ. eigenvalues --   -0.48235  -0.47920  -0.47793  -0.47673  -0.47454
 Alpha  occ. eigenvalues --   -0.47421  -0.47325  -0.47106  -0.46909  -0.46575
 Alpha  occ. eigenvalues --   -0.46435  -0.46229  -0.46106  -0.46081  -0.45712
 Alpha  occ. eigenvalues --   -0.45641  -0.45433  -0.45409  -0.45405  -0.45147
 Alpha  occ. eigenvalues --   -0.45126  -0.45032  -0.45030  -0.44769  -0.44627
 Alpha  occ. eigenvalues --   -0.44458  -0.44394  -0.44331  -0.43887  -0.43781
 Alpha  occ. eigenvalues --   -0.43740  -0.43539  -0.43487  -0.43085  -0.42949
 Alpha  occ. eigenvalues --   -0.42889  -0.42837  -0.42638  -0.42280  -0.42184
 Alpha  occ. eigenvalues --   -0.42154  -0.41894  -0.41646  -0.41416  -0.41084
 Alpha  occ. eigenvalues --   -0.40304  -0.40210  -0.39998  -0.39677  -0.39315
 Alpha  occ. eigenvalues --   -0.39280  -0.39084  -0.38917  -0.38570  -0.38375
 Alpha  occ. eigenvalues --   -0.38220  -0.38116  -0.36620  -0.36499  -0.36198
 Alpha  occ. eigenvalues --   -0.36133  -0.35499  -0.35402  -0.33904  -0.33566
 Alpha  occ. eigenvalues --   -0.33368  -0.32764  -0.32331  -0.32142  -0.32079
 Alpha  occ. eigenvalues --   -0.31944  -0.31566  -0.31446  -0.26187  -0.26073
 Alpha  occ. eigenvalues --   -0.23203  -0.23028
 Alpha virt. eigenvalues --   -0.07384  -0.07293   0.00189   0.00404   0.02484
 Alpha virt. eigenvalues --    0.02576   0.04300   0.04435   0.05371   0.06266
 Alpha virt. eigenvalues --    0.07102   0.07150   0.07398   0.07719   0.08096

 Mulliken charges:
               1
     1  Mg   0.955709
     2  C   -0.066619
     3  C   -0.119170
     4  C   -0.020975
     5  C   -0.102626
     6  N   -0.406729
     7  C    0.019901
     8  C   -0.101642
     9  C   -0.087869
    10  C    0.034066
    11  C    0.034864
    12  C    0.039967
    13  C   -0.123657
    14  H    0.052766
    15  N   -0.463813
    16  C    0.229646
    17  C   -0.175617
    18  C   -0.078313
    19  C    0.188293
    20  C    0.069278
    21  C    0.055803
    22  O   -0.248542
    23  C   -0.006205
    24  N   -0.316650
    25  C   -0.057176
    26  C   -0.058311
    27  C   -0.099591
    28  C    0.111766
    29  C    0.018212
    30  C   -0.021942
    31  C   -0.053850
    32  N   -0.435060
    33  C    0.116902
    34  C   -0.197913
    35  C    0.053971
    36  C    0.194266
    37  C    0.092974
    38  C    0.016719
    39  O   -0.242806
    40  C   -0.028710
    41  C    0.287409
    42  O   -0.268770
    43  O   -0.389735
    44  C    0.142363
    45  H   -0.000917
    46  H    0.018653
    47  H    0.002511
    48  H    0.020134
    49  H    0.019456
    50  H    0.035623
    51  H    0.053083
    52  H    0.043496
    53  H    0.021619
    54  H    0.065521
    55  H    0.039945
    56  H    0.040173
    57  H    0.041107
    58  H    0.067714
    59  H    0.043113
    60  H    0.054735
    61  H    0.075058
    62  H    0.027197
    63  H    0.045820
    64  H    0.030937
    65  H    0.039615
    66  H    0.032790
    67  H    0.042681
    68  H    0.031256
    69  H    0.022863
    70  H    0.046404
    71  H    0.045747
    72  H    0.042275
    73  H    0.058152
    74  H    0.067942
    75  H    0.019616
    76  H    0.066948
    77  H    0.068273
    78  H    0.069561
    79  H    0.058312
    80  Mg   0.953896
    81  C   -0.042939
    82  C   -0.110327
    83  C   -0.074512
    84  C   -0.071343
    85  N   -0.321113
    86  C   -0.004183
    87  C   -0.076281
    88  C   -0.141322
    89  C    0.116635
    90  C    0.056665
    91  C    0.009184
    92  C   -0.101919
    93  H    0.060734
    94  N   -0.444584
    95  C    0.147285
    96  C   -0.177201
    97  C   -0.058189
    98  C    0.148236
    99  C    0.068243
   100  C    0.023015
   101  O   -0.209926
   102  C   -0.009564
   103  N   -0.406487
   104  C    0.080428
   105  C   -0.094014
   106  C   -0.044043
   107  C    0.108131
   108  C    0.034230
   109  C    0.007522
   110  C   -0.069579
   111  N   -0.442596
   112  C    0.083737
   113  C   -0.209059
   114  C    0.006977
   115  C    0.127441
   116  C    0.079135
   117  C    0.099139
   118  O   -0.251520
   119  C   -0.045896
   120  C    0.263296
   121  O   -0.210392
   122  O   -0.401459
   123  C    0.135684
   124  H    0.006515
   125  H    0.021252
   126  H   -0.000381
   127  H    0.038100
   128  H    0.035963
   129  H    0.032115
   130  H    0.057749
   131  H    0.022858
   132  H    0.027417
   133  H    0.042830
   134  H    0.027509
   135  H    0.044627
   136  H    0.032562
   137  H    0.076109
   138  H    0.059640
   139  H    0.059822
   140  H    0.052637
   141  H    0.061960
   142  H    0.024995
   143  H    0.018234
   144  H    0.044988
   145  H    0.032948
   146  H    0.031280
   147  H    0.032126
   148  H    0.016176
   149  H    0.030682
   150  H    0.056741
   151  H    0.029949
   152  H    0.053926
   153  H    0.066181
   154  H    0.035050
   155  H    0.077683
   156  H    0.056922
   157  H    0.049883
   158  H    0.051783
 Sum of Mulliken charges =  -0.00000

 Dipole moment (field-independent basis, Debye):
    X=              7.0902    Y=              1.5076    Z=             -0.9107  Tot=              7.3057
 Quadrupole moment (field-independent basis, Debye-Ang):
   XX=           -707.1383   YY=           -467.8841   ZZ=           -513.7364
   XY=             -1.0260   XZ=            180.2356   YZ=              6.0053

 Normal termination of Gaussian 16 at Sun Sep 19 07:37:35 2021.
