 Gaussian 16, Revision A.03,
 Gaussian 16:  ES64L-G16RevA.03 25-Dec-2016

 --------------------------------
 #p wB97XD/Def2SVP td=(nstates=5)
 --------------------------------

 --------------------------------
 TDDFT excited states in gaussian
 --------------------------------
 Symbolic Z-matrix:
 Charge =  0 Multiplicity = 1

                         Standard orientation:
 ---------------------------------------------------------------------
 Center     Atomic      Atomic             Coordinates (Angstroms)
 Number     Number       Type             X           Y           Z
 ---------------------------------------------------------------------
      1         12           0       10.528371   -0.136542    0.595698
      2          6           0        9.116045    1.603072   -2.074251
      3          6           0        7.589301    0.257755    2.353816
      4          6           0       12.015503   -1.884856    2.940935
      5          6           0       13.070535   -1.372689   -1.704712
      6          7           0        8.541343    0.930646    0.138038
      7          6           0        8.171816    1.547815   -1.023933
      8          6           0        6.810712    2.135896   -0.904373
      9          6           0        6.306439    1.658769    0.515769
     10          6           0        7.551678    0.880384    1.094832
     11          6           0        5.695928    2.777945    1.396433
     12          6           0        5.854075    1.685161   -2.034911
     13          6           0        5.196243    2.892343   -2.701112
     14          1           0        3.641265    2.897182   -2.806119
     15          7           0        9.893172   -0.706401    2.423325
     16          6           0        8.664523   -0.423088    3.018035
     17          6           0        8.752925   -0.965221    4.367743
     18          6           0       10.072947   -1.578554    4.585663
     19          6           0       10.787853   -1.350537    3.290213
     20          6           0        7.616303   -1.030726    5.259730
     21          6           0       10.391173   -2.354578    5.795937
     22          8           0        9.635251   -2.496993    6.734143
     23          6           0       11.642736   -3.141588    5.972211
     24          7           0       12.204267   -1.422997    0.576509
     25          6           0       12.765432   -1.795604    1.771630
     26          6           0       14.029247   -2.593065    1.527808
     27          6           0       14.043186   -2.814343    0.061499
     28          6           0       13.030195   -1.893441   -0.408998
     29          6           0       15.345003   -1.976841    2.157786
     30          6           0       13.569813   -4.250428   -0.350792
     31          6           0       14.135166   -4.799164   -1.578416
     32          7           0       11.059113    0.067433   -1.475840
     33          6           0       12.125593   -0.421613   -2.241579
     34          6           0       12.166792    0.281416   -3.485334
     35          6           0       11.006686    1.046728   -3.498779
     36          6           0       10.323218    0.854579   -2.245342
     37          6           0       13.233291    0.104822   -4.502285
     38          6           0       10.222065    1.912532   -4.285766
     39          8           0       10.408057    2.330804   -5.406697
     40          6           0        9.027732    2.345122   -3.406311
     41          6           0        9.013647    3.813039   -3.303944
     42          8           0        9.647169    4.487125   -2.474330
     43          8           0        8.317776    4.341603   -4.366891
     44          6           0        8.072648    5.772568   -4.444489
     45          1           0        6.654273    0.474383    2.873572
     46          1           0       12.595149   -2.532436    3.603517
     47          1           0       13.866807   -1.748547   -2.350606
     48          1           0        6.993823    3.196537   -0.730001
     49          1           0        5.485804    0.943574    0.468741
     50          1           0        5.466939    3.550852    0.661759
     51          1           0        6.292211    3.112000    2.245588
     52          1           0        4.755403    2.436832    1.828360
     53          1           0        4.994841    1.111728   -1.687559
     54          1           0        6.459265    1.103289   -2.729852
     55          1           0        5.548104    2.740124   -3.721359
     56          1           0        5.628646    3.784684   -2.250909
     57          1           0        6.771364   -0.553100    4.763233
     58          1           0        7.708272   -0.474577    6.193132
     59          1           0        7.355934   -2.075045    5.435641
     60          1           0       12.364303   -2.389153    5.653910
     61          1           0       11.622426   -3.986600    5.283488
     62          1           0       11.788978   -3.424754    7.014804
     63          1           0       13.847026   -3.512752    2.082531
     64          1           0       14.934804   -2.517395   -0.490810
     65          1           0       15.097611   -1.157090    2.832512
     66          1           0       16.131429   -1.740090    1.440287
     67          1           0       15.820919   -2.634958    2.884227
     68          1           0       12.481544   -4.263933   -0.411947
     69          1           0       13.815122   -4.973453    0.426968
     70          1           0       15.076987   -5.293106   -1.337015
     71          1           0       14.260153   -4.040792   -2.352007
     72          1           0       13.551927   -5.664374   -1.895253
     73          1           0       14.210023   -0.011382   -4.032807
     74          1           0       13.265881    0.895775   -5.251744
     75          1           0       13.015936   -0.873528   -4.930978
     76          1           0        8.063785    2.168215   -3.883583
     77          1           0        8.900808    6.440369   -4.681973
     78          1           0        7.584809    6.107584   -3.529356
     79          1           0        7.412479    5.878020   -5.304594
     80         12           0      -10.538961   -0.825930    0.138505
     81          6           0       -9.140055    2.168137    1.279014
     82          6           0       -7.373621   -1.811542   -0.818534
     83          6           0      -11.912171   -3.418465   -1.606237
     84          6           0      -13.680315    0.572768    0.549022
     85          7           0       -8.548702    0.063381    0.325104
     86          6           0       -8.213110    1.166767    1.005716
     87          6           0       -6.708953    1.323069    1.273055
     88          6           0       -6.118080    0.129309    0.429128
     89          6           0       -7.446641   -0.704094   -0.013015
     90          6           0       -5.231152    0.490759   -0.781824
     91          6           0       -6.318251    1.300613    2.750950
     92          6           0       -5.014629    2.064088    3.047182
     93          1           0       -4.250112    2.722244    1.889925
     94          7           0       -9.776218   -2.458935   -0.952194
     95          6           0       -8.409521   -2.735584   -1.186662
     96          6           0       -8.316830   -3.984900   -1.915114
     97          6           0       -9.652237   -4.445859   -2.217642
     98          6           0      -10.517030   -3.464621   -1.564231
     99          6           0       -6.985760   -4.638337   -2.166405
    100          6           0      -10.149814   -5.788267   -2.919575
    101          8           0      -11.308002   -6.121856   -2.985989
    102          6           0       -9.077472   -6.657336   -3.539944
    103          7           0      -12.483807   -1.295320   -0.521430
    104          6           0      -12.826139   -2.433575   -1.190964
    105          6           0      -14.378955   -2.550138   -1.414279
    106          6           0      -14.880235   -1.317362   -0.663845
    107          6           0      -13.604254   -0.644598   -0.193873
    108          6           0      -14.993830   -2.754228   -2.857360
    109          6           0      -15.802585   -1.714175    0.512644
    110          6           0      -15.162194   -2.145743    1.850573
    111          7           0      -11.356979    0.938051    0.917641
    112          6           0      -12.651487    1.376320    1.024113
    113          6           0      -12.712385    2.666254    1.625521
    114          6           0      -11.303478    3.054900    1.752556
    115          6           0      -10.585815    2.016153    1.302171
    116          6           0      -13.846817    3.505487    2.017435
    117          6           0      -10.387326    4.141424    2.070540
    118          8           0      -10.610527    5.245487    2.578516
    119          6           0       -8.939846    3.638454    1.794084
    120          6           0       -8.248748    4.495528    0.836256
    121          8           0       -8.404605    4.491276   -0.380269
    122          8           0       -7.561424    5.468361    1.517797
    123          6           0       -7.128330    6.689436    0.811056
    124          1           0       -6.342727   -2.027837   -1.107226
    125          1           0      -12.363094   -4.332089   -1.999115
    126          1           0      -14.670547    0.976930    0.769184
    127          1           0       -6.304862    2.209699    0.785012
    128          1           0       -5.611486   -0.620361    1.035908
    129          1           0       -4.346942   -0.105949   -0.558447
    130          1           0       -4.994683    1.554533   -0.782496
    131          1           0       -5.731167    0.227474   -1.713980
    132          1           0       -6.234210    0.285439    3.136960
    133          1           0       -7.102777    1.759100    3.353551
    134          1           0       -4.423455    1.273729    3.510189
    135          1           0       -5.141512    2.788811    3.852677
    136          1           0       -6.240091   -3.895537   -1.882752
    137          1           0       -6.914514   -4.905046   -3.221082
    138          1           0       -6.847035   -5.558028   -1.596075
    139          1           0       -8.645899   -6.317832   -4.482091
    140          1           0       -9.483150   -7.664472   -3.635815
    141          1           0       -8.317852   -6.663095   -2.758329
    142          1           0      -14.589390   -3.476544   -0.880359
    143          1           0      -15.419763   -0.714079   -1.393062
    144          1           0      -15.818520   -2.084986   -3.099664
    145          1           0      -15.416834   -3.757218   -2.903961
    146          1           0      -14.174574   -2.701684   -3.575028
    147          1           0      -16.436035   -2.510219    0.123171
    148          1           0      -16.441381   -0.843852    0.665750
    149          1           0      -15.763764   -2.993424    2.177684
    150          1           0      -15.235945   -1.387058    2.629374
    151          1           0      -14.096103   -2.361673    1.789894
    152          1           0      -13.609392    3.949452    2.983564
    153          1           0      -14.809059    2.997442    2.082043
    154          1           0      -13.895621    4.385919    1.376431
    155          1           0       -8.469124    3.641872    2.777082
    156          1           0       -7.367104    6.656423   -0.252526
    157          1           0       -6.043752    6.755627    0.900576
    158          1           0       -7.690682    7.448886    1.353144
 ---------------------------------------------------------------------

 SCF Done:  E(RwB97XD) =  -4070.59394567     A.U. after   20 cycles

 Excitation energies and oscillator strengths:

 Excited State   1:      Singlet-A      1.6143 eV  768.03 nm  f=0.3612  <S**2>=0.000
     309 -> 315       -0.19434
     311 -> 313        0.68131
     309 <- 315       -0.12119
 This state for optimization and/or second-order correction.
 Total Energy, E(TD-HF/TD-DFT) =  -4070.53462079
 Copying the excited state density for this state as the 1-particle RhoCI density.

 Excited State   2:      Singlet-A      1.6570 eV  748.24 nm  f=0.4107  <S**2>=0.000
     310 -> 316       -0.18740
     312 -> 314        0.68176
     310 <- 316       -0.11638

 Excited State   3:      Singlet-A      2.0780 eV  596.66 nm  f=0.1598  <S**2>=0.000
     310 -> 314        0.65606
     312 -> 316        0.23988

 Excited State   4:      Singlet-A      2.1299 eV  582.11 nm  f=0.0972  <S**2>=0.000
     309 -> 313        0.63327
     311 -> 315        0.29999

 Excited State   5:      Singlet-A      3.1036 eV  399.49 nm  f=0.0056  <S**2>=0.000
     305 -> 314       -0.12829
     308 -> 314        0.67541

 The electronic state is 1-A.
 Alpha  occ. eigenvalues --  -46.95376 -46.94640 -19.30170 -19.29174 -19.24998
 Alpha  occ. eigenvalues --  -19.24392 -19.23982 -19.23812 -19.23481 -19.22494
 Alpha  occ. eigenvalues --  -14.47016 -14.46921 -14.46639 -14.46513 -14.44999
 Alpha  occ. eigenvalues --  -14.44108 -14.43851 -14.42826 -10.43018 -10.42565
 Alpha  occ. eigenvalues --  -10.40201 -10.39156 -10.38283 -10.37738 -10.35773
 Alpha  occ. eigenvalues --  -10.35737 -10.35681 -10.35470 -10.35237 -10.35169
 Alpha  occ. eigenvalues --  -10.34977 -10.34953 -10.34951 -10.34767 -10.34702
 Alpha  occ. eigenvalues --  -10.34546 -10.34429 -10.33980 -10.33943 -10.33186
 Alpha  occ. eigenvalues --  -10.33072 -10.32927 -10.32891 -10.32798 -10.32793
 Alpha  occ. eigenvalues --  -10.32760 -10.32536 -10.32478 -10.32350 -10.32342
 Alpha  occ. eigenvalues --  -10.32317 -10.32298 -10.32202 -10.32157 -10.31942
 Alpha  occ. eigenvalues --  -10.31883 -10.31781 -10.31741 -10.31740 -10.31498
 Alpha  occ. eigenvalues --  -10.31494 -10.31431 -10.31403 -10.31291 -10.31237
 Alpha  occ. eigenvalues --  -10.31209 -10.31001 -10.30968 -10.30926 -10.30743
 Alpha  occ. eigenvalues --  -10.30688 -10.30443 -10.30439 -10.30309 -10.30227
 Alpha  occ. eigenvalues --  -10.30170 -10.30017 -10.29867 -10.29788 -10.29700
 Alpha  occ. eigenvalues --  -10.29438 -10.29325 -10.29144 -10.28888 -10.28844
 Alpha  occ. eigenvalues --  -10.28840  -3.21313  -3.20602  -1.94904  -1.94446
 Alpha  occ. eigenvalues --   -1.94269  -1.94192  -1.93722  -1.93580  -1.17702
 Alpha  occ. eigenvalues --   -1.17313  -1.13840  -1.12370  -1.12148  -1.11150
 Alpha  occ. eigenvalues --   -1.08973  -1.08891  -1.07074  -1.06488  -1.05907
 Alpha  occ. eigenvalues --   -1.05377  -1.05100  -1.04525  -1.03718  -1.03104
 Alpha  occ. eigenvalues --   -0.94722  -0.94102  -0.92733  -0.91562  -0.91077
 Alpha  occ. eigenvalues --   -0.91069  -0.90720  -0.90121  -0.89737  -0.89276
 Alpha  occ. eigenvalues --   -0.89068  -0.88435  -0.88364  -0.88072  -0.87255
 Alpha  occ. eigenvalues --   -0.86535  -0.86182  -0.85468  -0.85376  -0.84590
 Alpha  occ. eigenvalues --   -0.84278  -0.83911  -0.83461  -0.82999  -0.82878
 Alpha  occ. eigenvalues --   -0.82183  -0.80670  -0.80138  -0.80002  -0.79164
 Alpha  occ. eigenvalues --   -0.79084  -0.78817  -0.78322  -0.77880  -0.77432
 Alpha  occ. eigenvalues --   -0.77010  -0.75489  -0.74467  -0.74114  -0.73118
 Alpha  occ. eigenvalues --   -0.71766  -0.71406  -0.71112  -0.70474  -0.70042
 Alpha  occ. eigenvalues --   -0.69716  -0.69571  -0.68492  -0.68117  -0.67989
 Alpha  occ. eigenvalues --   -0.67382  -0.66780  -0.66761  -0.66677  -0.66492
 Alpha  occ. eigenvalues --   -0.65781  -0.64098  -0.63446  -0.62801  -0.61821
 Alpha  occ. eigenvalues --   -0.61564  -0.61548  -0.61126  -0.61087  -0.61063
 Alpha  occ. eigenvalues --   -0.60329  -0.60018  -0.59702  -0.59466  -0.59451
 Alpha  occ. eigenvalues --   -0.58490  -0.57904  -0.57861  -0.57498  -0.57428
 Alpha  occ. eigenvalues --   -0.57225  -0.57166  -0.56652  -0.56456  -0.56261
 Alpha  occ. eigenvalues --   -0.55672  -0.55328  -0.55231  -0.54855  -0.54829
 Alpha  occ. eigenvalues --   -0.54669  -0.54575  -0.54322  -0.54290  -0.54122
 Alpha  occ. eigenvalues --   -0.54107  -0.53939  -0.53778  -0.53668  -0.53596
 Alpha  occ. eigenvalues --   -0.53301  -0.53271  -0.52778  -0.52629  -0.52454
 Alpha  occ. eigenvalues --   -0.52222  -0.52053  -0.51712  -0.51663  -0.51564
 Alpha  occ. eigenvalues --   -0.51436  -0.51359  -0.51154  -0.51011  -0.50958
 Alpha  occ. eigenvalues --   -0.50864  -0.50565  -0.50509  -0.50487  -0.50209
 Alpha  occ. eigenvalues --   -0.50065  -0.49599  -0.49595  -0.49173  -0.49098
 Alpha  occ. eigenvalues --   -0.49031  -0.48815  -0.48726  -0.48661  -0.48331
 Alpha  occ. eigenvalues --   -0.48261  -0.48238  -0.48089  -0.47824  -0.47759
 Alpha  occ. eigenvalues --   -0.47605  -0.47330  -0.47238  -0.46984  -0.46970
 Alpha  occ. eigenvalues --   -0.46610  -0.46603  -0.46550  -0.46294  -0.46060
 Alpha  occ. eigenvalues --   -0.45922  -0.45674  -0.45638  -0.45503  -0.45371
 Alpha  occ. eigenvalues --   -0.45258  -0.45196  -0.45073  -0.45033  -0.44950
 Alpha  occ. eigenvalues --   -0.44785  -0.44713  -0.44567  -0.44320  -0.44075
 Alpha  occ. eigenvalues --   -0.43967  -0.43735  -0.43614  -0.43472  -0.43456
 Alpha  occ. eigenvalues --   -0.43181  -0.43076  -0.42847  -0.42684  -0.42554
 Alpha  occ. eigenvalues --   -0.42248  -0.42213  -0.41865  -0.41196  -0.40554
 Alpha  occ. eigenvalues --   -0.40494  -0.40355  -0.39822  -0.39746  -0.39650
 Alpha  occ. eigenvalues --   -0.39393  -0.39166  -0.38821  -0.38454  -0.38386
 Alpha  occ. eigenvalues --   -0.38093  -0.37748  -0.36440  -0.36362  -0.35819
 Alpha  occ. eigenvalues --   -0.35795  -0.35553  -0.35284  -0.33690  -0.33600
 Alpha  occ. eigenvalues --   -0.33147  -0.32842  -0.32746  -0.32130  -0.31835
 Alpha  occ. eigenvalues --   -0.31781  -0.31628  -0.30882  -0.26319  -0.25468
 Alpha  occ. eigenvalues --   -0.23466  -0.23153
 Alpha virt. eigenvalues --   -0.07609  -0.07318  -0.00687   0.00575   0.02225
 Alpha virt. eigenvalues --    0.02603   0.04375   0.04551   0.05640   0.05751
 Alpha virt. eigenvalues --    0.06394   0.07360   0.07391   0.07682   0.07838

 Mulliken charges:
               1
     1  Mg   0.953323
     2  C    0.048344
     3  C   -0.057626
     4  C   -0.121917
     5  C   -0.096186
     6  N   -0.342795
     7  C   -0.024137
     8  C   -0.029494
     9  C   -0.145843
    10  C    0.045704
    11  C    0.012304
    12  C    0.023825
    13  C   -0.137280
    14  H    0.038836
    15  N   -0.537400
    16  C    0.202014
    17  C   -0.171575
    18  C   -0.063904
    19  C    0.269846
    20  C    0.097573
    21  C   -0.011579
    22  O   -0.239061
    23  C    0.006764
    24  N   -0.368844
    25  C    0.069670
    26  C   -0.083500
    27  C   -0.081677
    28  C    0.063118
    29  C    0.032003
    30  C    0.003075
    31  C   -0.018648
    32  N   -0.407218
    33  C    0.111837
    34  C   -0.185282
    35  C   -0.015189
    36  C    0.112922
    37  C    0.089628
    38  C    0.108557
    39  O   -0.187387
    40  C   -0.127708
    41  C    0.253640
    42  O   -0.268943
    43  O   -0.361215
    44  C    0.148906
    45  H    0.001191
    46  H   -0.005663
    47  H   -0.002605
    48  H    0.049699
    49  H    0.042023
    50  H    0.038507
    51  H    0.051912
    52  H    0.031909
    53  H    0.051348
    54  H    0.052013
    55  H    0.064450
    56  H    0.053517
    57  H    0.000714
    58  H    0.057532
    59  H    0.064602
    60  H    0.039672
    61  H    0.062447
    62  H    0.058295
    63  H    0.032799
    64  H    0.027233
    65  H    0.034093
    66  H    0.045575
    67  H    0.027910
    68  H    0.039275
    69  H    0.020045
    70  H    0.027253
    71  H    0.029273
    72  H    0.034517
    73  H    0.036302
    74  H    0.068098
    75  H    0.051159
    76  H    0.050854
    77  H    0.058322
    78  H    0.047273
    79  H    0.050972
    80  Mg   0.960104
    81  C   -0.000825
    82  C   -0.090097
    83  C   -0.073801
    84  C   -0.086836
    85  N   -0.357034
    86  C   -0.011470
    87  C   -0.047828
    88  C   -0.149055
    89  C    0.067829
    90  C    0.032247
    91  C    0.017089
    92  C   -0.110551
    93  H    0.045997
    94  N   -0.477791
    95  C    0.165526
    96  C   -0.178521
    97  C   -0.089881
    98  C    0.129313
    99  C    0.057237
   100  C    0.082339
   101  O   -0.208323
   102  C   -0.022568
   103  N   -0.337839
   104  C    0.039740
   105  C   -0.081594
   106  C   -0.049303
   107  C    0.051050
   108  C    0.022558
   109  C   -0.042553
   110  C   -0.033412
   111  N   -0.450035
   112  C    0.142064
   113  C   -0.164861
   114  C   -0.034714
   115  C    0.132417
   116  C    0.085440
   117  C    0.094116
   118  O   -0.220596
   119  C   -0.059068
   120  C    0.274272
   121  O   -0.254758
   122  O   -0.379446
   123  C    0.128405
   124  H    0.001049
   125  H    0.020238
   126  H   -0.015787
   127  H    0.038748
   128  H    0.031067
   129  H    0.039513
   130  H    0.042819
   131  H    0.055662
   132  H    0.031223
   133  H    0.031333
   134  H    0.040316
   135  H    0.054552
   136  H    0.028893
   137  H    0.047929
   138  H    0.067812
   139  H    0.082072
   140  H    0.053901
   141  H    0.031793
   142  H    0.039821
   143  H    0.036185
   144  H    0.039899
   145  H    0.035739
   146  H    0.050980
   147  H    0.030222
   148  H    0.031165
   149  H    0.040462
   150  H    0.037254
   151  H    0.046569
   152  H    0.053019
   153  H    0.034701
   154  H    0.057918
   155  H    0.073218
   156  H    0.066917
   157  H    0.054132
   158  H    0.073684
 Sum of Mulliken charges =  -0.00000

 Dipole moment (field-independent basis, Debye):
    X=              2.6238    Y=             -5.0340    Z=              0.8645  Tot=              5.7423
 Quadrupole moment (field-independent basis, Debye-Ang):
   XX=           -460.9909   YY=           -513.4847   ZZ=           -555.1087
   XY=            -17.3124   XZ=             -0.9494   YZ=              6.9603

 Normal termination of Gaussian 16 at Sun Sep 19 15:01:58 2021.
