 Gaussian 16, Revision A.03,
 Gaussian 16:  ES64L-G16RevA.03 25-Dec-2016

 --------------------------------
 #p wB97XD/Def2SVP td=(nstates=5)
 --------------------------------

 --------------------------------
 TDDFT excited states in gaussian
 --------------------------------
 Symbolic Z-matrix:
 Charge =  0 Multiplicity = 1

                         Standard orientation:
 ---------------------------------------------------------------------
 Center     Atomic      Atomic             Coordinates (Angstroms)
 Number     Number       Type             X           Y           Z
 ---------------------------------------------------------------------
      1         12           0      -30.121976    0.159065    0.397460
      2          6           0      -27.756131   -1.924998   -0.833873
      3          6           0      -30.679464    1.411866   -2.793847
      4          6           0      -32.483875    2.247821    1.630341
      5          6           0      -29.228918   -0.729662    3.621690
      6          7           0      -29.372088   -0.324802   -1.509657
      7          6           0      -28.374381   -1.188741   -1.825217
      8          6           0      -28.229372   -1.382086   -3.312157
      9          6           0      -28.963858   -0.122920   -3.910940
     10          6           0      -29.756976    0.342384   -2.645944
     11          6           0      -28.136478    1.014848   -4.642848
     12          6           0      -28.944700   -2.718743   -3.807549
     13          6           0      -28.343373   -3.258846   -5.138537
     14          1           0      -27.674595   -2.328406   -6.164287
     15          7           0      -31.384813    1.713714   -0.425150
     16          6           0      -31.442224    2.042423   -1.804950
     17          6           0      -32.420059    3.068162   -2.009872
     18          6           0      -32.966683    3.354258   -0.708217
     19          6           0      -32.267900    2.392935    0.217777
     20          6           0      -32.813807    3.611557   -3.338561
     21          6           0      -34.038311    4.363233   -0.310772
     22          8           0      -34.388004    4.640851    0.873891
     23          6           0      -34.764230    5.143807   -1.393337
     24          7           0      -30.721933    0.739682    2.331893
     25          6           0      -31.867022    1.490833    2.601554
     26          6           0      -32.364365    1.409158    4.073712
     27          6           0      -31.257758    0.361648    4.653299
     28          6           0      -30.364953    0.069877    3.503313
     29          6           0      -32.304945    2.808010    4.700711
     30          6           0      -31.841486   -0.853809    5.311213
     31          6           0      -31.372221   -1.054226    6.723863
     32          7           0      -28.770149   -0.927934    1.303762
     33          6           0      -28.496112   -1.257987    2.625216
     34          6           0      -27.409390   -2.163609    2.687118
     35          6           0      -27.017382   -2.452878    1.352463
     36          6           0      -27.935984   -1.766363    0.530633
     37          6           0      -26.774270   -2.780359    3.873776
     38          6           0      -26.025669   -3.108745    0.528584
     39          8           0      -25.023242   -3.761561    0.744065
     40          6           0      -26.561537   -2.816929   -0.952706
     41          6           0      -25.459468   -2.522243   -1.905491
     42          8           0      -24.506714   -1.812737   -1.706303
     43          8           0      -25.580304   -3.170526   -3.074395
     44          6           0      -24.495249   -2.881030   -4.054631
     45          1           0      -30.650926    1.851316   -3.793235
     46          1           0      -33.149722    3.017027    2.026897
     47          1           0      -28.961856   -1.147230    4.594634
     48          1           0      -27.198134   -1.273258   -3.647602
     49          1           0      -29.729897   -0.472518   -4.602341
     50          1           0      -27.103910    0.671565   -4.707627
     51          1           0      -28.151623    2.011965   -4.205678
     52          1           0      -28.592611    1.144697   -5.624450
     53          1           0      -29.996607   -2.443962   -3.887513
     54          1           0      -28.815358   -3.462577   -3.021272
     55          1           0      -29.201959   -3.753083   -5.593506
     56          1           0      -27.681186   -4.078143   -4.859853
     57          1           0      -33.535753    3.017769   -3.899283
     58          1           0      -31.879957    3.733654   -3.885868
     59          1           0      -33.121524    4.656116   -3.300767
     60          1           0      -34.116757    5.985924   -1.637235
     61          1           0      -35.669614    5.511831   -0.911324
     62          1           0      -34.958083    4.571076   -2.300427
     63          1           0      -33.409375    1.103671    4.020073
     64          1           0      -30.673090    0.869608    5.421011
     65          1           0      -31.811023    3.576361    4.105553
     66          1           0      -31.923470    2.721935    5.717867
     67          1           0      -33.338239    3.152661    4.750271
     68          1           0      -31.564794   -1.785270    4.817151
     69          1           0      -32.931022   -0.882450    5.329940
     70          1           0      -32.186317   -1.245478    7.422400
     71          1           0      -30.840546   -0.177952    7.093811
     72          1           0      -30.621121   -1.840633    6.644004
     73          1           0      -26.780836   -2.182677    4.785763
     74          1           0      -25.710608   -2.725572    3.640215
     75          1           0      -27.190953   -3.772789    4.046039
     76          1           0      -26.909172   -3.829225   -1.160920
     77          1           0      -23.575240   -3.417678   -3.818595
     78          1           0      -24.370286   -1.810859   -4.220455
     79          1           0      -24.809897   -3.257916   -5.028107
     80         12           0       30.182272    0.297124   -0.319793
     81          6           0       27.131725   -1.206820   -0.308585
     82          6           0       28.580154    3.359085   -1.072187
     83          6           0       32.932533    1.882602    0.717757
     84          6           0       31.656450   -2.735083    0.974480
     85          7           0       28.129220    0.928730   -0.662755
     86          6           0       27.043870    0.229869   -0.614495
     87          6           0       25.790570    0.988757   -1.178820
     88          6           0       26.357445    2.367461   -1.690680
     89          6           0       27.825190    2.251988   -1.152488
     90          6           0       26.115222    2.697501   -3.164192
     91          6           0       24.575114    1.082812   -0.078488
     92          6           0       24.916401    0.962111    1.397898
     93          1           0       23.945292    1.468689    2.464291
     94          7           0       30.670464    2.344925   -0.191372
     95          6           0       29.933800    3.430449   -0.600459
     96          6           0       30.639968    4.606979   -0.331212
     97          6           0       31.918227    4.232221    0.237171
     98          6           0       31.881580    2.748243    0.319113
     99          6           0       30.116832    5.953237   -0.797396
    100          6           0       33.007015    5.237275    0.654577
    101          8           0       32.768256    6.455233    0.493426
    102          6           0       34.282378    4.903128    1.219589
    103          7           0       32.033246   -0.332810    0.880411
    104          6           0       33.017172    0.518438    0.947616
    105          6           0       34.342193   -0.121690    1.450932
    106          6           0       33.957515   -1.616931    1.486351
    107          6           0       32.431096   -1.643023    1.070890
    108          6           0       35.516981    0.118721    0.572988
    109          6           0       34.250880   -2.300850    2.903974
    110          6           0       35.419682   -3.369525    2.934615
    111          7           0       29.626277   -1.635511    0.133572
    112          6           0       30.292194   -2.773055    0.606798
    113          6           0       29.318121   -3.907298    0.662039
    114          6           0       28.093515   -3.298458    0.352918
    115          6           0       28.309760   -1.916921    0.070988
    116          6           0       29.544664   -5.294760    1.019453
    117          6           0       26.737525   -3.598097    0.276973
    118          8           0       26.078863   -4.638152    0.423564
    119          6           0       26.060592   -2.297743   -0.241995
    120          6           0       25.306212   -2.637106   -1.549521
    121          8           0       24.132927   -2.426685   -1.805790
    122          8           0       26.124305   -3.238916   -2.481104
    123          6           0       25.519393   -3.647426   -3.754465
    124          1           0       27.990566    4.259160   -1.257633
    125          1           0       33.910629    2.323433    0.920348
    126          1           0       32.148773   -3.682934    1.201267
    127          1           0       25.510074    0.468932   -2.095289
    128          1           0       25.959496    3.210747   -1.125373
    129          1           0       27.067195    2.728243   -3.693836
    130          1           0       25.649054    3.674515   -3.296754
    131          1           0       25.428616    2.034668   -3.690886
    132          1           0       23.901619    0.307114   -0.443669
    133          1           0       24.040960    2.032930   -0.055746
    134          1           0       25.855444    1.509536    1.474999
    135          1           0       25.156065   -0.090697    1.548169
    136          1           0       30.730690    6.579415   -1.445360
    137          1           0       29.788276    6.518433    0.075103
    138          1           0       29.196817    5.797667   -1.360512
    139          1           0       34.963559    4.300930    0.618643
    140          1           0       34.155503    4.240232    2.074903
    141          1           0       34.813319    5.757681    1.637885
    142          1           0       34.734897    0.184035    2.420595
    143          1           0       34.421427   -2.199750    0.690517
    144          1           0       36.228896    0.854863    0.945987
    145          1           0       35.212470    0.616013   -0.348617
    146          1           0       36.040223   -0.817720    0.380296
    147          1           0       33.368026   -2.875249    3.187838
    148          1           0       34.565650   -1.607065    3.682340
    149          1           0       36.061343   -3.184193    3.795109
    150          1           0       36.063543   -3.183949    2.074806
    151          1           0       34.917594   -4.326812    3.075866
    152          1           0       30.568382   -5.490677    0.699665
    153          1           0       28.862468   -5.948612    0.474958
    154          1           0       29.314271   -5.376398    2.081282
    155          1           0       25.176053   -2.016672    0.329110
    156          1           0       26.122283   -4.451425   -4.177041
    157          1           0       25.471640   -2.915050   -4.560184
    158          1           0       24.470644   -3.934232   -3.671804
 ---------------------------------------------------------------------

 SCF Done:  E(RwB97XD) =  -4070.57857147     A.U. after   19 cycles

 Excitation energies and oscillator strengths:

 Excited State   1:      Singlet-A      1.5874 eV  781.05 nm  f=0.3892  <S**2>=0.000
     310 -> 316        0.17576
     312 -> 314        0.68654
     310 <- 316        0.11663
 This state for optimization and/or second-order correction.
 Total Energy, E(TD-HF/TD-DFT) =  -4070.52023575
 Copying the excited state density for this state as the 1-particle RhoCI density.

 Excited State   2:      Singlet-A      1.6549 eV  749.21 nm  f=0.4331  <S**2>=0.000
     309 -> 315        0.16633
     311 -> 313        0.68663
     309 <- 315        0.11152

 Excited State   3:      Singlet-A      2.1692 eV  571.57 nm  f=0.1097  <S**2>=0.000
     310 -> 314        0.63607
     312 -> 316       -0.29410

 Excited State   4:      Singlet-A      2.1981 eV  564.05 nm  f=0.1159  <S**2>=0.000
     309 -> 313        0.64043
     311 -> 315       -0.27518

 Excited State   5:      Singlet-A      3.2251 eV  384.43 nm  f=0.0080  <S**2>=0.000
     302 -> 313        0.15933
     308 -> 313        0.66790
     308 -> 317        0.10500

 The electronic state is 1-A.
 Alpha  occ. eigenvalues --  -46.96670 -46.93502 -19.30360 -19.30167 -19.25094
 Alpha  occ. eigenvalues --  -19.24272 -19.24119 -19.23684 -19.23544 -19.22390
 Alpha  occ. eigenvalues --  -14.47809 -14.47452 -14.46497 -14.46287 -14.45180
 Alpha  occ. eigenvalues --  -14.44376 -14.44102 -14.43397 -10.43630 -10.42407
 Alpha  occ. eigenvalues --  -10.39212 -10.39164 -10.38801 -10.38160 -10.37074
 Alpha  occ. eigenvalues --  -10.35915 -10.35804 -10.35372 -10.35330 -10.35278
 Alpha  occ. eigenvalues --  -10.34942 -10.34747 -10.34708 -10.34695 -10.34614
 Alpha  occ. eigenvalues --  -10.34507 -10.34480 -10.34113 -10.33888 -10.33864
 Alpha  occ. eigenvalues --  -10.33521 -10.33363 -10.33323 -10.32955 -10.32945
 Alpha  occ. eigenvalues --  -10.32921 -10.32883 -10.32827 -10.32552 -10.32391
 Alpha  occ. eigenvalues --  -10.32340 -10.32296 -10.32179 -10.32091 -10.31904
 Alpha  occ. eigenvalues --  -10.31900 -10.31801 -10.31751 -10.31733 -10.31595
 Alpha  occ. eigenvalues --  -10.31590 -10.31581 -10.31533 -10.31144 -10.31134
 Alpha  occ. eigenvalues --  -10.31124 -10.31070 -10.31058 -10.30841 -10.30792
 Alpha  occ. eigenvalues --  -10.30739 -10.30670 -10.30255 -10.29994 -10.29962
 Alpha  occ. eigenvalues --  -10.29856 -10.29733 -10.29701 -10.29623 -10.29489
 Alpha  occ. eigenvalues --  -10.29461 -10.29434 -10.29318 -10.29272 -10.28907
 Alpha  occ. eigenvalues --  -10.28768  -3.22543  -3.19751  -1.96103  -1.95692
 Alpha  occ. eigenvalues --   -1.95475  -1.93340  -1.92866  -1.92772  -1.19467
 Alpha  occ. eigenvalues --   -1.18351  -1.12376  -1.11365  -1.09760  -1.09616
 Alpha  occ. eigenvalues --   -1.09603  -1.09441  -1.07058  -1.06515  -1.06511
 Alpha  occ. eigenvalues --   -1.05723  -1.05594  -1.04719  -1.04232  -1.03414
 Alpha  occ. eigenvalues --   -0.95349  -0.95053  -0.91612  -0.91574  -0.91287
 Alpha  occ. eigenvalues --   -0.90911  -0.90719  -0.90437  -0.90330  -0.89686
 Alpha  occ. eigenvalues --   -0.89586  -0.89162  -0.88351  -0.87192  -0.86561
 Alpha  occ. eigenvalues --   -0.86227  -0.86065  -0.85713  -0.84826  -0.84408
 Alpha  occ. eigenvalues --   -0.84370  -0.83581  -0.83446  -0.82994  -0.82457
 Alpha  occ. eigenvalues --   -0.82266  -0.80445  -0.80300  -0.79699  -0.79340
 Alpha  occ. eigenvalues --   -0.79263  -0.78871  -0.78454  -0.78297  -0.77218
 Alpha  occ. eigenvalues --   -0.77147  -0.75408  -0.74869  -0.73943  -0.73807
 Alpha  occ. eigenvalues --   -0.71617  -0.71067  -0.70841  -0.70582  -0.70344
 Alpha  occ. eigenvalues --   -0.70135  -0.68822  -0.68672  -0.67946  -0.67778
 Alpha  occ. eigenvalues --   -0.67632  -0.67295  -0.66828  -0.66766  -0.66542
 Alpha  occ. eigenvalues --   -0.66074  -0.65355  -0.64319  -0.62890  -0.62324
 Alpha  occ. eigenvalues --   -0.61988  -0.61879  -0.60928  -0.60922  -0.60526
 Alpha  occ. eigenvalues --   -0.60356  -0.60010  -0.59956  -0.59711  -0.59229
 Alpha  occ. eigenvalues --   -0.58292  -0.58069  -0.57606  -0.57593  -0.57347
 Alpha  occ. eigenvalues --   -0.57147  -0.56978  -0.56741  -0.56484  -0.55849
 Alpha  occ. eigenvalues --   -0.55841  -0.55431  -0.55273  -0.55200  -0.54949
 Alpha  occ. eigenvalues --   -0.54800  -0.54786  -0.54594  -0.54448  -0.54356
 Alpha  occ. eigenvalues --   -0.54162  -0.54097  -0.53896  -0.53409  -0.53252
 Alpha  occ. eigenvalues --   -0.53237  -0.53076  -0.52839  -0.52604  -0.52252
 Alpha  occ. eigenvalues --   -0.52229  -0.52006  -0.51919  -0.51895  -0.51590
 Alpha  occ. eigenvalues --   -0.51474  -0.51160  -0.50937  -0.50920  -0.50787
 Alpha  occ. eigenvalues --   -0.50747  -0.50472  -0.50301  -0.50248  -0.50126
 Alpha  occ. eigenvalues --   -0.49894  -0.49744  -0.49560  -0.49337  -0.49246
 Alpha  occ. eigenvalues --   -0.49120  -0.49119  -0.48801  -0.48735  -0.48623
 Alpha  occ. eigenvalues --   -0.48533  -0.48290  -0.48102  -0.47849  -0.47832
 Alpha  occ. eigenvalues --   -0.47656  -0.47182  -0.47137  -0.46965  -0.46842
 Alpha  occ. eigenvalues --   -0.46826  -0.46702  -0.46534  -0.46467  -0.46383
 Alpha  occ. eigenvalues --   -0.45987  -0.45818  -0.45742  -0.45569  -0.45455
 Alpha  occ. eigenvalues --   -0.45199  -0.45113  -0.44700  -0.44545  -0.44357
 Alpha  occ. eigenvalues --   -0.44245  -0.44171  -0.44059  -0.43971  -0.43887
 Alpha  occ. eigenvalues --   -0.43830  -0.43413  -0.43322  -0.42945  -0.42867
 Alpha  occ. eigenvalues --   -0.42826  -0.42751  -0.42609  -0.42493  -0.42316
 Alpha  occ. eigenvalues --   -0.42269  -0.41972  -0.41915  -0.41756  -0.40973
 Alpha  occ. eigenvalues --   -0.40665  -0.40197  -0.40102  -0.39875  -0.39796
 Alpha  occ. eigenvalues --   -0.39625  -0.39162  -0.38976  -0.38809  -0.38633
 Alpha  occ. eigenvalues --   -0.38505  -0.38398  -0.36807  -0.36612  -0.36313
 Alpha  occ. eigenvalues --   -0.36240  -0.36198  -0.35421  -0.33789  -0.33674
 Alpha  occ. eigenvalues --   -0.33190  -0.33134  -0.32807  -0.32635  -0.32126
 Alpha  occ. eigenvalues --   -0.32015  -0.31747  -0.31128  -0.26863  -0.26224
 Alpha  occ. eigenvalues --   -0.23471  -0.22828
 Alpha virt. eigenvalues --   -0.07877  -0.07315   0.00036   0.00305   0.02001
 Alpha virt. eigenvalues --    0.02177   0.03815   0.04346   0.04363   0.06131
 Alpha virt. eigenvalues --    0.07200   0.07446   0.07614   0.07858   0.08035

 Mulliken charges:
               1
     1  Mg   0.985504
     2  C    0.012730
     3  C   -0.095429
     4  C   -0.062364
     5  C   -0.128159
     6  N   -0.378462
     7  C   -0.008460
     8  C   -0.043395
     9  C   -0.121970
    10  C    0.058066
    11  C    0.021178
    12  C    0.005319
    13  C   -0.092449
    14  H    0.043468
    15  N   -0.389490
    16  C    0.164071
    17  C   -0.155387
    18  C   -0.073767
    19  C    0.099901
    20  C    0.064781
    21  C    0.052981
    22  O   -0.274743
    23  C   -0.022280
    24  N   -0.391879
    25  C    0.057978
    26  C   -0.092111
    27  C   -0.027217
    28  C    0.108794
    29  C    0.008966
    30  C   -0.008541
    31  C   -0.062948
    32  N   -0.527774
    33  C    0.190034
    34  C   -0.191404
    35  C   -0.054964
    36  C    0.141572
    37  C    0.072775
    38  C    0.153112
    39  O   -0.183099
    40  C   -0.107068
    41  C    0.224356
    42  O   -0.229880
    43  O   -0.358789
    44  C    0.140869
    45  H   -0.003577
    46  H    0.017244
    47  H   -0.016865
    48  H    0.024594
    49  H    0.035426
    50  H    0.042334
    51  H    0.048437
    52  H    0.037236
    53  H    0.035717
    54  H    0.041473
    55  H    0.044237
    56  H    0.060610
    57  H    0.073833
    58  H    0.034868
    59  H    0.031914
    60  H    0.066670
    61  H    0.059207
    62  H    0.050466
    63  H    0.056035
    64  H    0.035272
    65  H    0.060729
    66  H    0.037238
    67  H    0.041373
    68  H    0.033231
    69  H    0.028288
    70  H    0.043809
    71  H    0.022326
    72  H    0.037630
    73  H    0.026951
    74  H    0.061493
    75  H    0.068386
    76  H    0.069221
    77  H    0.070825
    78  H    0.058555
    79  H    0.040386
    80  Mg   0.957240
    81  C    0.004238
    82  C   -0.072011
    83  C   -0.044125
    84  C   -0.099252
    85  N   -0.349381
    86  C    0.010909
    87  C   -0.051003
    88  C   -0.100602
    89  C    0.039604
    90  C    0.023935
    91  C   -0.030328
    92  C   -0.101612
    93  H    0.062384
    94  N   -0.458832
    95  C    0.154434
    96  C   -0.150882
    97  C   -0.094653
    98  C    0.205672
    99  C    0.091938
   100  C    0.063151
   101  O   -0.267834
   102  C    0.000038
   103  N   -0.298085
   104  C    0.010961
   105  C   -0.080670
   106  C   -0.046027
   107  C    0.048411
   108  C    0.002557
   109  C   -0.042787
   110  C   -0.065016
   111  N   -0.464768
   112  C    0.133745
   113  C   -0.171327
   114  C   -0.013161
   115  C    0.155472
   116  C    0.081423
   117  C    0.117911
   118  O   -0.220263
   119  C   -0.108172
   120  C    0.242843
   121  O   -0.244107
   122  O   -0.368873
   123  C    0.139781
   124  H    0.011743
   125  H   -0.042752
   126  H    0.000695
   127  H    0.052508
   128  H    0.038611
   129  H    0.039466
   130  H    0.034758
   131  H    0.041356
   132  H    0.057244
   133  H    0.041165
   134  H    0.052183
   135  H    0.036550
   136  H    0.060556
   137  H    0.046839
   138  H    0.000125
   139  H    0.063440
   140  H    0.040887
   141  H    0.054671
   142  H    0.045301
   143  H    0.032489
   144  H    0.028501
   145  H    0.031377
   146  H    0.039478
   147  H    0.036139
   148  H    0.041011
   149  H    0.033299
   150  H    0.036182
   151  H    0.047806
   152  H    0.043710
   153  H    0.066873
   154  H    0.074610
   155  H    0.058596
   156  H    0.052705
   157  H    0.037441
   158  H    0.061566
 Sum of Mulliken charges =  -0.00000

 Dipole moment (field-independent basis, Debye):
    X=              0.9583    Y=             -2.5708    Z=             -5.2701  Tot=              5.9414
 Quadrupole moment (field-independent basis, Debye-Ang):
   XX=            -62.9888   YY=           -552.6355   ZZ=           -451.4710
   XY=            -64.9704   XZ=             59.0996   YZ=             -8.5599

 Normal termination of Gaussian 16 at Sun Sep 19 22:23:53 2021.
