 Gaussian 16, Revision A.03,
 Gaussian 16:  ES64L-G16RevA.03 25-Dec-2016

 --------------------------------
 #p wB97XD/Def2SVP td=(nstates=5)
 --------------------------------

 --------------------------------
 TDDFT excited states in gaussian
 --------------------------------
 Symbolic Z-matrix:
 Charge =  0 Multiplicity = 1

                         Standard orientation:
 ---------------------------------------------------------------------
 Center     Atomic      Atomic             Coordinates (Angstroms)
 Number     Number       Type             X           Y           Z
 ---------------------------------------------------------------------
      1         12           0       -0.812167    0.074761    0.039063
      2          6           0        2.787936    0.271257    0.141341
      3          6           0       -0.435837   -3.407888   -0.124811
      4          6           0       -4.088730   -0.133401    0.065469
      5          6           0       -0.953181    3.564810   -0.105166
      6          7           0        1.048224   -1.378986   -0.010565
      7          6           0        2.349265   -1.088283    0.254076
      8          6           0        3.163713   -2.337861    0.546780
      9          6           0        2.178868   -3.559849    0.108650
     10          6           0        0.858743   -2.750573   -0.045236
     11          6           0        2.646777   -4.366065   -1.128796
     12          6           0        3.632215   -2.418721    2.038942
     13          6           0        5.167948   -2.547154    2.211288
     14          1           0        5.638032   -3.956788    2.895722
     15          7           0       -2.045798   -1.498347   -0.013195
     16          6           0       -1.763359   -2.902792   -0.112789
     17          6           0       -2.980143   -3.748882   -0.122257
     18          6           0       -4.015241   -2.764050   -0.007388
     19          6           0       -3.404299   -1.424530    0.021270
     20          6           0       -2.988816   -5.273625   -0.248977
     21          6           0       -5.482773   -2.965049   -0.020777
     22          8           0       -6.320756   -2.133285    0.310447
     23          6           0       -6.013876   -4.375319   -0.344473
     24          7           0       -2.261072    1.498101    0.160804
     25          6           0       -3.572854    1.170091    0.126645
     26          6           0       -4.469935    2.358176   -0.083184
     27          6           0       -3.505669    3.569806   -0.095529
     28          6           0       -2.135858    2.869746    0.051476
     29          6           0       -5.400725    2.247750   -1.272541
     30          6           0       -3.802202    4.557924    1.179915
     31          6           0       -4.066280    6.118550    0.815250
     32          7           0        0.608855    1.630024   -0.249091
     33          6           0        0.365502    3.023890   -0.202585
     34          6           0        1.665663    3.703847   -0.222118
     35          6           0        2.586140    2.657647    0.049674
     36          6           0        1.921862    1.439028   -0.097556
     37          6           0        1.995361    5.182213   -0.405330
     38          6           0        4.052666    2.401868    0.117855
     39          8           0        5.093754    3.112208    0.047167
     40          6           0        4.183894    0.840923    0.305261
     41          6           0        5.139959    0.317669   -0.725751
     42          8           0        5.133446    0.641918   -1.879531
     43          8           0        6.073540   -0.477673   -0.121350
     44          6           0        7.238517   -0.754449   -0.999289
     45          1           0       -0.262219   -4.469833   -0.309672
     46          1           0       -5.180971   -0.134687    0.072766
     47          1           0       -0.973067    4.656388   -0.111453
     48          1           0        4.002055   -2.318612   -0.149624
     49          1           0        1.997158   -4.262042    0.922731
     50          1           0        1.955415   -4.235170   -1.961770
     51          1           0        2.734685   -5.425058   -0.882623
     52          1           0        3.654831   -4.151100   -1.483443
     53          1           0        3.195935   -3.275540    2.553038
     54          1           0        3.347744   -1.527111    2.598334
     55          1           0        5.574728   -1.857603    2.951443
     56          1           0        5.754733   -2.341275    1.316631
     57          1           0       -2.055036   -5.794600   -0.035111
     58          1           0       -3.363059   -5.663784   -1.195401
     59          1           0       -3.702497   -5.610257    0.503655
     60          1           0       -5.715386   -4.671630   -1.350023
     61          1           0       -7.093997   -4.451705   -0.215072
     62          1           0       -5.568226   -5.069592    0.367885
     63          1           0       -5.170148    2.400156    0.752203
     64          1           0       -3.544639    4.096839   -1.048394
     65          1           0       -6.442881    2.086253   -0.995625
     66          1           0       -5.210972    1.400372   -1.931262
     67          1           0       -5.291048    3.154603   -1.867619
     68          1           0       -3.009296    4.566573    1.927085
     69          1           0       -4.685906    4.258295    1.742671
     70          1           0       -4.365151    6.124137   -0.233146
     71          1           0       -3.177259    6.729546    0.976876
     72          1           0       -4.945815    6.503489    1.330672
     73          1           0        2.891475    5.474992    0.141462
     74          1           0        1.208239    5.752625    0.089167
     75          1           0        1.944634    5.319371   -1.485572
     76          1           0        4.682585    0.703184    1.264320
     77          1           0        6.850971   -1.162594   -1.932541
     78          1           0        7.749059   -1.571342   -0.489492
     79          1           0        7.898458    0.065263   -1.283149
 ---------------------------------------------------------------------

 SCF Done:  E(RwB97XD) =  -2035.29527927     A.U. after   20 cycles

 Excitation energies and oscillator strengths:

 Excited State   1:      Singlet-A      1.6155 eV  767.45 nm  f=0.3700  <S**2>=0.000
     155 ->158        -0.19325
     156 ->157         0.68203
     155 <-158        -0.12124
 This state for optimization and/or second-order correction.
 Total Energy, E(TD-HF/TD-DFT) =  -2035.23590911
 Copying the excited state density for this state as the 1-particle RhoCI density.

 Excited State   2:      Singlet-A      2.1191 eV  585.07 nm  f=0.1304  <S**2>=0.000
     155 ->157         0.64518
     156 ->158         0.27991

 Excited State   3:      Singlet-A      3.3519 eV  369.89 nm  f=0.0005  <S**2>=0.000
     152 ->160         0.10294
     153 ->157         0.13785
     154 ->157         0.64953
     154 ->159        -0.13010

 Excited State   4:      Singlet-A      3.5161 eV  352.62 nm  f=0.1371  <S**2>=0.000
     151 ->157         0.41697
     151 ->159         0.28122
     151 ->160         0.17862
     152 ->157        -0.11010
     153 ->157         0.23307
     155 ->157        -0.11925
     156 ->158         0.30849

 Excited State   5:      Singlet-A      3.5308 eV  351.15 nm  f=0.0177  <S**2>=0.000
     152 ->157         0.52968
     152 ->159        -0.23933
     152 ->160         0.19832
     153 ->157         0.16954
     153 ->159        -0.14346
     153 ->160         0.10526
     154 ->157        -0.10462
     154 ->160         0.10167
     156 ->158         0.11281

 The electronic state is 1-A.
 Alpha  occ. eigenvalues --  -46.94866 -19.30871 -19.24668 -19.24018 -19.23749
 Alpha  occ. eigenvalues --  -14.47250 -14.46506 -14.45374 -14.43835 -10.42658
 Alpha  occ. eigenvalues --  -10.39186 -10.39125 -10.35916 -10.35691 -10.35679
 Alpha  occ. eigenvalues --  -10.35630 -10.35301 -10.34919 -10.34909 -10.34778
 Alpha  occ. eigenvalues --  -10.33980 -10.33296 -10.33127 -10.32961 -10.32921
 Alpha  occ. eigenvalues --  -10.32715 -10.32534 -10.32510 -10.32376 -10.32234
 Alpha  occ. eigenvalues --  -10.32033 -10.31871 -10.31285 -10.31194 -10.31164
 Alpha  occ. eigenvalues --  -10.30721 -10.30465 -10.30193 -10.29955 -10.29942
 Alpha  occ. eigenvalues --  -10.29731 -10.29352 -10.29212  -3.20942  -1.94531
 Alpha  occ. eigenvalues --   -1.94067  -1.93932  -1.19124  -1.12216  -1.10877
 Alpha  occ. eigenvalues --   -1.09293  -1.05985  -1.05277  -1.04634  -1.04070
 Alpha  occ. eigenvalues --   -0.93544  -0.90614  -0.90366  -0.90005  -0.89361
 Alpha  occ. eigenvalues --   -0.88949  -0.87552  -0.85947  -0.85062  -0.83702
 Alpha  occ. eigenvalues --   -0.83340  -0.82620  -0.81715  -0.81088  -0.79018
 Alpha  occ. eigenvalues --   -0.78708  -0.77966  -0.77172  -0.74553  -0.73405
 Alpha  occ. eigenvalues --   -0.71162  -0.70662  -0.69535  -0.69107  -0.67831
 Alpha  occ. eigenvalues --   -0.67607  -0.66413  -0.66020  -0.64346  -0.62843
 Alpha  occ. eigenvalues --   -0.61223  -0.60739  -0.60332  -0.59927  -0.59133
 Alpha  occ. eigenvalues --   -0.58154  -0.57260  -0.56949  -0.56465  -0.55723
 Alpha  occ. eigenvalues --   -0.55350  -0.54630  -0.54523  -0.54142  -0.53616
 Alpha  occ. eigenvalues --   -0.53338  -0.53289  -0.52776  -0.52413  -0.51979
 Alpha  occ. eigenvalues --   -0.51894  -0.51710  -0.51409  -0.51163  -0.50731
 Alpha  occ. eigenvalues --   -0.50213  -0.50051  -0.49945  -0.49540  -0.49418
 Alpha  occ. eigenvalues --   -0.48980  -0.48776  -0.48487  -0.48132  -0.47875
 Alpha  occ. eigenvalues --   -0.47489  -0.46906  -0.46744  -0.46680  -0.46341
 Alpha  occ. eigenvalues --   -0.46032  -0.45788  -0.45723  -0.45274  -0.44770
 Alpha  occ. eigenvalues --   -0.44544  -0.44189  -0.44013  -0.43509  -0.43261
 Alpha  occ. eigenvalues --   -0.42709  -0.42605  -0.42383  -0.42069  -0.41306
 Alpha  occ. eigenvalues --   -0.40517  -0.40173  -0.39447  -0.39335  -0.38524
 Alpha  occ. eigenvalues --   -0.37510  -0.36641  -0.36394  -0.35254  -0.33861
 Alpha  occ. eigenvalues --   -0.32967  -0.32599  -0.32481  -0.31504  -0.25820
 Alpha  occ. eigenvalues --   -0.23114
 Alpha virt. eigenvalues --   -0.07347   0.00069   0.02171   0.04148   0.06564
 Alpha virt. eigenvalues --    0.06789   0.07719   0.07900   0.08539   0.10111
 Alpha virt. eigenvalues --    0.10945   0.12188   0.12679   0.13045   0.13540

 Mulliken charges:
               1
     1  Mg   0.990443
     2  C   -0.017359
     3  C   -0.078500
     4  C   -0.086358
     5  C   -0.079847
     6  N   -0.298136
     7  C   -0.019987
     8  C   -0.053025
     9  C   -0.107182
    10  C    0.010841
    11  C    0.015717
    12  C    0.043042
    13  C   -0.139105
    14  H   -0.009624
    15  N   -0.512428
    16  C    0.177396
    17  C   -0.130267
    18  C   -0.070909
    19  C    0.182152
    20  C    0.070255
    21  C    0.029621
    22  O   -0.236677
    23  C   -0.016410
    24  N   -0.420553
    25  C    0.093746
    26  C   -0.078874
    27  C   -0.074206
    28  C    0.102013
    29  C    0.012637
    30  C   -0.031824
    31  C   -0.079640
    32  N   -0.424214
    33  C    0.112384
    34  C   -0.186310
    35  C   -0.110888
    36  C    0.145362
    37  C    0.092661
    38  C    0.193589
    39  O   -0.247706
    40  C   -0.086723
    41  C    0.237151
    42  O   -0.215007
    43  O   -0.372140
    44  C    0.133784
    45  H   -0.004484
    46  H    0.020949
    47  H   -0.003315
    48  H    0.041565
    49  H    0.042930
    50  H    0.048258
    51  H    0.034633
    52  H    0.041318
    53  H    0.049078
    54  H    0.046151
    55  H    0.054721
    56  H    0.060350
    57  H    0.047048
    58  H    0.062949
    59  H    0.044834
    60  H    0.052771
    61  H    0.053683
    62  H    0.038463
    63  H    0.046257
    64  H    0.048437
    65  H    0.040264
    66  H    0.042093
    67  H    0.029152
    68  H    0.043056
    69  H    0.034668
    70  H    0.027516
    71  H    0.051967
    72  H    0.040934
    73  H    0.063924
    74  H    0.026445
    75  H    0.068695
    76  H    0.067084
    77  H    0.050132
    78  H    0.052098
    79  H    0.076477
 Sum of Mulliken charges =  -0.00000

 Dipole moment (field-independent basis, Debye):
    X=             -2.2027    Y=             -4.2551    Z=              0.4117  Tot=              4.8091
 Quadrupole moment (field-independent basis, Debye-Ang):
   XX=           -270.9144   YY=           -224.1329   ZZ=           -260.0214
   XY=            -24.7448   XZ=              6.2198   YZ=              7.1343

 Normal termination of Gaussian 16 at Sun Sep 19 17:15:25 2021.
