 Gaussian 16, Revision A.03,
 Gaussian 16:  ES64L-G16RevA.03 25-Dec-2016

 --------------------------------
 #p wB97XD/Def2SVP td=(nstates=5)
 --------------------------------

 --------------------------------
 TDDFT excited states in gaussian
 --------------------------------
 Symbolic Z-matrix:
 Charge =  0 Multiplicity = 1

                         Standard orientation:
 ---------------------------------------------------------------------
 Center     Atomic      Atomic             Coordinates (Angstroms)
 Number     Number       Type             X           Y           Z
 ---------------------------------------------------------------------
      1         12           0      -23.173256    0.633401    0.370066
      2          6           0      -22.358655   -2.465392   -1.032377
      3          6           0      -22.390409    2.013748   -2.715349
      4          6           0      -23.509428    3.548175    1.770906
      5          6           0      -23.685691   -1.010074    3.465236
      6          7           0      -22.052709   -0.110252   -1.569576
      7          6           0      -22.000171   -1.398507   -1.923215
      8          6           0      -21.540741   -1.461990   -3.341504
      9          6           0      -21.140283   -0.010009   -3.700607
     10          6           0      -21.924248    0.712346   -2.622920
     11          6           0      -19.663082    0.385134   -3.741873
     12          6           0      -22.652968   -2.009550   -4.291236
     13          6           0      -22.296758   -3.152860   -5.295496
     14          1           0      -20.841386   -3.252563   -5.849890
     15          7           0      -23.118775    2.558826   -0.425878
     16          6           0      -22.958773    2.860865   -1.771737
     17          6           0      -23.130156    4.272006   -1.893750
     18          6           0      -23.336431    4.793052   -0.553785
     19          6           0      -23.344615    3.648936    0.345559
     20          6           0      -22.972434    5.064804   -3.209688
     21          6           0      -23.461837    6.264917   -0.065512
     22          8           0      -23.611409    6.587884    1.070153
     23          6           0      -23.451930    7.326290   -1.147997
     24          7           0      -23.554703    1.146292    2.329699
     25          6           0      -23.584606    2.453019    2.674593
     26          6           0      -23.861303    2.700774    4.183112
     27          6           0      -24.181980    1.215558    4.648108
     28          6           0      -23.823685    0.374335    3.428760
     29          6           0      -22.573736    3.415094    4.896241
     30          6           0      -25.617800    1.036646    5.233953
     31          6           0      -26.695895    0.488721    4.316109
     32          7           0      -23.103716   -1.348046    1.142378
     33          6           0      -23.419255   -1.856603    2.373378
     34          6           0      -23.268596   -3.352964    2.313983
     35          6           0      -22.855604   -3.611994    0.987502
     36          6           0      -22.720593   -2.362457    0.296531
     37          6           0      -23.343345   -4.332819    3.453322
     38          6           0      -22.481784   -4.661016    0.042054
     39          8           0      -22.420992   -5.877426    0.242618
     40          6           0      -22.315909   -3.961909   -1.303974
     41          6           0      -20.988690   -4.418651   -1.838339
     42          8           0      -19.904696   -3.999930   -1.475516
     43          8           0      -21.249890   -5.464536   -2.605105
     44          6           0      -20.157678   -6.367602   -2.932331
     45          1           0      -22.010593    2.467273   -3.632722
     46          1           0      -23.803450    4.498890    2.219818
     47          1           0      -23.858857   -1.517299    4.416978
     48          1           0      -20.690860   -2.141164   -3.400822
     49          1           0      -21.490795    0.153380   -4.719781
     50          1           0      -18.943052   -0.411363   -3.553285
     51          1           0      -19.466718    1.184190   -3.026448
     52          1           0      -19.485476    0.776102   -4.743478
     53          1           0      -23.186629   -1.228295   -4.832080
     54          1           0      -23.347976   -2.384869   -3.540231
     55          1           0      -22.972197   -2.971163   -6.132432
     56          1           0      -22.541664   -4.108745   -4.833160
     57          1           0      -22.271399    5.895767   -3.130642
     58          1           0      -23.890216    5.578844   -3.495663
     59          1           0      -22.686158    4.459165   -4.070558
     60          1           0      -24.167043    7.123690   -1.945553
     61          1           0      -22.429448    7.422991   -1.513285
     62          1           0      -23.607879    8.313039   -0.712023
     63          1           0      -24.720762    3.349942    4.349583
     64          1           0      -23.563616    0.887041    5.483334
     65          1           0      -22.142046    2.630711    5.518067
     66          1           0      -22.848369    4.183366    5.619378
     67          1           0      -21.784995    3.706390    4.201683
     68          1           0      -25.943882    2.057479    5.433615
     69          1           0      -25.619732    0.486940    6.174965
     70          1           0      -26.538946    1.023750    3.378720
     71          1           0      -27.597975    0.787142    4.849728
     72          1           0      -26.692314   -0.557621    4.011812
     73          1           0      -23.453893   -3.948733    4.467448
     74          1           0      -22.433940   -4.933711    3.467917
     75          1           0      -24.142902   -5.020912    3.180661
     76          1           0      -22.997910   -4.302734   -2.083206
     77          1           0      -19.179434   -6.231370   -2.472378
     78          1           0      -19.996133   -6.167120   -3.991932
     79          1           0      -20.576285   -7.361495   -3.091076
     80         12           0       23.075066    0.405343   -0.444974
     81          6           0       21.429247   -2.389638    0.578339
     82          6           0       19.946143    1.879407   -1.183530
     83          6           0       24.576106    3.388476   -0.400416
     84          6           0       26.158335   -0.967581    0.839999
     85          7           0       20.997258   -0.227307   -0.326490
     86          6           0       20.509656   -1.343649    0.103331
     87          6           0       18.982562   -1.518876   -0.216687
     88          6           0       18.601283   -0.237214   -1.051037
     89          6           0       19.939168    0.566386   -0.904227
     90          6           0       18.013336   -0.481002   -2.441620
     91          6           0       18.090840   -1.778299    1.137728
     92          6           0       18.642724   -1.311980    2.475163
     93          1           0       17.714531   -1.118014    3.674206
     94          7           0       22.343697    2.360924   -0.743495
     95          6           0       21.076903    2.759120   -1.097136
     96          6           0       21.031443    4.153423   -1.193283
     97          6           0       22.364172    4.655893   -0.930977
     98          6           0       23.177438    3.448196   -0.630453
     99          6           0       19.784871    4.859226   -1.694591
    100          6           0       22.747813    6.146440   -0.961083
    101          8           0       21.847789    6.974436   -1.227127
    102          6           0       24.054947    6.679655   -0.707061
    103          7           0       25.106358    1.161130    0.307388
    104          6           0       25.441829    2.379948   -0.007561
    105          6           0       26.952413    2.672910    0.218459
    106          6           0       27.481394    1.264510    0.567119
    107          6           0       26.192051    0.347556    0.573086
    108          6           0       27.654438    3.242786   -0.960995
    109          6           0       28.301656    1.231273    1.941720
    110          6           0       29.859080    0.969690    1.818789
    111          7           0       23.767559   -1.337943    0.410102
    112          6           0       25.014688   -1.798110    0.850908
    113          6           0       24.862932   -3.210418    1.320733
    114          6           0       23.478907   -3.426015    1.258334
    115          6           0       22.841823   -2.262060    0.734671
    116          6           0       25.875324   -4.131252    1.801613
    117          6           0       22.529303   -4.388852    1.583076
    118          8           0       22.594966   -5.537809    2.044189
    119          6           0       21.175555   -3.813614    1.078145
    120          6           0       20.567823   -4.823466    0.075778
    121          8           0       19.456370   -5.323676    0.107536
    122          8           0       21.443254   -5.138405   -0.940950
    123          6           0       21.001055   -6.118669   -1.939844
    124          1           0       18.934508    2.261019   -1.335534
    125          1           0       25.155712    4.305203   -0.525773
    126          1           0       27.123103   -1.427366    1.063727
    127          1           0       18.917301   -2.328809   -0.943710
    128          1           0       17.882482    0.394585   -0.528330
    129          1           0       18.699493   -0.105142   -3.200329
    130          1           0       17.066697    0.040868   -2.586419
    131          1           0       17.750985   -1.514060   -2.669973
    132          1           0       17.924947   -2.854108    1.076304
    133          1           0       17.125403   -1.272466    1.162796
    134          1           0       19.113226   -0.361487    2.224942
    135          1           0       19.449404   -2.007670    2.706911
    136          1           0       19.844783    5.515429   -2.563260
    137          1           0       19.321372    5.380878   -0.856917
    138          1           0       19.042579    4.110101   -1.969445
    139          1           0       24.864873    6.380994   -1.372348
    140          1           0       24.442046    6.298962    0.237565
    141          1           0       24.067664    7.760352   -0.568992
    142          1           0       27.236686    3.380021    0.997633
    143          1           0       28.075947    0.818400   -0.230213
    144          1           0       27.874957    4.308181   -0.896475
    145          1           0       26.998762    3.248745   -1.832451
    146          1           0       28.579631    2.697712   -1.147400
    147          1           0       27.942415    0.382822    2.525691
    148          1           0       28.278159    2.164364    2.503022
    149          1           0       30.398868    1.678070    2.445968
    150          1           0       30.160939    1.226154    0.803224
    151          1           0       30.005427   -0.032517    2.222033
    152          1           0       26.776320   -3.848022    1.256971
    153          1           0       25.609060   -5.159403    1.553828
    154          1           0       25.880881   -4.036748    2.887091
    155          1           0       20.375452   -3.889487    1.814113
    156          1           0       21.885020   -6.575259   -2.385482
    157          1           0       20.439361   -5.758183   -2.801463
    158          1           0       20.317167   -6.871001   -1.545816
 ---------------------------------------------------------------------

 SCF Done:  E(RwB97XD) =  -4070.57519369     A.U. after   19 cycles

 Excitation energies and oscillator strengths:

 Excited State   1:      Singlet-A      1.6548 eV  749.24 nm  f=0.4165  <S**2>=0.000
     309 -> 315        0.16629
     311 -> 313        0.68653
     309 <- 315        0.11150
 This state for optimization and/or second-order correction.
 Total Energy, E(TD-HF/TD-DFT) =  -4070.51438132
 Copying the excited state density for this state as the 1-particle RhoCI density.

 Excited State   2:      Singlet-A      1.6771 eV  739.26 nm  f=0.4099  <S**2>=0.000
     310 -> 316        0.19183
     312 -> 314        0.68153
     310 <- 316        0.11862

 Excited State   3:      Singlet-A      2.1599 eV  574.03 nm  f=0.0976  <S**2>=0.000
     310 -> 314        0.64020
     312 -> 316       -0.28501

 Excited State   4:      Singlet-A      2.1980 eV  564.07 nm  f=0.1161  <S**2>=0.000
     309 -> 313        0.64044
     311 -> 315       -0.27516

 Excited State   5:      Singlet-A      3.2250 eV  384.45 nm  f=0.0080  <S**2>=0.000
     302 -> 313        0.15899
     307 -> 313        0.66799
     307 -> 317        0.10502

 The electronic state is 1-A.
 Alpha  occ. eigenvalues --  -46.96675 -46.95110 -19.31492 -19.30173 -19.25101
 Alpha  occ. eigenvalues --  -19.24622 -19.24535 -19.24125 -19.23546 -19.22394
 Alpha  occ. eigenvalues --  -14.47812 -14.46505 -14.46343 -14.46167 -14.45185
 Alpha  occ. eigenvalues --  -14.44380 -14.43935 -14.43280 -10.43637 -10.43023
 Alpha  occ. eigenvalues --  -10.39543 -10.38806 -10.38372 -10.38164 -10.37079
 Alpha  occ. eigenvalues --  -10.35920 -10.35806 -10.35336 -10.35304 -10.35284
 Alpha  occ. eigenvalues --  -10.35120 -10.34767 -10.34752 -10.34736 -10.34700
 Alpha  occ. eigenvalues --  -10.34619 -10.34485 -10.33870 -10.33682 -10.33611
 Alpha  occ. eigenvalues --  -10.33526 -10.33517 -10.33467 -10.33368 -10.33332
 Alpha  occ. eigenvalues --  -10.32950 -10.32926 -10.32897 -10.32558 -10.32419
 Alpha  occ. eigenvalues --  -10.32396 -10.32386 -10.32368 -10.32345 -10.32116
 Alpha  occ. eigenvalues --  -10.31738 -10.31604 -10.31600 -10.31172 -10.31149
 Alpha  occ. eigenvalues --  -10.31129 -10.31103 -10.31076 -10.31063 -10.31025
 Alpha  occ. eigenvalues --  -10.30847 -10.30798 -10.30744 -10.30699 -10.30610
 Alpha  occ. eigenvalues --  -10.30582 -10.30407 -10.30320 -10.30260 -10.30252
 Alpha  occ. eigenvalues --  -10.29999 -10.29931 -10.29922 -10.29861 -10.29784
 Alpha  occ. eigenvalues --  -10.29738 -10.29466 -10.29195 -10.29020 -10.28876
 Alpha  occ. eigenvalues --  -10.28774  -3.22547  -3.21017  -1.96108  -1.95698
 Alpha  occ. eigenvalues --   -1.95479  -1.94612  -1.94175  -1.93945  -1.20549
 Alpha  occ. eigenvalues --   -1.18357  -1.13500  -1.11905  -1.11371  -1.10880
 Alpha  occ. eigenvalues --   -1.09764  -1.09610  -1.07063  -1.07007  -1.06520
 Alpha  occ. eigenvalues --   -1.05762  -1.05728  -1.04659  -1.04237  -1.03840
 Alpha  occ. eigenvalues --   -0.95389  -0.95058  -0.91617  -0.91292  -0.90916
 Alpha  occ. eigenvalues --   -0.90574  -0.90470  -0.90335  -0.89917  -0.89691
 Alpha  occ. eigenvalues --   -0.89012  -0.88216  -0.87415  -0.87197  -0.86566
 Alpha  occ. eigenvalues --   -0.86365  -0.86070  -0.85601  -0.84831  -0.84489
 Alpha  occ. eigenvalues --   -0.84413  -0.83452  -0.83332  -0.82686  -0.82271
 Alpha  occ. eigenvalues --   -0.81944  -0.80451  -0.79859  -0.79346  -0.79293
 Alpha  occ. eigenvalues --   -0.78892  -0.78876  -0.78303  -0.78211  -0.77223
 Alpha  occ. eigenvalues --   -0.77018  -0.75413  -0.74676  -0.73948  -0.73676
 Alpha  occ. eigenvalues --   -0.71623  -0.71445  -0.70872  -0.70847  -0.70349
 Alpha  occ. eigenvalues --   -0.69984  -0.68827  -0.68048  -0.67951  -0.67637
 Alpha  occ. eigenvalues --   -0.67230  -0.66889  -0.66833  -0.66611  -0.66547
 Alpha  occ. eigenvalues --   -0.66321  -0.65361  -0.64797  -0.62895  -0.61993
 Alpha  occ. eigenvalues --   -0.61819  -0.61636  -0.61162  -0.60928  -0.60531
 Alpha  occ. eigenvalues --   -0.60464  -0.60089  -0.60015  -0.59287  -0.59235
 Alpha  occ. eigenvalues --   -0.58820  -0.58297  -0.57986  -0.57611  -0.57599
 Alpha  occ. eigenvalues --   -0.56901  -0.56746  -0.56727  -0.56629  -0.56490
 Alpha  occ. eigenvalues --   -0.55847  -0.55575  -0.55436  -0.55206  -0.55194
 Alpha  occ. eigenvalues --   -0.54815  -0.54792  -0.54599  -0.54433  -0.54167
 Alpha  occ. eigenvalues --   -0.53879  -0.53590  -0.53414  -0.53325  -0.53258
 Alpha  occ. eigenvalues --   -0.53127  -0.52980  -0.52844  -0.52609  -0.52257
 Alpha  occ. eigenvalues --   -0.52115  -0.51901  -0.51608  -0.51479  -0.51305
 Alpha  occ. eigenvalues --   -0.51165  -0.51088  -0.50926  -0.50753  -0.50742
 Alpha  occ. eigenvalues --   -0.50612  -0.50477  -0.50295  -0.50253  -0.49999
 Alpha  occ. eigenvalues --   -0.49871  -0.49565  -0.49343  -0.49240  -0.49125
 Alpha  occ. eigenvalues --   -0.48806  -0.48800  -0.48740  -0.48305  -0.48108
 Alpha  occ. eigenvalues --   -0.47911  -0.47854  -0.47816  -0.47775  -0.47662
 Alpha  occ. eigenvalues --   -0.47582  -0.47518  -0.47307  -0.47188  -0.46970
 Alpha  occ. eigenvalues --   -0.46939  -0.46831  -0.46729  -0.46539  -0.46411
 Alpha  occ. eigenvalues --   -0.46389  -0.45747  -0.45690  -0.45574  -0.45311
 Alpha  occ. eigenvalues --   -0.45150  -0.45013  -0.44885  -0.44705  -0.44620
 Alpha  occ. eigenvalues --   -0.44550  -0.44176  -0.44087  -0.44065  -0.43892
 Alpha  occ. eigenvalues --   -0.43693  -0.43530  -0.43418  -0.43091  -0.42935
 Alpha  occ. eigenvalues --   -0.42873  -0.42756  -0.42614  -0.42581  -0.42149
 Alpha  occ. eigenvalues --   -0.41976  -0.41761  -0.41521  -0.41179  -0.40978
 Alpha  occ. eigenvalues --   -0.40671  -0.40270  -0.40107  -0.39801  -0.39173
 Alpha  occ. eigenvalues --   -0.39007  -0.38814  -0.38770  -0.38511  -0.38410
 Alpha  occ. eigenvalues --   -0.38404  -0.38130  -0.36813  -0.36398  -0.36319
 Alpha  occ. eigenvalues --   -0.36246  -0.36071  -0.35325  -0.33794  -0.33432
 Alpha  occ. eigenvalues --   -0.33195  -0.33139  -0.32986  -0.32260  -0.32135
 Alpha  occ. eigenvalues --   -0.32019  -0.31133  -0.31057  -0.26869  -0.25703
 Alpha  occ. eigenvalues --   -0.23476  -0.22863
 Alpha virt. eigenvalues --   -0.07882  -0.06815   0.00031   0.00412   0.01996
 Alpha virt. eigenvalues --    0.02232   0.03810   0.04358   0.05004   0.05906
 Alpha virt. eigenvalues --    0.07194   0.07609   0.07709   0.07882   0.08030

 Mulliken charges:
               1
     1  Mg   0.943562
     2  C   -0.010054
     3  C   -0.053621
     4  C   -0.049918
     5  C   -0.089524
     6  N   -0.281386
     7  C    0.032899
     8  C   -0.102551
     9  C   -0.078961
    10  C   -0.023351
    11  C    0.044032
    12  C   -0.007993
    13  C   -0.108864
    14  H    0.034719
    15  N   -0.486481
    16  C    0.194410
    17  C   -0.162095
    18  C   -0.110873
    19  C    0.127525
    20  C    0.066832
    21  C    0.057657
    22  O   -0.197954
    23  C   -0.025243
    24  N   -0.388289
    25  C    0.068175
    26  C   -0.106313
    27  C   -0.052078
    28  C    0.081488
    29  C    0.014968
    30  C   -0.034364
    31  C   -0.035109
    32  N   -0.430864
    33  C    0.126532
    34  C   -0.181579
    35  C   -0.031538
    36  C    0.144810
    37  C    0.071988
    38  C    0.142858
    39  O   -0.213874
    40  C   -0.092621
    41  C    0.223634
    42  O   -0.247786
    43  O   -0.327087
    44  C    0.146660
    45  H   -0.006208
    46  H    0.024717
    47  H   -0.006536
    48  H    0.040489
    49  H    0.020969
    50  H    0.046985
    51  H    0.041509
    52  H    0.029947
    53  H    0.038437
    54  H    0.025565
    55  H    0.052979
    56  H    0.060564
    57  H    0.037156
    58  H    0.040616
    59  H    0.034205
    60  H    0.057479
    61  H    0.052203
    62  H    0.039929
    63  H    0.050012
    64  H    0.031443
    65  H    0.019140
    66  H    0.045897
    67  H    0.059003
    68  H    0.022761
    69  H    0.029636
    70  H    0.030053
    71  H    0.044282
    72  H    0.041670
    73  H    0.038413
    74  H    0.061903
    75  H    0.059400
    76  H    0.073382
    77  H    0.085502
    78  H    0.026928
    79  H    0.057191
    80  Mg   0.957064
    81  C    0.004232
    82  C   -0.072063
    83  C   -0.044033
    84  C   -0.099237
    85  N   -0.349367
    86  C    0.010857
    87  C   -0.050794
    88  C   -0.100559
    89  C    0.039637
    90  C    0.023939
    91  C   -0.030628
    92  C   -0.101553
    93  H    0.062383
    94  N   -0.458880
    95  C    0.154429
    96  C   -0.150826
    97  C   -0.094579
    98  C    0.205363
    99  C    0.091822
   100  C    0.063209
   101  O   -0.267829
   102  C   -0.000104
   103  N   -0.297954
   104  C    0.011039
   105  C   -0.080723
   106  C   -0.045988
   107  C    0.048409
   108  C    0.002578
   109  C   -0.042799
   110  C   -0.065010
   111  N   -0.464639
   112  C    0.133538
   113  C   -0.171347
   114  C   -0.013195
   115  C    0.155653
   116  C    0.081430
   117  C    0.117949
   118  O   -0.220267
   119  C   -0.108036
   120  C    0.242637
   121  O   -0.244039
   122  O   -0.368865
   123  C    0.139798
   124  H    0.011741
   125  H   -0.042733
   126  H    0.000699
   127  H    0.052513
   128  H    0.038608
   129  H    0.039458
   130  H    0.034763
   131  H    0.041345
   132  H    0.057301
   133  H    0.041191
   134  H    0.052191
   135  H    0.036550
   136  H    0.060590
   137  H    0.046879
   138  H    0.000139
   139  H    0.063475
   140  H    0.040930
   141  H    0.054677
   142  H    0.045309
   143  H    0.032488
   144  H    0.028503
   145  H    0.031369
   146  H    0.039478
   147  H    0.036144
   148  H    0.041011
   149  H    0.033304
   150  H    0.036180
   151  H    0.047804
   152  H    0.043715
   153  H    0.066862
   154  H    0.074604
   155  H    0.058568
   156  H    0.052696
   157  H    0.037435
   158  H    0.061563
 Sum of Mulliken charges =  -0.00000

 Dipole moment (field-independent basis, Debye):
    X=              3.2991    Y=              0.0383    Z=             -4.9450  Tot=              5.9446
 Quadrupole moment (field-independent basis, Debye-Ang):
   XX=           -217.8450   YY=           -577.2285   ZZ=           -469.2187
   XY=             17.1594   XZ=             -6.2829   YZ=             21.5499

 Normal termination of Gaussian 16 at Mon Sep 20 19:20:45 2021.
