 Gaussian 16, Revision A.03,
 Gaussian 16:  ES64L-G16RevA.03 25-Dec-2016

 --------------------------------
 #p wB97XD/Def2SVP td=(nstates=5)
 --------------------------------

 --------------------------------
 TDDFT excited states in gaussian
 --------------------------------
 Symbolic Z-matrix:
 Charge =  0 Multiplicity = 1

                         Standard orientation:
 ---------------------------------------------------------------------
 Center     Atomic      Atomic             Coordinates (Angstroms)
 Number     Number       Type             X           Y           Z
 ---------------------------------------------------------------------
      1         12           0      -19.651860    0.808616    0.384481
      2          6           0      -18.907790   -2.094485   -1.578473
      3          6           0      -20.632543   -1.436839    2.922149
      4          6           0      -21.040190    3.273306    2.028259
      5          6           0      -18.989689    2.754152   -2.324557
      6          7           0      -19.694888   -1.492361    0.623385
      7          6           0      -19.235701   -2.379179   -0.292038
      8          6           0      -19.221133   -3.762465    0.337362
      9          6           0      -19.736794   -3.630914    1.798166
     10          6           0      -20.012088   -2.114980    1.816566
     11          6           0      -21.024709   -4.577393    2.126030
     12          6           0      -17.776419   -4.423244    0.336487
     13          6           0      -17.685233   -5.868180   -0.155234
     14          1           0      -18.867141   -6.889366    0.091987
     15          7           0      -20.749829    0.895520    2.216593
     16          6           0      -20.992353   -0.085202    3.060234
     17          6           0      -21.736223    0.467063    4.157098
     18          6           0      -21.775299    1.880549    4.051501
     19          6           0      -21.220006    2.062092    2.735892
     20          6           0      -22.110682   -0.347769    5.394025
     21          6           0      -22.161833    3.007093    4.996950
     22          8           0      -22.180429    4.177073    4.661061
     23          6           0      -22.467576    2.605491    6.413699
     24          7           0      -20.278454    2.656066   -0.240973
     25          6           0      -20.658452    3.590360    0.724322
     26          6           0      -20.557628    5.057323    0.224967
     27          6           0      -19.744067    4.814541   -1.101882
     28          6           0      -19.650880    3.295724   -1.247615
     29          6           0      -21.953317    5.674508    0.054391
     30          6           0      -18.246765    5.380608   -1.047740
     31          6           0      -17.928501    6.624327   -1.807922
     32          7           0      -18.973575    0.464128   -1.484901
     33          6           0      -18.781088    1.374403   -2.501607
     34          6           0      -18.426637    0.741303   -3.769204
     35          6           0      -18.456558   -0.664335   -3.455410
     36          6           0      -18.907622   -0.773635   -2.118819
     37          6           0      -17.943775    1.478593   -4.965526
     38          6           0      -18.163521   -2.000850   -3.949772
     39          8           0      -17.724003   -2.306185   -5.073347
     40          6           0      -18.481707   -3.033380   -2.725011
     41          6           0      -19.548729   -3.885717   -3.225142
     42          8           0      -20.608137   -3.466415   -3.637195
     43          8           0      -19.214529   -5.179926   -3.159553
     44          6           0      -20.113581   -6.263991   -3.665776
     45          1           0      -20.880786   -2.081389    3.767851
     46          1           0      -21.080763    4.179404    2.637441
     47          1           0      -18.708084    3.424458   -3.138992
     48          1           0      -19.927394   -4.374712   -0.223419
     49          1           0      -19.005470   -3.989262    2.522832
     50          1           0      -21.073348   -5.419364    1.435442
     51          1           0      -21.885513   -3.914060    2.037833
     52          1           0      -20.964488   -4.935526    3.153623
     53          1           0      -17.240454   -4.364182    1.282786
     54          1           0      -17.133122   -3.873727   -0.350648
     55          1           0      -16.788034   -6.363189    0.216983
     56          1           0      -17.505686   -5.744460   -1.223208
     57          1           0      -21.419313   -0.234866    6.229274
     58          1           0      -22.307338   -1.390789    5.144132
     59          1           0      -23.087361    0.018620    5.709377
     60          1           0      -21.806522    1.847522    6.835007
     61          1           0      -23.476245    2.227381    6.574233
     62          1           0      -22.212763    3.432645    7.076311
     63          1           0      -20.001569    5.616720    0.976785
     64          1           0      -20.283888    5.297443   -1.916543
     65          1           0      -22.764908    5.079255    0.472604
     66          1           0      -22.211717    5.799885   -0.996503
     67          1           0      -21.966847    6.662228    0.516344
     68          1           0      -17.482358    4.686805   -1.397581
     69          1           0      -17.897910    5.545076   -0.028920
     70          1           0      -17.638499    7.420211   -1.123132
     71          1           0      -18.870786    6.852664   -2.306328
     72          1           0      -17.105162    6.448563   -2.500186
     73          1           0      -17.193961    0.905107   -5.509438
     74          1           0      -17.633583    2.461711   -4.611943
     75          1           0      -18.808534    1.613377   -5.616675
     76          1           0      -17.617471   -3.649861   -2.481417
     77          1           0      -20.437753   -6.020985   -4.677856
     78          1           0      -21.005768   -6.389951   -3.051901
     79          1           0      -19.682684   -7.261922   -3.589626
     80         12           0       20.343325    0.531379    0.014713
     81          6           0       17.801887   -1.884132    0.048874
     82          6           0       22.473709   -1.835977    1.322879
     83          6           0       22.710459    2.830985    0.001798
     84          6           0       17.986842    2.852402   -1.169572
     85          7           0       20.121631   -1.615480    0.513992
     86          6           0       18.993017   -2.434745    0.481604
     87          6           0       19.329882   -3.968467    0.648576
     88          6           0       20.743205   -3.837683    1.182542
     89          6           0       21.167698   -2.322763    0.993950
     90          6           0       20.785943   -4.143031    2.749767
     91          6           0       19.342641   -4.525108   -0.844076
     92          6           0       18.675443   -5.948928   -1.092439
     93          1           0       18.877643   -6.822242    0.119380
     94          7           0       22.221570    0.529049    0.706187
     95          6           0       22.920246   -0.487746    1.203265
     96          6           0       24.278216   -0.127443    1.514354
     97          6           0       24.443372    1.165882    0.980298
     98          6           0       23.055576    1.604384    0.572758
     99          6           0       25.285743   -0.996365    2.173572
    100          6           0       25.700099    1.975566    0.735931
    101          8           0       25.718474    2.989821    0.029282
    102          6           0       26.996819    1.610678    1.463919
    103          7           0       20.310760    2.595258   -0.476706
    104          6           0       21.506909    3.272470   -0.444076
    105          6           0       21.295971    4.654233   -1.059388
    106          6           0       19.771634    4.640838   -1.564885
    107          6           0       19.311107    3.279070   -1.115617
    108          6           0       21.714389    5.764308   -0.031631
    109          6           0       19.532121    4.932555   -3.037958
    110          6           0       18.484851    6.061424   -3.293021
    111          7           0       18.312940    0.504020   -0.439890
    112          6           0       17.461524    1.555158   -0.904470
    113          6           0       16.129280    1.086127   -1.044545
    114          6           0       16.237890   -0.265964   -0.678100
    115          6           0       17.564373   -0.531381   -0.279305
    116          6           0       14.892785    1.783373   -1.512909
    117          6           0       15.522348   -1.493178   -0.533491
    118          8           0       14.360408   -1.789184   -0.685207
    119          6           0       16.550296   -2.599201   -0.162261
    120          6           0       16.020370   -3.384522    0.982032
    121          8           0       15.901831   -3.022252    2.149140
    122          8           0       15.740404   -4.605468    0.515872
    123          6           0       15.282618   -5.585888    1.477936
    124          1           0       23.281800   -2.514016    1.604741
    125          1           0       23.534566    3.548112    0.033434
    126          1           0       17.236489    3.522448   -1.594537
    127          1           0       18.492014   -4.378701    1.211455
    128          1           0       21.420078   -4.476732    0.616468
    129          1           0       19.799106   -4.362295    3.157892
    130          1           0       21.193620   -3.268768    3.256908
    131          1           0       21.467208   -4.989804    2.833881
    132          1           0       20.345902   -4.631186   -1.255705
    133          1           0       18.857417   -3.762655   -1.454001
    134          1           0       19.235532   -6.508749   -1.841530
    135          1           0       17.691686   -5.855159   -1.553088
    136          1           0       26.039540   -1.223657    1.418532
    137          1           0       24.847653   -1.939324    2.497715
    138          1           0       25.768044   -0.526709    3.030325
    139          1           0       27.532241    2.554349    1.362037
    140          1           0       27.522917    0.758440    1.032170
    141          1           0       26.940701    1.464420    2.542437
    142          1           0       21.912100    4.882890   -1.928939
    143          1           0       19.213745    5.377067   -0.986097
    144          1           0       22.315132    6.476127   -0.597889
    145          1           0       22.236167    5.382105    0.845791
    146          1           0       20.873539    6.415081    0.211183
    147          1           0       19.235555    4.063632   -3.624590
    148          1           0       20.464672    5.392722   -3.367649
    149          1           0       18.188739    6.531725   -2.355204
    150          1           0       17.531167    5.656707   -3.631224
    151          1           0       18.879926    6.824554   -3.963896
    152          1           0       15.075357    1.837435   -2.586506
    153          1           0       14.841728    2.724591   -0.965990
    154          1           0       13.995755    1.181914   -1.372522
    155          1           0       16.510867   -3.269666   -1.021798
    156          1           0       14.425520   -5.195869    2.027620
    157          1           0       15.978288   -5.856414    2.272982
    158          1           0       14.988975   -6.461742    0.899076
 ---------------------------------------------------------------------

 SCF Done:  E(RwB97XD) =  -4070.62847144     A.U. after   19 cycles

 Excitation energies and oscillator strengths:

 Excited State   1:      Singlet-A      1.6236 eV  763.66 nm  f=0.4038  <S**2>=0.000
     310 -> 316        0.17886
     312 -> 313        0.68450
     310 <- 316        0.11640
 This state for optimization and/or second-order correction.
 Total Energy, E(TD-HF/TD-DFT) =  -4070.56880698
 Copying the excited state density for this state as the 1-particle RhoCI density.

 Excited State   2:      Singlet-A      1.6810 eV  737.54 nm  f=0.3816  <S**2>=0.000
     309 -> 315       -0.16572
     311 -> 314        0.68555
     309 <- 315       -0.10525

 Excited State   3:      Singlet-A      2.1424 eV  578.71 nm  f=0.1278  <S**2>=0.000
     310 -> 313        0.64800
     312 -> 316       -0.26642

 Excited State   4:      Singlet-A      2.2343 eV  554.92 nm  f=0.1201  <S**2>=0.000
     309 -> 314        0.63517
     311 -> 315        0.28433

 Excited State   5:      Singlet-A      3.3486 eV  370.26 nm  f=0.0016  <S**2>=0.000
     305 -> 313       -0.11114
     307 -> 313        0.67184

 The electronic state is 1-A.
 Alpha  occ. eigenvalues --  -46.94930 -46.94119 -19.30450 -19.30424 -19.25017
 Alpha  occ. eigenvalues --  -19.24515 -19.24070 -19.23728 -19.23411 -19.22382
 Alpha  occ. eigenvalues --  -14.46853 -14.46451 -14.46269 -14.46228 -14.44862
 Alpha  occ. eigenvalues --  -14.43961 -14.43618 -14.43031 -10.42272 -10.42143
 Alpha  occ. eigenvalues --  -10.40278 -10.39714 -10.39495 -10.37100 -10.36243
 Alpha  occ. eigenvalues --  -10.36005 -10.35334 -10.35151 -10.35091 -10.34752
 Alpha  occ. eigenvalues --  -10.34749 -10.34748 -10.34467 -10.34462 -10.34233
 Alpha  occ. eigenvalues --  -10.34058 -10.33637 -10.33572 -10.33296 -10.33170
 Alpha  occ. eigenvalues --  -10.32982 -10.32969 -10.32869 -10.32701 -10.32591
 Alpha  occ. eigenvalues --  -10.32508 -10.32398 -10.32295 -10.32224 -10.32171
 Alpha  occ. eigenvalues --  -10.32125 -10.31955 -10.31825 -10.31816 -10.31800
 Alpha  occ. eigenvalues --  -10.31638 -10.31636 -10.31610 -10.31430 -10.31127
 Alpha  occ. eigenvalues --  -10.31114 -10.31105 -10.31100 -10.30926 -10.30690
 Alpha  occ. eigenvalues --  -10.30619 -10.30598 -10.30571 -10.30556 -10.30270
 Alpha  occ. eigenvalues --  -10.30219 -10.30164 -10.30139 -10.29956 -10.29913
 Alpha  occ. eigenvalues --  -10.29909 -10.29890 -10.29702 -10.29619 -10.29608
 Alpha  occ. eigenvalues --  -10.29591 -10.29583 -10.29272 -10.29238 -10.28771
 Alpha  occ. eigenvalues --  -10.27546  -3.20995  -3.20237  -1.94550  -1.94127
 Alpha  occ. eigenvalues --   -1.93973  -1.93844  -1.93347  -1.93242  -1.19268
 Alpha  occ. eigenvalues --   -1.18687  -1.13021  -1.12633  -1.11537  -1.10657
 Alpha  occ. eigenvalues --   -1.09519  -1.09250  -1.07085  -1.06645  -1.05902
 Alpha  occ. eigenvalues --   -1.05483  -1.05105  -1.04918  -1.04359  -1.03890
 Alpha  occ. eigenvalues --   -0.94597  -0.94102  -0.91617  -0.90470  -0.90417
 Alpha  occ. eigenvalues --   -0.90292  -0.90117  -0.89928  -0.89897  -0.89019
 Alpha  occ. eigenvalues --   -0.88942  -0.88915  -0.88587  -0.88325  -0.86113
 Alpha  occ. eigenvalues --   -0.85974  -0.85879  -0.85424  -0.84522  -0.84262
 Alpha  occ. eigenvalues --   -0.83774  -0.83711  -0.83214  -0.83189  -0.82622
 Alpha  occ. eigenvalues --   -0.82318  -0.80916  -0.80188  -0.79567  -0.79338
 Alpha  occ. eigenvalues --   -0.78763  -0.78676  -0.78144  -0.77506  -0.76915
 Alpha  occ. eigenvalues --   -0.76751  -0.75087  -0.74444  -0.73391  -0.73361
 Alpha  occ. eigenvalues --   -0.71175  -0.70792  -0.70710  -0.69714  -0.69612
 Alpha  occ. eigenvalues --   -0.69572  -0.69333  -0.68885  -0.67437  -0.67373
 Alpha  occ. eigenvalues --   -0.67167  -0.67060  -0.66998  -0.66591  -0.66489
 Alpha  occ. eigenvalues --   -0.66453  -0.64432  -0.64374  -0.62832  -0.62456
 Alpha  occ. eigenvalues --   -0.61541  -0.61152  -0.61138  -0.60785  -0.60605
 Alpha  occ. eigenvalues --   -0.60429  -0.59994  -0.59709  -0.59425  -0.59281
 Alpha  occ. eigenvalues --   -0.58668  -0.58052  -0.57629  -0.57577  -0.57305
 Alpha  occ. eigenvalues --   -0.57109  -0.56361  -0.56250  -0.55752  -0.55500
 Alpha  occ. eigenvalues --   -0.55408  -0.55217  -0.55154  -0.54903  -0.54814
 Alpha  occ. eigenvalues --   -0.54555  -0.54507  -0.54481  -0.54214  -0.54059
 Alpha  occ. eigenvalues --   -0.53964  -0.53678  -0.53220  -0.53171  -0.53073
 Alpha  occ. eigenvalues --   -0.53025  -0.52692  -0.52503  -0.52429  -0.52342
 Alpha  occ. eigenvalues --   -0.52221  -0.51961  -0.51953  -0.51891  -0.51548
 Alpha  occ. eigenvalues --   -0.51204  -0.51133  -0.50967  -0.50666  -0.50615
 Alpha  occ. eigenvalues --   -0.50493  -0.50451  -0.50445  -0.50288  -0.49992
 Alpha  occ. eigenvalues --   -0.49809  -0.49635  -0.49563  -0.49461  -0.49319
 Alpha  occ. eigenvalues --   -0.49102  -0.48650  -0.48620  -0.48492  -0.48461
 Alpha  occ. eigenvalues --   -0.48313  -0.48124  -0.48011  -0.48008  -0.47786
 Alpha  occ. eigenvalues --   -0.47213  -0.47188  -0.46999  -0.46936  -0.46625
 Alpha  occ. eigenvalues --   -0.46482  -0.46421  -0.46388  -0.46234  -0.46153
 Alpha  occ. eigenvalues --   -0.45715  -0.45665  -0.45600  -0.45502  -0.45227
 Alpha  occ. eigenvalues --   -0.44986  -0.44936  -0.44901  -0.44652  -0.44562
 Alpha  occ. eigenvalues --   -0.44543  -0.44406  -0.44276  -0.43861  -0.43730
 Alpha  occ. eigenvalues --   -0.43547  -0.43443  -0.43301  -0.43158  -0.43020
 Alpha  occ. eigenvalues --   -0.42872  -0.42702  -0.42394  -0.42303  -0.42146
 Alpha  occ. eigenvalues --   -0.41980  -0.41624  -0.41574  -0.41221  -0.40725
 Alpha  occ. eigenvalues --   -0.40245  -0.40193  -0.39815  -0.39615  -0.39369
 Alpha  occ. eigenvalues --   -0.39016  -0.38889  -0.38496  -0.38453  -0.38325
 Alpha  occ. eigenvalues --   -0.38189  -0.38080  -0.36410  -0.36227  -0.35878
 Alpha  occ. eigenvalues --   -0.35665  -0.35196  -0.34966  -0.34313  -0.33657
 Alpha  occ. eigenvalues --   -0.33578  -0.33363  -0.33121  -0.32745  -0.32229
 Alpha  occ. eigenvalues --   -0.31679  -0.31543  -0.31306  -0.26053  -0.25713
 Alpha  occ. eigenvalues --   -0.22878  -0.22726
 Alpha virt. eigenvalues --   -0.07041  -0.06928   0.00230   0.00839   0.02251
 Alpha virt. eigenvalues --    0.02535   0.04193   0.04962   0.04977   0.06455
 Alpha virt. eigenvalues --    0.07408   0.07904   0.08113   0.08196   0.08433

 Mulliken charges:
               1
     1  Mg   0.966427
     2  C   -0.049134
     3  C   -0.089693
     4  C   -0.059730
     5  C   -0.106223
     6  N   -0.317377
     7  C    0.011342
     8  C   -0.040539
     9  C   -0.105286
    10  C    0.050183
    11  C   -0.005195
    12  C   -0.008578
    13  C   -0.109805
    14  H    0.017067
    15  N   -0.388028
    16  C    0.164029
    17  C   -0.188170
    18  C   -0.059132
    19  C    0.115079
    20  C    0.051683
    21  C    0.080701
    22  O   -0.219474
    23  C   -0.036789
    24  N   -0.403529
    25  C    0.019122
    26  C   -0.074888
    27  C   -0.053940
    28  C    0.103260
    29  C    0.032765
    30  C   -0.056560
    31  C   -0.031326
    32  N   -0.481536
    33  C    0.161824
    34  C   -0.187102
    35  C   -0.019267
    36  C    0.159845
    37  C    0.089872
    38  C    0.119923
    39  O   -0.226461
    40  C   -0.061752
    41  C    0.258029
    42  O   -0.245714
    43  O   -0.357571
    44  C    0.146439
    45  H   -0.009378
    46  H    0.024560
    47  H    0.001037
    48  H    0.044121
    49  H    0.046832
    50  H    0.047907
    51  H    0.045154
    52  H    0.037803
    53  H    0.030237
    54  H    0.028371
    55  H    0.044430
    56  H    0.052416
    57  H    0.066491
    58  H    0.038091
    59  H    0.031147
    60  H    0.036064
    61  H    0.074603
    62  H    0.049246
    63  H    0.043700
    64  H    0.035627
    65  H    0.053011
    66  H    0.026304
    67  H    0.041750
    68  H    0.029406
    69  H    0.020524
    70  H    0.036585
    71  H    0.025239
    72  H    0.038957
    73  H    0.066660
    74  H    0.037306
    75  H    0.055573
    76  H    0.057959
    77  H    0.070403
    78  H    0.046816
    79  H    0.060257
    80  Mg   0.984069
    81  C    0.006622
    82  C   -0.113436
    83  C   -0.075965
    84  C   -0.074203
    85  N   -0.350876
    86  C   -0.049160
    87  C   -0.050260
    88  C   -0.097888
    89  C    0.098113
    90  C    0.023307
    91  C    0.001701
    92  C   -0.114933
    93  H    0.031915
    94  N   -0.466510
    95  C    0.154014
    96  C   -0.174233
    97  C   -0.070299
    98  C    0.137940
    99  C    0.077868
   100  C    0.062840
   101  O   -0.243520
   102  C   -0.045651
   103  N   -0.390047
   104  C    0.116258
   105  C   -0.106955
   106  C   -0.048706
   107  C    0.073157
   108  C    0.009944
   109  C    0.001427
   110  C   -0.071380
   111  N   -0.414333
   112  C    0.082201
   113  C   -0.193428
   114  C   -0.037901
   115  C    0.139212
   116  C    0.088157
   117  C    0.083193
   118  O   -0.205387
   119  C   -0.074170
   120  C    0.226187
   121  O   -0.256877
   122  O   -0.333916
   123  C    0.142506
   124  H   -0.000088
   125  H    0.028446
   126  H   -0.008054
   127  H    0.049738
   128  H    0.040048
   129  H    0.051973
   130  H    0.043569
   131  H    0.040184
   132  H    0.030999
   133  H    0.043356
   134  H    0.042793
   135  H    0.062651
   136  H    0.053204
   137  H    0.041066
   138  H    0.058454
   139  H    0.058610
   140  H    0.065498
   141  H    0.052917
   142  H    0.043243
   143  H    0.032362
   144  H    0.027661
   145  H    0.060854
   146  H    0.025922
   147  H    0.049353
   148  H    0.028174
   149  H    0.020849
   150  H    0.037414
   151  H    0.045773
   152  H    0.054262
   153  H    0.052853
   154  H    0.061465
   155  H    0.067078
   156  H    0.054637
   157  H    0.045140
   158  H    0.056996
 Sum of Mulliken charges =  -0.00000

 Dipole moment (field-independent basis, Debye):
    X=              7.1057    Y=             -2.2479    Z=              4.2175  Tot=              8.5633
 Quadrupole moment (field-independent basis, Debye-Ang):
   XX=           -367.5684   YY=           -451.7886   ZZ=           -513.8567
   XY=            -14.7969   XZ=            -81.1237   YZ=            -29.9469

 Normal termination of Gaussian 16 at Sun Sep 19 07:14:18 2021.
