 Gaussian 16, Revision A.03,
 Gaussian 16:  ES64L-G16RevA.03 25-Dec-2016

 --------------------------------
 #p wB97XD/Def2SVP td=(nstates=5)
 --------------------------------

 --------------------------------
 TDDFT excited states in gaussian
 --------------------------------
 Symbolic Z-matrix:
 Charge =  0 Multiplicity = 1

                         Standard orientation:
 ---------------------------------------------------------------------
 Center     Atomic      Atomic             Coordinates (Angstroms)
 Number     Number       Type             X           Y           Z
 ---------------------------------------------------------------------
      1         12           0       -4.347648   -0.716676    0.998988
      2          6           0       -5.374637    2.440074   -0.102446
      3          6           0       -2.660876    0.936621    3.540523
      4          6           0       -3.040032   -3.589517    1.778857
      5          6           0       -5.969133   -2.121450   -1.819003
      6          7           0       -3.714724    1.517541    1.421526
      7          6           0       -4.392007    2.563271    0.936595
      8          6           0       -3.941590    3.778711    1.675837
      9          6           0       -2.744416    3.306087    2.536634
     10          6           0       -3.047105    1.820794    2.546258
     11          6           0       -1.315242    3.629451    2.097478
     12          6           0       -5.083240    4.385389    2.551873
     13          6           0       -5.377513    5.917467    2.458482
     14          1           0       -4.211853    6.896607    2.115081
     15          7           0       -3.120034   -1.286720    2.583845
     16          6           0       -2.705582   -0.450443    3.611966
     17          6           0       -2.014476   -1.273425    4.550396
     18          6           0       -1.987650   -2.616984    3.999330
     19          6           0       -2.732180   -2.573785    2.749653
     20          6           0       -1.319135   -0.754362    5.827962
     21          6           0       -1.273626   -3.895382    4.525061
     22          8           0       -1.299377   -4.953683    3.981232
     23          6           0       -0.560895   -3.757542    5.856001
     24          7           0       -4.517774   -2.560503    0.093404
     25          6           0       -3.810717   -3.602955    0.584062
     26          6           0       -4.013418   -4.927816   -0.201577
     27          6           0       -5.173904   -4.482063   -1.191273
     28          6           0       -5.273475   -2.977380   -0.970237
     29          6           0       -2.613653   -5.402844   -0.902746
     30          6           0       -6.488183   -5.309105   -1.031657
     31          6           0       -7.604997   -4.712680   -0.193832
     32          7           0       -5.505464   -0.051469   -0.657634
     33          6           0       -6.156535   -0.737594   -1.647025
     34          6           0       -6.899199    0.258604   -2.496355
     35          6           0       -6.607474    1.509392   -1.906749
     36          6           0       -5.715919    1.299766   -0.803030
     37          6           0       -7.621689    0.007859   -3.792091
     38          6           0       -6.837480    2.949157   -1.997507
     39          8           0       -7.511371    3.559229   -2.832526
     40          6           0       -6.187533    3.548951   -0.754176
     41          6           0       -5.334742    4.682343   -1.247977
     42          8           0       -4.243120    4.561735   -1.773169
     43          8           0       -6.091675    5.764254   -1.167049
     44          6           0       -5.705370    6.933626   -1.940917
     45          1           0       -2.015220    1.455178    4.251681
     46          1           0       -2.762178   -4.587181    2.124246
     47          1           0       -6.481444   -2.557895   -2.679312
     48          1           0       -3.643197    4.535133    0.950661
     49          1           0       -2.850485    3.808947    3.497962
     50          1           0       -1.210320    4.232804    1.195606
     51          1           0       -0.750064    2.709239    1.946929
     52          1           0       -0.862837    4.172966    2.926654
     53          1           0       -5.017471    4.109596    3.604145
     54          1           0       -5.925169    3.825119    2.145473
     55          1           0       -5.750876    6.162385    3.453625
     56          1           0       -6.168846    6.074146    1.725888
     57          1           0       -0.275023   -1.058113    5.903877
     58          1           0       -1.740405   -1.189562    6.734313
     59          1           0       -1.369269    0.326995    5.962140
     60          1           0       -1.192890   -3.323957    6.631317
     61          1           0        0.352973   -3.187161    5.689367
     62          1           0       -0.149241   -4.717961    6.166168
     63          1           0       -4.345711   -5.746100    0.437009
     64          1           0       -4.931934   -4.658027   -2.239313
     65          1           0       -2.770395   -5.219640   -1.965831
     66          1           0       -2.448395   -6.479512   -0.857259
     67          1           0       -1.749230   -4.798611   -0.625161
     68          1           0       -6.175289   -6.182614   -0.459490
     69          1           0       -6.885642   -5.650746   -1.987162
     70          1           0       -7.090829   -4.309026    0.679256
     71          1           0       -8.205451   -5.597396    0.016604
     72          1           0       -8.185365   -3.865207   -0.557707
     73          1           0       -7.570448   -0.986425   -4.235899
     74          1           0       -7.235615    0.685897   -4.553349
     75          1           0       -8.646830    0.328418   -3.609235
     76          1           0       -6.874521    4.064475   -0.082781
     77          1           0       -4.871423    6.875500   -2.639652
     78          1           0       -5.371943    7.627264   -1.168428
     79          1           0       -6.608972    7.493812   -2.181641
     80         12           0        3.930409   -0.498243   -0.975696
     81          6           0        6.630983    1.475183   -0.377373
     82          6           0        1.731778    2.159526   -1.048882
     83          6           0        1.339523   -2.700947   -1.374156
     84          6           0        6.052331   -3.387369   -0.484489
     85          7           0        4.146513    1.536415   -0.532172
     86          6           0        5.417257    2.202970   -0.560459
     87          6           0        5.245881    3.659253   -0.732535
     88          6           0        3.672758    3.816067   -0.525415
     89          6           0        3.097785    2.428532   -0.703585
     90          6           0        3.280157    4.416371    0.916005
     91          6           0        5.891305    4.244936   -2.025973
     92          6           0        6.662326    5.511526   -1.836914
     93          1           0        6.035866    6.563978   -0.839529
     94          7           0        1.830091   -0.291423   -1.255798
     95          6           0        1.177448    0.905122   -1.229310
     96          6           0       -0.201482    0.645424   -1.464569
     97          6           0       -0.372316   -0.780646   -1.660424
     98          6           0        1.001173   -1.366845   -1.506277
     99          6           0       -1.270947    1.757472   -1.396675
    100          6           0       -1.556014   -1.633267   -1.995450
    101          8           0       -1.626779   -2.866566   -2.040485
    102          6           0       -2.860941   -0.841827   -2.386873
    103          7           0        3.684975   -2.785486   -0.832022
    104          6           0        2.563533   -3.391321   -1.133421
    105          6           0        2.748645   -4.894019   -1.334092
    106          6           0        4.263963   -5.093018   -1.044942
    107          6           0        4.712236   -3.663662   -0.746609
    108          6           0        1.812134   -5.794729   -0.378821
    109          6           0        4.958796   -5.693160   -2.345809
    110          6           0        5.075108   -4.859607   -3.645877
    111          7           0        5.903254   -0.902601   -0.362850
    112          6           0        6.597937   -2.094036   -0.272782
    113          6           0        8.013635   -1.734086   -0.053635
    114          6           0        8.138785   -0.377784   -0.090027
    115          6           0        6.787610    0.087443   -0.283784
    116          6           0        9.076540   -2.711968    0.312106
    117          6           0        9.042759    0.768504    0.001400
    118          8           0       10.246200    0.829722    0.189592
    119          6           0        8.063611    2.010583   -0.177105
    120          6           0        8.116265    2.789378    1.076836
    121          8           0        7.888092    2.394456    2.233532
    122          8           0        8.487809    4.054730    0.669786
    123          6           0        8.430894    5.073609    1.726144
    124          1           0        1.012224    2.976542   -1.131855
    125          1           0        0.487448   -3.338090   -1.622716
    126          1           0        6.722492   -4.245656   -0.410795
    127          1           0        5.787850    4.094549    0.107998
    128          1           0        3.295269    4.464492   -1.315493
    129          1           0        4.120657    4.863522    1.446775
    130          1           0        3.026670    3.558558    1.538744
    131          1           0        2.421905    5.050755    0.698430
    132          1           0        5.114673    4.450448   -2.762715
    133          1           0        6.565839    3.447132   -2.336478
    134          1           0        6.746302    6.099852   -2.749808
    135          1           0        7.712567    5.502660   -1.545015
    136          1           0       -1.319770    2.422746   -2.258644
    137          1           0       -1.021026    2.260652   -0.462772
    138          1           0       -2.289288    1.369558   -1.408748
    139          1           0       -3.288789   -0.399835   -1.487010
    140          1           0       -3.474960   -1.493858   -3.007842
    141          1           0       -2.687932   -0.045325   -3.110871
    142          1           0        2.549572   -5.129417   -2.379316
    143          1           0        4.465265   -5.775382   -0.219083
    144          1           0        1.032688   -6.200694   -1.024610
    145          1           0        1.347050   -5.172221    0.386247
    146          1           0        2.231129   -6.666627    0.121889
    147          1           0        4.576274   -6.661590   -2.667768
    148          1           0        5.985306   -5.805631   -1.995397
    149          1           0        6.153190   -4.735243   -3.748672
    150          1           0        4.530736   -3.917647   -3.592009
    151          1           0        4.681363   -5.361726   -4.529555
    152          1           0        9.964520   -2.277763   -0.146272
    153          1           0        8.873573   -3.717501   -0.056885
    154          1           0        9.289242   -2.575218    1.371564
    155          1           0        8.603735    2.546054   -0.957450
    156          1           0        8.865847    5.940606    1.228075
    157          1           0        9.125080    4.740443    2.497647
    158          1           0        7.463026    5.200217    2.211663
 ---------------------------------------------------------------------

 SCF Done:  E(RwB97XD) =  -4070.62496418     A.U. after   19 cycles

 Excitation energies and oscillator strengths:

 Excited State   1:      Singlet-A      1.6328 eV  759.32 nm  f=0.1391  <S**2>=0.000
     309 -> 315       -0.14687
     310 -> 316        0.11399
     311 -> 313        0.42094
     312 -> 314        0.53798
 This state for optimization and/or second-order correction.
 Total Energy, E(TD-HF/TD-DFT) =  -4070.56495902
 Copying the excited state density for this state as the 1-particle RhoCI density.

 Excited State   2:      Singlet-A      1.6523 eV  750.37 nm  f=0.6323  <S**2>=0.000
     309 -> 315        0.11716
     310 -> 316        0.15020
     311 -> 313        0.53730
     312 -> 314       -0.41948

 Excited State   3:      Singlet-A      2.1377 eV  579.99 nm  f=0.0618  <S**2>=0.000
     310 -> 313        0.63857
     311 -> 316       -0.27305

 Excited State   4:      Singlet-A      2.2152 eV  559.70 nm  f=0.0486  <S**2>=0.000
     309 -> 314        0.60073
     312 -> 315        0.34752

 Excited State   5:      Singlet-A      2.5968 eV  477.45 nm  f=0.0001  <S**2>=0.000
     311 -> 314        0.69563
     311 -> 317       -0.10131

 The electronic state is 1-A.
 Alpha  occ. eigenvalues --  -46.95316 -46.95267 -19.31894 -19.30733 -19.25141
 Alpha  occ. eigenvalues --  -19.25054 -19.24690 -19.24493 -19.24347 -19.23557
 Alpha  occ. eigenvalues --  -14.46646 -14.46487 -14.46345 -14.46258 -14.44087
 Alpha  occ. eigenvalues --  -14.43819 -14.43789 -14.43330 -10.43464 -10.43217
 Alpha  occ. eigenvalues --  -10.39716 -10.39463 -10.39187 -10.38381 -10.36179
 Alpha  occ. eigenvalues --  -10.35823 -10.35520 -10.35484 -10.35433 -10.34939
 Alpha  occ. eigenvalues --  -10.34702 -10.34652 -10.34649 -10.34154 -10.33903
 Alpha  occ. eigenvalues --  -10.33831 -10.33726 -10.33675 -10.33657 -10.33578
 Alpha  occ. eigenvalues --  -10.33459 -10.33238 -10.33065 -10.33046 -10.32908
 Alpha  occ. eigenvalues --  -10.32615 -10.32513 -10.32470 -10.32224 -10.32201
 Alpha  occ. eigenvalues --  -10.32199 -10.31963 -10.31740 -10.31700 -10.31627
 Alpha  occ. eigenvalues --  -10.31514 -10.31470 -10.31376 -10.31335 -10.31335
 Alpha  occ. eigenvalues --  -10.31296 -10.31254 -10.31129 -10.31092 -10.31069
 Alpha  occ. eigenvalues --  -10.30717 -10.30690 -10.30589 -10.30525 -10.30404
 Alpha  occ. eigenvalues --  -10.30356 -10.30244 -10.30204 -10.30075 -10.30036
 Alpha  occ. eigenvalues --  -10.29904 -10.29839 -10.29761 -10.29328 -10.29185
 Alpha  occ. eigenvalues --  -10.29100 -10.28977 -10.28854 -10.28651 -10.28453
 Alpha  occ. eigenvalues --  -10.28133  -3.21193  -3.21174  -1.94799  -1.94764
 Alpha  occ. eigenvalues --   -1.94345  -1.94286  -1.94142  -1.94118  -1.20962
 Alpha  occ. eigenvalues --   -1.17986  -1.13502  -1.12191  -1.12086  -1.11791
 Alpha  occ. eigenvalues --   -1.11344  -1.09507  -1.07210  -1.06841  -1.05658
 Alpha  occ. eigenvalues --   -1.05488  -1.04721  -1.04655  -1.03892  -1.03469
 Alpha  occ. eigenvalues --   -0.95571  -0.94083  -0.90757  -0.90747  -0.90430
 Alpha  occ. eigenvalues --   -0.90418  -0.89868  -0.89610  -0.88914  -0.88885
 Alpha  occ. eigenvalues --   -0.88516  -0.88295  -0.87766  -0.87522  -0.86501
 Alpha  occ. eigenvalues --   -0.86355  -0.85751  -0.85050  -0.84118  -0.84052
 Alpha  occ. eigenvalues --   -0.83468  -0.83225  -0.82823  -0.82626  -0.81989
 Alpha  occ. eigenvalues --   -0.81388  -0.79911  -0.79602  -0.79452  -0.79083
 Alpha  occ. eigenvalues --   -0.79000  -0.78699  -0.78078  -0.77497  -0.76589
 Alpha  occ. eigenvalues --   -0.76561  -0.74721  -0.74162  -0.73871  -0.73576
 Alpha  occ. eigenvalues --   -0.71502  -0.71281  -0.70960  -0.70758  -0.70171
 Alpha  occ. eigenvalues --   -0.70097  -0.69120  -0.68136  -0.67467  -0.66985
 Alpha  occ. eigenvalues --   -0.66750  -0.66719  -0.66612  -0.66397  -0.66385
 Alpha  occ. eigenvalues --   -0.66121  -0.64952  -0.64315  -0.62000  -0.61913
 Alpha  occ. eigenvalues --   -0.61776  -0.61267  -0.61130  -0.60597  -0.60537
 Alpha  occ. eigenvalues --   -0.60494  -0.60357  -0.59715  -0.59368  -0.59207
 Alpha  occ. eigenvalues --   -0.58743  -0.58134  -0.57588  -0.57260  -0.57188
 Alpha  occ. eigenvalues --   -0.56782  -0.56713  -0.56634  -0.56344  -0.56137
 Alpha  occ. eigenvalues --   -0.55708  -0.55481  -0.55252  -0.55054  -0.54936
 Alpha  occ. eigenvalues --   -0.54868  -0.54412  -0.54076  -0.54006  -0.53943
 Alpha  occ. eigenvalues --   -0.53849  -0.53534  -0.53401  -0.53343  -0.53205
 Alpha  occ. eigenvalues --   -0.53192  -0.53011  -0.52693  -0.52488  -0.52293
 Alpha  occ. eigenvalues --   -0.51804  -0.51579  -0.51482  -0.51322  -0.51117
 Alpha  occ. eigenvalues --   -0.51038  -0.50935  -0.50756  -0.50427  -0.50295
 Alpha  occ. eigenvalues --   -0.50258  -0.50200  -0.50149  -0.50085  -0.49874
 Alpha  occ. eigenvalues --   -0.49644  -0.49463  -0.49093  -0.49053  -0.48866
 Alpha  occ. eigenvalues --   -0.48532  -0.48423  -0.48271  -0.48109  -0.47998
 Alpha  occ. eigenvalues --   -0.47897  -0.47779  -0.47573  -0.47549  -0.47535
 Alpha  occ. eigenvalues --   -0.47406  -0.47208  -0.47084  -0.46841  -0.46713
 Alpha  occ. eigenvalues --   -0.46612  -0.46460  -0.46344  -0.46219  -0.45819
 Alpha  occ. eigenvalues --   -0.45647  -0.45450  -0.45221  -0.45113  -0.45073
 Alpha  occ. eigenvalues --   -0.44938  -0.44810  -0.44677  -0.44573  -0.44470
 Alpha  occ. eigenvalues --   -0.44451  -0.44225  -0.43896  -0.43830  -0.43766
 Alpha  occ. eigenvalues --   -0.43735  -0.43614  -0.43560  -0.43363  -0.43218
 Alpha  occ. eigenvalues --   -0.42628  -0.42521  -0.42424  -0.42201  -0.42091
 Alpha  occ. eigenvalues --   -0.41803  -0.41788  -0.41446  -0.41176  -0.40623
 Alpha  occ. eigenvalues --   -0.39983  -0.39576  -0.39321  -0.39281  -0.39071
 Alpha  occ. eigenvalues --   -0.38954  -0.38859  -0.38610  -0.38443  -0.38161
 Alpha  occ. eigenvalues --   -0.38127  -0.38011  -0.36796  -0.36452  -0.36148
 Alpha  occ. eigenvalues --   -0.35923  -0.35434  -0.35393  -0.33605  -0.33119
 Alpha  occ. eigenvalues --   -0.33006  -0.32884  -0.32783  -0.32265  -0.32240
 Alpha  occ. eigenvalues --   -0.32147  -0.31750  -0.31097  -0.26071  -0.25724
 Alpha  occ. eigenvalues --   -0.22866  -0.22475
 Alpha virt. eigenvalues --   -0.06921  -0.06524  -0.00200   0.00368   0.02006
 Alpha virt. eigenvalues --    0.02103   0.04440   0.04969   0.05310   0.05883
 Alpha virt. eigenvalues --    0.07104   0.07448   0.07570   0.07607   0.08035

 Mulliken charges:
               1
     1  Mg   0.890168
     2  C   -0.002026
     3  C   -0.051432
     4  C   -0.042940
     5  C   -0.091005
     6  N   -0.280630
     7  C    0.021026
     8  C   -0.101110
     9  C   -0.077932
    10  C   -0.024348
    11  C    0.035613
    12  C   -0.007993
    13  C   -0.108639
    14  H    0.032990
    15  N   -0.488531
    16  C    0.196041
    17  C   -0.161684
    18  C   -0.109621
    19  C    0.130062
    20  C    0.066820
    21  C    0.058579
    22  O   -0.197067
    23  C   -0.025900
    24  N   -0.388667
    25  C    0.081330
    26  C   -0.111912
    27  C   -0.045902
    28  C    0.088782
    29  C    0.030349
    30  C   -0.033757
    31  C   -0.035272
    32  N   -0.439133
    33  C    0.122468
    34  C   -0.182805
    35  C   -0.032231
    36  C    0.135218
    37  C    0.073467
    38  C    0.141138
    39  O   -0.214638
    40  C   -0.093970
    41  C    0.225718
    42  O   -0.254154
    43  O   -0.325766
    44  C    0.146290
    45  H   -0.006391
    46  H    0.025352
    47  H   -0.006629
    48  H    0.036921
    49  H    0.020349
    50  H    0.045300
    51  H    0.052804
    52  H    0.032858
    53  H    0.039273
    54  H    0.027282
    55  H    0.053926
    56  H    0.060657
    57  H    0.039669
    58  H    0.040982
    59  H    0.034245
    60  H    0.057203
    61  H    0.054292
    62  H    0.040105
    63  H    0.044875
    64  H    0.032700
    65  H    0.025118
    66  H    0.029245
    67  H    0.068361
    68  H    0.022353
    69  H    0.027956
    70  H    0.030206
    71  H    0.043107
    72  H    0.040278
    73  H    0.038826
    74  H    0.059480
    75  H    0.059282
    76  H    0.073643
    77  H    0.084054
    78  H    0.027430
    79  H    0.058539
    80  Mg   0.931819
    81  C   -0.004741
    82  C   -0.105168
    83  C   -0.035257
    84  C   -0.078378
    85  N   -0.442259
    86  C   -0.002525
    87  C   -0.039570
    88  C   -0.135215
    89  C    0.129838
    90  C    0.032575
    91  C    0.069955
    92  C   -0.137609
    93  H   -0.000804
    94  N   -0.461521
    95  C    0.165933
    96  C   -0.150219
    97  C   -0.072200
    98  C    0.137680
    99  C    0.075227
   100  C    0.061930
   101  O   -0.243391
   102  C   -0.047516
   103  N   -0.261462
   104  C    0.020080
   105  C   -0.077584
   106  C   -0.046376
   107  C    0.027348
   108  C   -0.004539
   109  C   -0.063004
   110  C   -0.056000
   111  N   -0.406194
   112  C    0.140316
   113  C   -0.242000
   114  C   -0.006619
   115  C    0.118999
   116  C    0.082851
   117  C    0.138351
   118  O   -0.196087
   119  C   -0.109391
   120  C    0.275689
   121  O   -0.259989
   122  O   -0.369860
   123  C    0.140322
   124  H    0.004978
   125  H    0.021279
   126  H    0.002181
   127  H    0.029662
   128  H    0.028033
   129  H    0.042512
   130  H    0.044478
   131  H    0.050254
   132  H    0.039949
   133  H    0.041791
   134  H    0.043616
   135  H    0.061128
   136  H    0.064024
   137  H    0.040576
   138  H    0.022201
   139  H    0.112343
   140  H    0.048033
   141  H    0.046391
   142  H    0.048502
   143  H    0.039205
   144  H    0.039595
   145  H    0.057789
   146  H    0.041757
   147  H    0.040821
   148  H    0.020184
   149  H    0.044265
   150  H    0.039960
   151  H    0.037703
   152  H    0.046345
   153  H    0.039822
   154  H    0.065086
   155  H    0.067862
   156  H    0.059216
   157  H    0.055720
   158  H    0.058659
 Sum of Mulliken charges =  -0.00000

 Dipole moment (field-independent basis, Debye):
    X=             -3.7625    Y=              3.0243    Z=             -0.7010  Tot=              4.8779
 Quadrupole moment (field-independent basis, Debye-Ang):
   XX=           -560.0154   YY=           -461.7601   ZZ=           -496.8798
   XY=              1.3336   XZ=            -24.8556   YZ=             23.9213

 Normal termination of Gaussian 16 at Mon Sep 20 18:50:54 2021.
