 Gaussian 16, Revision A.03,
 Gaussian 16:  ES64L-G16RevA.03 25-Dec-2016

 --------------------------------
 #p wB97XD/Def2SVP td=(nstates=5)
 --------------------------------

 --------------------------------
 TDDFT excited states in gaussian
 --------------------------------
 Symbolic Z-matrix:
 Charge =  0 Multiplicity = 1

                         Standard orientation:
 ---------------------------------------------------------------------
 Center     Atomic      Atomic             Coordinates (Angstroms)
 Number     Number       Type             X           Y           Z
 ---------------------------------------------------------------------
      1         12           0      -14.264178    0.921629    0.184592
      2          6           0      -14.726798   -2.592771   -0.312596
      3          6           0      -10.926225    0.286864    0.497975
      4          6           0      -13.884061    3.941722    1.074070
      5          6           0      -17.657952    1.109706    0.954389
      6          7           0      -13.095999   -0.956091    0.083741
      7          6           0      -13.385970   -2.227945   -0.172141
      8          6           0      -12.124904   -3.124949   -0.352345
      9          6           0      -11.076031   -2.253573    0.473832
     10          6           0      -11.716852   -0.886199    0.313951
     11          6           0      -11.028311   -2.603176    1.957747
     12          6           0      -11.700997   -3.260044   -1.853605
     13          6           0      -10.688113   -4.370018   -2.149202
     14          1           0      -10.793256   -5.097770   -3.404857
     15          7           0      -12.642387    2.048731    0.232347
     16          6           0      -11.362053    1.621079    0.346998
     17          6           0      -10.523027    2.838689    0.335099
     18          6           0      -11.431106    4.017615    0.395278
     19          6           0      -12.704060    3.374510    0.598704
     20          6           0       -9.029564    2.807774    0.223916
     21          6           0      -11.188542    5.490594    0.297164
     22          8           0      -12.083621    6.349424    0.606709
     23          6           0       -9.829172    5.908080   -0.091244
     24          7           0      -15.525207    2.294908    1.123498
     25          6           0      -15.133370    3.555184    1.340648
     26          6           0      -16.284775    4.420479    1.759536
     27          6           0      -17.599636    3.539400    1.548360
     28          6           0      -16.928730    2.218811    1.096474
     29          6           0      -16.243008    4.936719    3.204445
     30          6           0      -18.714752    4.142566    0.657785
     31          6           0      -18.235335    4.233626   -0.773636
     32          7           0      -15.958584   -0.434038    0.137677
     33          6           0      -17.276632   -0.149904    0.523284
     34          6           0      -18.038425   -1.407889    0.417395
     35          6           0      -17.100705   -2.346196   -0.009343
     36          6           0      -15.827709   -1.720154   -0.135214
     37          6           0      -19.409276   -1.583010    0.755824
     38          6           0      -16.872732   -3.737490   -0.364572
     39          8           0      -17.597235   -4.719538   -0.532409
     40          6           0      -15.301619   -3.979874   -0.457748
     41          6           0      -15.031445   -4.722567   -1.737874
     42          8           0      -15.223288   -4.179785   -2.845100
     43          8           0      -14.370975   -5.857654   -1.462377
     44          6           0      -14.045808   -6.628078   -2.692364
     45          1           0       -9.897032    0.180424    0.846360
     46          1           0      -13.822076    5.010927    1.287129
     47          1           0      -18.740133    1.110189    1.096999
     48          1           0      -12.208667   -4.119988    0.085038
     49          1           0      -10.087299   -2.264611    0.015563
     50          1           0      -11.816738   -3.305866    2.227058
     51          1           0      -11.164551   -1.658162    2.483941
     52          1           0      -10.038311   -2.962893    2.239316
     53          1           0      -11.111118   -2.389449   -2.140255
     54          1           0      -12.575947   -3.391228   -2.491242
     55          1           0      -10.600850   -5.063234   -1.312097
     56          1           0       -9.699702   -3.917649   -2.230476
     57          1           0       -8.638246    1.800984    0.364587
     58          1           0       -8.635644    3.372773    1.068494
     59          1           0       -8.678302    3.248577   -0.709165
     60          1           0       -9.112417    5.517132    0.631231
     61          1           0       -9.866113    6.991731   -0.197005
     62          1           0       -9.579482    5.450700   -1.049057
     63          1           0      -16.349353    5.313041    1.138578
     64          1           0      -18.101434    3.320983    2.491317
     65          1           0      -16.287189    6.023290    3.282657
     66          1           0      -15.341065    4.547082    3.675585
     67          1           0      -17.018653    4.535042    3.855942
     68          1           0      -18.952302    5.155339    0.981524
     69          1           0      -19.638473    3.564004    0.673842
     70          1           0      -17.679618    5.170578   -0.785093
     71          1           0      -19.084051    4.274707   -1.457159
     72          1           0      -17.532035    3.434735   -1.009494
     73          1           0      -19.844729   -2.188533   -0.038966
     74          1           0      -19.919773   -0.624687    0.848626
     75          1           0      -19.317051   -2.101146    1.710228
     76          1           0      -15.021589   -4.561561    0.419945
     77          1           0      -14.463187   -7.626999   -2.565148
     78          1           0      -12.968250   -6.544296   -2.834677
     79          1           0      -14.547662   -6.310301   -3.606968
     80         12           0       15.121144   -0.228761   -0.193009
     81          6           0       11.672999   -1.211769   -0.327913
     82          6           0       14.084701    2.641309   -2.049985
     83          6           0       17.937164    1.412344    0.622875
     84          6           0       15.647844   -2.658158    2.155805
     85          7           0       13.116639    0.580583   -1.020898
     86          6           0       11.878173    0.009626   -0.979799
     87          6           0       10.806100    0.885771   -1.717065
     88          6           0       11.746803    1.867970   -2.566275
     89          6           0       13.041331    1.742878   -1.778779
     90          6           0       11.960075    1.453157   -4.004017
     91          6           0        9.774847    1.494366   -0.781245
     92          6           0        8.288925    1.443188   -1.222197
     93          1           0        7.576554    2.724987   -1.860459
     94          7           0       15.991333    1.769867   -0.735418
     95          6           0       15.409654    2.730439   -1.588940
     96          6           0       16.356602    3.838399   -1.764496
     97          6           0       17.528658    3.450050   -1.003428
     98          6           0       17.174281    2.249664   -0.277056
     99          6           0       16.134004    5.094958   -2.518771
    100          6           0       18.845652    4.184891   -1.006271
    101          8           0       18.999113    5.078030   -1.808755
    102          6           0       19.999181    3.874055   -0.080633
    103          7           0       16.451376   -0.544577    1.246797
    104          6           0       17.625020    0.203829    1.262090
    105          6           0       18.519004   -0.371419    2.363079
    106          6           0       17.878282   -1.771766    2.681579
    107          6           0       16.586850   -1.673540    1.941964
    108          6           0       20.073316   -0.394236    2.123519
    109          6           0       17.741631   -2.194323    4.176583
    110          6           0       18.340774   -3.497707    4.593939
    111          7           0       14.005228   -1.721870    0.659049
    112          6           0       14.365841   -2.708182    1.560462
    113          6           0       13.305228   -3.728127    1.672123
    114          6           0       12.202951   -3.102266    0.970389
    115          6           0       12.699126   -1.918700    0.415378
    116          6           0       13.293480   -5.044456    2.403757
    117          6           0       10.775544   -3.307720    0.585283
    118          8           0        9.998167   -4.162467    0.902058
    119          6           0       10.391503   -2.032888   -0.158824
    120          6           0        9.835564   -2.431883   -1.493163
    121          8           0       10.571523   -2.959666   -2.299045
    122          8           0        8.480746   -2.059614   -1.744010
    123          6           0        7.979727   -2.264350   -3.136974
    124          1           0       13.820488    3.507397   -2.660605
    125          1           0       18.894245    1.797968    0.978094
    126          1           0       15.923832   -3.525343    2.758866
    127          1           0       10.292471    0.325350   -2.497700
    128          1           0       11.425031    2.905291   -2.474687
    129          1           0       12.727089    0.679396   -4.027562
    130          1           0       12.222300    2.352880   -4.560475
    131          1           0       11.131937    0.999085   -4.549170
    132          1           0       10.025294    2.552208   -0.707800
    133          1           0        9.969041    1.112209    0.220890
    134          1           0        7.771389    1.172707   -0.301504
    135          1           0        8.078370    0.651158   -1.940950
    136          1           0       16.601037    4.950345   -3.492503
    137          1           0       16.711139    5.895703   -2.056258
    138          1           0       15.123327    5.478292   -2.664117
    139          1           0       20.837447    4.568715   -0.130362
    140          1           0       20.360956    2.892974   -0.388609
    141          1           0       19.809518    3.744366    0.984233
    142          1           0       18.406605    0.380055    3.145125
    143          1           0       18.402664   -2.523845    2.092843
    144          1           0       20.299446   -0.318196    1.059608
    145          1           0       20.516811   -1.278139    2.581557
    146          1           0       20.546099    0.435407    2.648677
    147          1           0       16.684424   -2.205218    4.441515
    148          1           0       18.126901   -1.369754    4.776231
    149          1           0       17.541236   -4.217874    4.766446
    150          1           0       18.879008   -3.367930    5.532757
    151          1           0       19.033431   -3.978975    3.903838
    152          1           0       12.531227   -5.710196    1.999479
    153          1           0       13.104121   -4.811581    3.451993
    154          1           0       14.306419   -5.446698    2.379538
    155          1           0        9.727196   -1.464138    0.491982
    156          1           0        7.730746   -3.316627   -3.275226
    157          1           0        8.757402   -2.040379   -3.866844
    158          1           0        7.122447   -1.622229   -3.338176
 ---------------------------------------------------------------------

 SCF Done:  E(RwB97XD) =  -4070.61319169     A.U. after   20 cycles

 Excitation energies and oscillator strengths:

 Excited State   1:      Singlet-A      1.6112 eV  769.50 nm  f=0.4013  <S**2>=0.000
     309 -> 316        0.17522
     311 -> 313        0.68622
     309 <- 316        0.11593
 This state for optimization and/or second-order correction.
 Total Energy, E(TD-HF/TD-DFT) =  -4070.55397983
 Copying the excited state density for this state as the 1-particle RhoCI density.

 Excited State   2:      Singlet-A      1.6215 eV  764.62 nm  f=0.3860  <S**2>=0.000
     310 -> 315       -0.18176
     312 -> 314        0.68328
     310 <- 315       -0.11452

 Excited State   3:      Singlet-A      2.1385 eV  579.78 nm  f=0.0964  <S**2>=0.000
     310 -> 314        0.63841
     312 -> 315        0.28180

 Excited State   4:      Singlet-A      2.1824 eV  568.10 nm  f=0.1249  <S**2>=0.000
     309 -> 313        0.63920
     311 -> 316       -0.28432

 Excited State   5:      Singlet-A      3.1502 eV  393.58 nm  f=0.0019  <S**2>=0.000
     305 -> 313       -0.12045
     308 -> 313        0.66886
     311 -> 316        0.10236

 The electronic state is 1-A.
 Alpha  occ. eigenvalues --  -46.95745 -46.94097 -19.31464 -19.30622 -19.25780
 Alpha  occ. eigenvalues --  -19.24884 -19.23958 -19.23857 -19.23192 -19.23042
 Alpha  occ. eigenvalues --  -14.47489 -14.47013 -14.46343 -14.46022 -14.44025
 Alpha  occ. eigenvalues --  -14.43989 -14.43827 -14.43125 -10.44216 -10.42903
 Alpha  occ. eigenvalues --  -10.39535 -10.39403 -10.38520 -10.38379 -10.36154
 Alpha  occ. eigenvalues --  -10.35500 -10.35420 -10.35419 -10.35397 -10.34875
 Alpha  occ. eigenvalues --  -10.34790 -10.34579 -10.34558 -10.34514 -10.34385
 Alpha  occ. eigenvalues --  -10.34365 -10.34166 -10.33865 -10.33798 -10.33589
 Alpha  occ. eigenvalues --  -10.33348 -10.33214 -10.33200 -10.32998 -10.32937
 Alpha  occ. eigenvalues --  -10.32871 -10.32780 -10.32778 -10.32430 -10.32300
 Alpha  occ. eigenvalues --  -10.32164 -10.32159 -10.32111 -10.31921 -10.31837
 Alpha  occ. eigenvalues --  -10.31758 -10.31702 -10.31680 -10.31522 -10.31480
 Alpha  occ. eigenvalues --  -10.31446 -10.31398 -10.31378 -10.31156 -10.31122
 Alpha  occ. eigenvalues --  -10.30960 -10.30683 -10.30600 -10.30563 -10.30460
 Alpha  occ. eigenvalues --  -10.30444 -10.30371 -10.30250 -10.30055 -10.30032
 Alpha  occ. eigenvalues --  -10.29995 -10.29963 -10.29809 -10.29710 -10.29648
 Alpha  occ. eigenvalues --  -10.29606 -10.29352 -10.29246 -10.28836 -10.28775
 Alpha  occ. eigenvalues --  -10.28450  -3.21779  -3.20256  -1.95310  -1.94899
 Alpha  occ. eigenvalues --   -1.94751  -1.93832  -1.93399  -1.93237  -1.18788
 Alpha  occ. eigenvalues --   -1.17634  -1.14087  -1.12472  -1.10820  -1.10206
 Alpha  occ. eigenvalues --   -1.09404  -1.08801  -1.06658  -1.06536  -1.05738
 Alpha  occ. eigenvalues --   -1.05675  -1.05226  -1.04887  -1.04405  -1.03619
 Alpha  occ. eigenvalues --   -0.94844  -0.93895  -0.91381  -0.91340  -0.91013
 Alpha  occ. eigenvalues --   -0.90853  -0.90427  -0.90140  -0.89758  -0.89619
 Alpha  occ. eigenvalues --   -0.89557  -0.89199  -0.88255  -0.87668  -0.86842
 Alpha  occ. eigenvalues --   -0.86488  -0.85929  -0.85784  -0.84867  -0.84527
 Alpha  occ. eigenvalues --   -0.84494  -0.83815  -0.83487  -0.82584  -0.82521
 Alpha  occ. eigenvalues --   -0.82263  -0.80739  -0.80166  -0.79520  -0.79108
 Alpha  occ. eigenvalues --   -0.78832  -0.78813  -0.78352  -0.77819  -0.77247
 Alpha  occ. eigenvalues --   -0.76780  -0.74729  -0.74719  -0.73834  -0.73596
 Alpha  occ. eigenvalues --   -0.71767  -0.71515  -0.70989  -0.70796  -0.70010
 Alpha  occ. eigenvalues --   -0.69614  -0.69138  -0.68771  -0.67931  -0.67185
 Alpha  occ. eigenvalues --   -0.67154  -0.66805  -0.66638  -0.66559  -0.66405
 Alpha  occ. eigenvalues --   -0.66193  -0.64441  -0.64245  -0.62404  -0.61887
 Alpha  occ. eigenvalues --   -0.61723  -0.61597  -0.61274  -0.61136  -0.60938
 Alpha  occ. eigenvalues --   -0.60460  -0.60411  -0.59710  -0.59512  -0.59236
 Alpha  occ. eigenvalues --   -0.58572  -0.58260  -0.57823  -0.57689  -0.57506
 Alpha  occ. eigenvalues --   -0.57461  -0.57229  -0.56434  -0.56322  -0.55927
 Alpha  occ. eigenvalues --   -0.55777  -0.55404  -0.55210  -0.55146  -0.55129
 Alpha  occ. eigenvalues --   -0.54919  -0.54841  -0.54646  -0.54292  -0.54255
 Alpha  occ. eigenvalues --   -0.53854  -0.53801  -0.53753  -0.53495  -0.53334
 Alpha  occ. eigenvalues --   -0.53106  -0.53096  -0.52924  -0.52504  -0.52417
 Alpha  occ. eigenvalues --   -0.51951  -0.51910  -0.51900  -0.51847  -0.51764
 Alpha  occ. eigenvalues --   -0.51414  -0.51316  -0.51137  -0.51089  -0.50980
 Alpha  occ. eigenvalues --   -0.50721  -0.50611  -0.50479  -0.50390  -0.50351
 Alpha  occ. eigenvalues --   -0.50182  -0.49678  -0.49586  -0.49208  -0.49090
 Alpha  occ. eigenvalues --   -0.49013  -0.48663  -0.48455  -0.48439  -0.48429
 Alpha  occ. eigenvalues --   -0.48280  -0.48209  -0.48069  -0.48066  -0.47989
 Alpha  occ. eigenvalues --   -0.47831  -0.47701  -0.47290  -0.47073  -0.46990
 Alpha  occ. eigenvalues --   -0.46686  -0.46469  -0.46381  -0.46019  -0.45960
 Alpha  occ. eigenvalues --   -0.45906  -0.45803  -0.45653  -0.45484  -0.45344
 Alpha  occ. eigenvalues --   -0.45322  -0.45290  -0.44929  -0.44892  -0.44634
 Alpha  occ. eigenvalues --   -0.44623  -0.44569  -0.44530  -0.44483  -0.43910
 Alpha  occ. eigenvalues --   -0.43883  -0.43677  -0.43624  -0.43392  -0.43097
 Alpha  occ. eigenvalues --   -0.42995  -0.42830  -0.42821  -0.42706  -0.42549
 Alpha  occ. eigenvalues --   -0.42420  -0.42233  -0.42086  -0.41353  -0.41259
 Alpha  occ. eigenvalues --   -0.40518  -0.40330  -0.39740  -0.39654  -0.39438
 Alpha  occ. eigenvalues --   -0.39325  -0.39256  -0.39155  -0.38697  -0.38677
 Alpha  occ. eigenvalues --   -0.38155  -0.37860  -0.37095  -0.36474  -0.36252
 Alpha  occ. eigenvalues --   -0.35747  -0.35537  -0.35313  -0.33722  -0.33402
 Alpha  occ. eigenvalues --   -0.33325  -0.33156  -0.32469  -0.31971  -0.31943
 Alpha  occ. eigenvalues --   -0.31587  -0.31449  -0.30991  -0.26306  -0.25974
 Alpha  occ. eigenvalues --   -0.22999  -0.22892
 Alpha virt. eigenvalues --   -0.07422  -0.07075   0.00210   0.00356   0.02015
 Alpha virt. eigenvalues --    0.02638   0.04157   0.04342   0.04744   0.06294
 Alpha virt. eigenvalues --    0.06415   0.06803   0.07134   0.07290   0.07895

 Mulliken charges:
               1
     1  Mg   0.978307
     2  C   -0.019996
     3  C   -0.101199
     4  C   -0.061284
     5  C   -0.071042
     6  N   -0.323187
     7  C   -0.008513
     8  C   -0.058207
     9  C   -0.138130
    10  C    0.061845
    11  C    0.058248
    12  C    0.014059
    13  C   -0.126930
    14  H    0.052345
    15  N   -0.518234
    16  C    0.183367
    17  C   -0.195958
    18  C   -0.036976
    19  C    0.166540
    20  C    0.060708
    21  C    0.056652
    22  O   -0.280060
    23  C    0.001768
    24  N   -0.410203
    25  C    0.066106
    26  C   -0.084912
    27  C   -0.063877
    28  C    0.089710
    29  C    0.031890
    30  C   -0.016694
    31  C   -0.058118
    32  N   -0.398655
    33  C    0.097281
    34  C   -0.187979
    35  C   -0.040082
    36  C    0.126298
    37  C    0.081449
    38  C    0.128856
    39  O   -0.224750
    40  C   -0.076815
    41  C    0.275824
    42  O   -0.284582
    43  O   -0.335622
    44  C    0.120613
    45  H    0.007950
    46  H    0.010655
    47  H   -0.017352
    48  H    0.026084
    49  H    0.022658
    50  H    0.047126
    51  H    0.037792
    52  H    0.040226
    53  H    0.035338
    54  H    0.067655
    55  H    0.039043
    56  H    0.040631
    57  H    0.029725
    58  H    0.049009
    59  H    0.062074
    60  H    0.057835
    61  H    0.061788
    62  H    0.052968
    63  H    0.042908
    64  H    0.035668
    65  H    0.045296
    66  H    0.034351
    67  H    0.025707
    68  H    0.032597
    69  H    0.029400
    70  H    0.029190
    71  H    0.042173
    72  H    0.049664
    73  H    0.070882
    74  H    0.031393
    75  H    0.069414
    76  H    0.065903
    77  H    0.061287
    78  H    0.062859
    79  H    0.070243
    80  Mg   0.981384
    81  C   -0.076577
    82  C   -0.054040
    83  C   -0.079988
    84  C   -0.124018
    85  N   -0.313050
    86  C   -0.015775
    87  C   -0.066059
    88  C   -0.119828
    89  C    0.048970
    90  C    0.041518
    91  C    0.037399
    92  C   -0.107475
    93  H    0.023273
    94  N   -0.419668
    95  C    0.112438
    96  C   -0.143775
    97  C   -0.073593
    98  C    0.168688
    99  C    0.081129
   100  C    0.035528
   101  O   -0.234806
   102  C   -0.012087
   103  N   -0.451577
   104  C    0.092279
   105  C   -0.128726
   106  C   -0.033679
   107  C    0.088717
   108  C    0.013818
   109  C    0.000985
   110  C   -0.047280
   111  N   -0.442037
   112  C    0.135177
   113  C   -0.189403
   114  C   -0.106374
   115  C    0.178151
   116  C    0.090749
   117  C    0.132627
   118  O   -0.174273
   119  C   -0.015138
   120  C    0.278282
   121  O   -0.234301
   122  O   -0.405105
   123  C    0.133350
   124  H   -0.006116
   125  H   -0.037393
   126  H   -0.011818
   127  H    0.025527
   128  H    0.028692
   129  H    0.043370
   130  H    0.042697
   131  H    0.036625
   132  H    0.037403
   133  H    0.040622
   134  H    0.055255
   135  H    0.048062
   136  H    0.055622
   137  H    0.053951
   138  H    0.036836
   139  H    0.051363
   140  H    0.050132
   141  H    0.057963
   142  H    0.051542
   143  H    0.033651
   144  H    0.044874
   145  H    0.038425
   146  H    0.031121
   147  H    0.038585
   148  H    0.025432
   149  H    0.036228
   150  H    0.036984
   151  H    0.035915
   152  H    0.071532
   153  H    0.053846
   154  H    0.034534
   155  H    0.072491
   156  H    0.063732
   157  H    0.051673
   158  H    0.064814
 Sum of Mulliken charges =  -0.00000

 Dipole moment (field-independent basis, Debye):
    X=              5.9244    Y=              0.2889    Z=              2.5950  Tot=              6.4743
 Quadrupole moment (field-independent basis, Debye-Ang):
   XX=           -552.5513   YY=           -546.9045   ZZ=           -497.9994
   XY=            -74.4874   XZ=             11.3204   YZ=             -1.5218

 Normal termination of Gaussian 16 at Sun Sep 19 09:23:04 2021.
