 Gaussian 16, Revision A.03,
 Gaussian 16:  ES64L-G16RevA.03 25-Dec-2016

 --------------------------------
 #p wB97XD/Def2SVP td=(nstates=5)
 --------------------------------

 --------------------------------
 TDDFT excited states in gaussian
 --------------------------------
 Symbolic Z-matrix:
 Charge =  0 Multiplicity = 1

                         Standard orientation:
 ---------------------------------------------------------------------
 Center     Atomic      Atomic             Coordinates (Angstroms)
 Number     Number       Type             X           Y           Z
 ---------------------------------------------------------------------
      1         12           0       12.517376    0.063916    0.531252
      2          6           0        9.232334   -0.150006   -0.596554
      3          6           0       13.201053    2.354477   -1.843057
      4          6           0       15.775736   -0.138318    1.407421
      5          6           0       11.867051   -2.620346    2.595617
      6          7           0       11.297048    0.981818   -1.074865
      7          6           0        9.934162    0.892063   -1.201517
      8          6           0        9.451034    1.820810   -2.249719
      9          6           0       10.674528    2.610461   -2.729177
     10          6           0       11.840260    1.995427   -1.841065
     11          6           0       10.984214    2.657216   -4.217404
     12          6           0        8.228174    2.754265   -1.702567
     13          6           0        6.855686    2.624377   -2.403756
     14          1           0        6.005003    3.841619   -2.671263
     15          7           0       14.222962    1.060918   -0.037256
     16          6           0       14.317736    1.983038   -1.068738
     17          6           0       15.665376    2.399242   -1.211848
     18          6           0       16.450915    1.679615   -0.271068
     19          6           0       15.479979    0.834289    0.431312
     20          6           0       15.983051    3.576056   -2.215159
     21          6           0       17.971098    1.762627   -0.144489
     22          8           0       18.666207    1.078638    0.621928
     23          6           0       18.707678    2.770348   -0.912260
     24          7           0       13.766377   -1.342619    1.636427
     25          6           0       15.031606   -1.154505    1.949881
     26          6           0       15.572491   -2.327957    2.797572
     27          6           0       14.210836   -2.727954    3.490914
     28          6           0       13.176369   -2.170444    2.518332
     29          6           0       16.231708   -3.580115    2.109239
     30          6           0       13.970195   -2.194890    4.984019
     31          6           0       13.974519   -0.738855    5.212081
     32          7           0       10.883460   -1.262059    0.964405
     33          6           0       10.761118   -2.334422    1.869648
     34          6           0        9.438743   -2.868625    1.793973
     35          6           0        8.817602   -2.116375    0.816971
     36          6           0        9.716102   -1.073828    0.416472
     37          6           0        8.974773   -4.107715    2.387335
     38          6           0        7.582996   -1.841329    0.248186
     39          8           0        6.482722   -2.390404    0.366305
     40          6           0        7.775021   -0.628210   -0.771830
     41          6           0        7.617961   -1.225191   -2.131243
     42          8           0        8.224901   -2.106881   -2.702194
     43          8           0        6.573640   -0.590862   -2.667047
     44          6           0        6.213019   -0.985091   -4.068271
     45          1           0       13.239766    3.235589   -2.486909
     46          1           0       16.803813   -0.057953    1.764701
     47          1           0       11.658874   -3.426266    3.302151
     48          1           0        9.077151    1.173254   -3.041832
     49          1           0       10.577667    3.644549   -2.399190
     50          1           0       11.688941    1.826510   -4.216467
     51          1           0       11.358549    3.609376   -4.593810
     52          1           0       10.204532    2.417392   -4.939859
     53          1           0        8.548588    3.795461   -1.724299
     54          1           0        7.926044    2.524317   -0.680523
     55          1           0        6.230357    2.039294   -1.728788
     56          1           0        6.912881    2.016797   -3.305925
     57          1           0       16.780123    3.251650   -2.883874
     58          1           0       16.394845    4.264730   -1.477323
     59          1           0       15.197542    3.903308   -2.896395
     60          1           0       18.526464    2.658449   -1.980352
     61          1           0       19.752020    2.462107   -0.868928
     62          1           0       18.607371    3.794931   -0.553190
     63          1           0       16.148545   -1.911957    3.624255
     64          1           0       14.259606   -3.815681    3.535674
     65          1           0       15.752429   -3.923937    1.193414
     66          1           0       16.193275   -4.326165    2.903800
     67          1           0       17.270296   -3.374569    1.848685
     68          1           0       14.711597   -2.558056    5.696153
     69          1           0       12.942924   -2.369912    5.303549
     70          1           0       12.969998   -0.441260    4.914570
     71          1           0       14.664616   -0.111989    4.646541
     72          1           0       14.091947   -0.372776    6.231502
     73          1           0        9.308048   -4.868574    1.680550
     74          1           0        7.896053   -4.191254    2.516383
     75          1           0        9.327446   -4.258648    3.408189
     76          1           0        7.117770    0.217152   -0.567867
     77          1           0        6.552716   -0.147626   -4.678076
     78          1           0        5.140237   -1.164973   -4.134377
     79          1           0        6.708224   -1.862160   -4.485900
     80         12           0      -12.172789   -0.251141   -0.526066
     81          6           0      -11.475537    2.688953    1.035182
     82          6           0       -8.966053   -0.128980   -2.012812
     83          6           0      -12.436199   -3.523500   -1.139637
     84          6           0      -15.181495   -0.559241    1.447606
     85          7           0      -10.496141    1.133973   -0.482653
     86          6           0      -10.366687    2.234574    0.181154
     87          6           0       -9.118315    3.080598   -0.255817
     88          6           0       -8.489840    2.272594   -1.454283
     89          6           0       -9.376272    0.981839   -1.380447
     90          6           0       -8.351460    3.021038   -2.780752
     91          6           0       -8.108327    3.390648    1.001443
     92          6           0       -8.144744    2.470361    2.210785
     93          1           0       -6.970842    2.425078    3.188932
     94          7           0      -10.864589   -1.627539   -1.443919
     95          6           0       -9.650550   -1.390157   -2.042374
     96          6           0       -9.123097   -2.590245   -2.529173
     97          6           0      -10.089103   -3.635591   -2.261720
     98          6           0      -11.198838   -2.957520   -1.541333
     99          6           0       -7.847824   -2.603421   -3.351923
    100          6           0       -9.900567   -5.110157   -2.661629
    101          8           0       -8.842909   -5.422703   -3.253298
    102          6           0      -10.834033   -6.170636   -2.413698
    103          7           0      -13.571435   -1.909492    0.220305
    104          6           0      -13.500680   -3.063177   -0.380740
    105          6           0      -14.711887   -3.987337   -0.068202
    106          6           0      -15.626756   -3.025041    0.720454
    107          6           0      -14.791993   -1.685452    0.829625
    108          6           0      -15.398791   -4.532540   -1.268046
    109          6           0      -16.079752   -3.618796    2.136685
    110          6           0      -17.611731   -3.996109    2.277338
    111          7           0      -13.246421    0.835664    0.858101
    112          6           0      -14.446084    0.643069    1.554599
    113          6           0      -14.719571    1.861187    2.379082
    114          6           0      -13.558872    2.630616    2.215813
    115          6           0      -12.673501    1.966358    1.315941
    116          6           0      -15.865593    2.165266    3.214718
    117          6           0      -12.978399    3.805417    2.681813
    118          8           0      -13.354775    4.702657    3.450148
    119          6           0      -11.654417    3.952741    1.879407
    120          6           0      -11.691719    5.308402    1.134643
    121          8           0      -10.860671    6.199713    1.172970
    122          8           0      -12.821879    5.444425    0.357766
    123          6           0      -12.997497    6.705519   -0.372334
    124          1           0       -7.944781   -0.023313   -2.384264
    125          1           0      -12.654772   -4.548204   -1.446644
    126          1           0      -16.173052   -0.591383    1.903694
    127          1           0       -9.513505    3.979466   -0.729814
    128          1           0       -7.494557    1.894836   -1.218112
    129          1           0       -9.002282    2.566365   -3.527360
    130          1           0       -7.336401    2.974051   -3.176845
    131          1           0       -8.540017    4.093893   -2.740616
    132          1           0       -8.363130    4.427082    1.224013
    133          1           0       -7.044816    3.329920    0.769450
    134          1           0       -8.279665    1.486389    1.762435
    135          1           0       -9.077284    2.710644    2.721721
    136          1           0       -7.853865   -3.028543   -4.355921
    137          1           0       -7.054618   -3.053614   -2.754595
    138          1           0       -7.508808   -1.577229   -3.492372
    139          1           0      -11.821859   -6.096122   -2.868048
    140          1           0      -11.115709   -6.188658   -1.361355
    141          1           0      -10.421976   -7.164997   -2.582770
    142          1           0      -14.540926   -4.895169    0.510196
    143          1           0      -16.502253   -2.703913    0.155982
    144          1           0      -15.196546   -5.582662   -1.478278
    145          1           0      -14.994307   -4.087334   -2.177753
    146          1           0      -16.475553   -4.386658   -1.183572
    147          1           0      -15.935182   -2.840953    2.887687
    148          1           0      -15.595761   -4.556080    2.407833
    149          1           0      -17.704957   -4.977427    2.740857
    150          1           0      -18.014488   -4.133960    1.273819
    151          1           0      -18.020438   -3.250030    2.959076
    152          1           0      -16.697630    1.660287    2.723436
    153          1           0      -16.053087    3.239436    3.234504
    154          1           0      -15.598055    1.851163    4.223176
    155          1           0      -10.796271    4.192150    2.506972
    156          1           0      -14.061619    6.844028   -0.564477
    157          1           0      -12.546914    6.795316   -1.360640
    158          1           0      -12.565748    7.570313    0.132333
 ---------------------------------------------------------------------

 SCF Done:  E(RwB97XD) =  -4070.55478205     A.U. after   19 cycles

 Excitation energies and oscillator strengths:

 Excited State   1:      Singlet-A      1.6458 eV  753.33 nm  f=0.3925  <S**2>=0.000
     310 -> 316       -0.17503
     311 -> 313       -0.17717
     312 -> 314        0.66056
     310 <- 316       -0.11159
 This state for optimization and/or second-order correction.
 Total Energy, E(TD-HF/TD-DFT) =  -4070.49429956
 Copying the excited state density for this state as the 1-particle RhoCI density.

 Excited State   2:      Singlet-A      1.6548 eV  749.23 nm  f=0.4154  <S**2>=0.000
     309 -> 315        0.16084
     311 -> 313        0.66339
     312 -> 314        0.17617
     309 <- 315        0.10782

 Excited State   3:      Singlet-A      2.1206 eV  584.68 nm  f=0.1375  <S**2>=0.000
     310 -> 314        0.64930
     312 -> 316        0.26640

 Excited State   4:      Singlet-A      2.1980 eV  564.07 nm  f=0.1155  <S**2>=0.000
     309 -> 313        0.64035
     311 -> 315       -0.27522

 Excited State   5:      Singlet-A      3.2225 eV  384.74 nm  f=0.0079  <S**2>=0.000
     302 -> 313        0.15211
     308 -> 313        0.66965
     308 -> 317        0.10527

 The electronic state is 1-A.
 Alpha  occ. eigenvalues --  -46.96621 -46.95641 -19.30228 -19.30137 -19.25062
 Alpha  occ. eigenvalues --  -19.24075 -19.23982 -19.23664 -19.23267 -19.22328
 Alpha  occ. eigenvalues --  -14.47755 -14.46544 -14.46450 -14.46385 -14.45131
 Alpha  occ. eigenvalues --  -14.44323 -14.44274 -14.43537 -10.43597 -10.42408
 Alpha  occ. eigenvalues --  -10.39004 -10.38757 -10.38153 -10.38099 -10.37021
 Alpha  occ. eigenvalues --  -10.35862 -10.35430 -10.35424 -10.35279 -10.35256
 Alpha  occ. eigenvalues --  -10.35199 -10.34698 -10.34648 -10.34594 -10.34565
 Alpha  occ. eigenvalues --  -10.34429 -10.34261 -10.34064 -10.33815 -10.33777
 Alpha  occ. eigenvalues --  -10.33470 -10.33311 -10.33086 -10.32962 -10.32896
 Alpha  occ. eigenvalues --  -10.32877 -10.32770 -10.32574 -10.32540 -10.32508
 Alpha  occ. eigenvalues --  -10.32327 -10.32289 -10.32256 -10.32253 -10.31967
 Alpha  occ. eigenvalues --  -10.31910 -10.31811 -10.31688 -10.31564 -10.31547
 Alpha  occ. eigenvalues --  -10.31508 -10.31442 -10.31428 -10.31156 -10.31101
 Alpha  occ. eigenvalues --  -10.31077 -10.31017 -10.31005 -10.30801 -10.30736
 Alpha  occ. eigenvalues --  -10.30686 -10.30494 -10.30289 -10.30281 -10.30213
 Alpha  occ. eigenvalues --  -10.30082 -10.29956 -10.29880 -10.29815 -10.29814
 Alpha  occ. eigenvalues --  -10.29683 -10.29420 -10.29400 -10.28700 -10.28664
 Alpha  occ. eigenvalues --  -10.28508  -3.22493  -3.21505  -1.96053  -1.95643
 Alpha  occ. eigenvalues --   -1.95424  -1.95094  -1.94602  -1.94490  -1.19146
 Alpha  occ. eigenvalues --   -1.18319  -1.11322  -1.11301  -1.10778  -1.09697
 Alpha  occ. eigenvalues --   -1.09572  -1.09514  -1.07395  -1.07008  -1.06465
 Alpha  occ. eigenvalues --   -1.06267  -1.05672  -1.05364  -1.04620  -1.04181
 Alpha  occ. eigenvalues --   -0.95005  -0.94158  -0.91563  -0.91242  -0.91087
 Alpha  occ. eigenvalues --   -0.90862  -0.90584  -0.90283  -0.90277  -0.89849
 Alpha  occ. eigenvalues --   -0.89633  -0.89491  -0.88773  -0.87137  -0.86531
 Alpha  occ. eigenvalues --   -0.86509  -0.86116  -0.86020  -0.84953  -0.84775
 Alpha  occ. eigenvalues --   -0.84354  -0.83903  -0.83475  -0.83402  -0.82663
 Alpha  occ. eigenvalues --   -0.82222  -0.80676  -0.80397  -0.79564  -0.79298
 Alpha  occ. eigenvalues --   -0.79273  -0.78821  -0.78254  -0.77858  -0.77258
 Alpha  occ. eigenvalues --   -0.77164  -0.75442  -0.75357  -0.73895  -0.73626
 Alpha  occ. eigenvalues --   -0.71570  -0.71305  -0.71005  -0.70798  -0.70290
 Alpha  occ. eigenvalues --   -0.69698  -0.69135  -0.68770  -0.67900  -0.67695
 Alpha  occ. eigenvalues --   -0.67581  -0.67342  -0.66776  -0.66740  -0.66493
 Alpha  occ. eigenvalues --   -0.65918  -0.65321  -0.64009  -0.62842  -0.62392
 Alpha  occ. eigenvalues --   -0.61937  -0.61876  -0.61270  -0.60874  -0.60562
 Alpha  occ. eigenvalues --   -0.60475  -0.60211  -0.59958  -0.59853  -0.59186
 Alpha  occ. eigenvalues --   -0.58385  -0.58240  -0.57654  -0.57554  -0.57552
 Alpha  occ. eigenvalues --   -0.57444  -0.56957  -0.56735  -0.56692  -0.56604
 Alpha  occ. eigenvalues --   -0.56443  -0.55801  -0.55389  -0.55258  -0.55159
 Alpha  occ. eigenvalues --   -0.55131  -0.54911  -0.54740  -0.54606  -0.54546
 Alpha  occ. eigenvalues --   -0.54112  -0.54100  -0.53810  -0.53356  -0.53211
 Alpha  occ. eigenvalues --   -0.53082  -0.52983  -0.52786  -0.52555  -0.52297
 Alpha  occ. eigenvalues --   -0.52206  -0.51848  -0.51690  -0.51622  -0.51423
 Alpha  occ. eigenvalues --   -0.51352  -0.51116  -0.51097  -0.50919  -0.50876
 Alpha  occ. eigenvalues --   -0.50699  -0.50415  -0.50405  -0.50243  -0.50198
 Alpha  occ. eigenvalues --   -0.49993  -0.49513  -0.49293  -0.49276  -0.49075
 Alpha  occ. eigenvalues --   -0.49061  -0.48755  -0.48726  -0.48690  -0.48573
 Alpha  occ. eigenvalues --   -0.48140  -0.48045  -0.47879  -0.47801  -0.47719
 Alpha  occ. eigenvalues --   -0.47608  -0.47141  -0.47133  -0.46912  -0.46784
 Alpha  occ. eigenvalues --   -0.46523  -0.46486  -0.46349  -0.46336  -0.46046
 Alpha  occ. eigenvalues --   -0.45994  -0.45689  -0.45586  -0.45517  -0.45256
 Alpha  occ. eigenvalues --   -0.45110  -0.44890  -0.44657  -0.44486  -0.44426
 Alpha  occ. eigenvalues --   -0.44116  -0.44110  -0.44027  -0.44026  -0.43838
 Alpha  occ. eigenvalues --   -0.43711  -0.43583  -0.43365  -0.42976  -0.42818
 Alpha  occ. eigenvalues --   -0.42802  -0.42704  -0.42607  -0.42561  -0.42048
 Alpha  occ. eigenvalues --   -0.41911  -0.41710  -0.41369  -0.40928  -0.40816
 Alpha  occ. eigenvalues --   -0.40612  -0.40052  -0.40004  -0.39940  -0.39744
 Alpha  occ. eigenvalues --   -0.39600  -0.39044  -0.38755  -0.38469  -0.38388
 Alpha  occ. eigenvalues --   -0.38351  -0.38014  -0.36769  -0.36437  -0.36264
 Alpha  occ. eigenvalues --   -0.36207  -0.36194  -0.35707  -0.33741  -0.33648
 Alpha  occ. eigenvalues --   -0.33145  -0.33088  -0.32938  -0.32671  -0.32465
 Alpha  occ. eigenvalues --   -0.32110  -0.31952  -0.31073  -0.26814  -0.25894
 Alpha  occ. eigenvalues --   -0.23419  -0.23219
 Alpha virt. eigenvalues --   -0.07827  -0.07304   0.00086   0.00325   0.02050
 Alpha virt. eigenvalues --    0.02371   0.03858   0.04388   0.04418   0.05336
 Alpha virt. eigenvalues --    0.07237   0.07666   0.07781   0.08100   0.08660

 Mulliken charges:
               1
     1  Mg   0.939095
     2  C   -0.014720
     3  C   -0.073818
     4  C   -0.062240
     5  C   -0.108140
     6  N   -0.378607
     7  C    0.014527
     8  C   -0.066783
     9  C   -0.052573
    10  C   -0.019228
    11  C    0.003421
    12  C    0.004014
    13  C   -0.135762
    14  H    0.038214
    15  N   -0.463604
    16  C    0.198336
    17  C   -0.182569
    18  C   -0.073595
    19  C    0.131239
    20  C    0.082918
    21  C    0.052644
    22  O   -0.248119
    23  C   -0.009902
    24  N   -0.296423
    25  C    0.020313
    26  C   -0.042713
    27  C   -0.112649
    28  C    0.095826
    29  C    0.041908
    30  C    0.013787
    31  C   -0.088572
    32  N   -0.408951
    33  C    0.114944
    34  C   -0.133292
    35  C    0.022898
    36  C    0.108307
    37  C    0.062361
    38  C    0.079739
    39  O   -0.226360
    40  C   -0.091710
    41  C    0.269379
    42  O   -0.244493
    43  O   -0.346911
    44  C    0.120615
    45  H   -0.007395
    46  H    0.014631
    47  H   -0.002357
    48  H    0.047246
    49  H    0.033908
    50  H    0.048115
    51  H    0.041936
    52  H    0.040814
    53  H    0.041706
    54  H    0.042573
    55  H    0.057993
    56  H    0.038112
    57  H    0.037916
    58  H    0.060517
    59  H    0.052850
    60  H    0.039007
    61  H    0.045840
    62  H    0.075365
    63  H    0.019711
    64  H    0.023025
    65  H    0.050121
    66  H    0.040543
    67  H    0.051529
    68  H    0.036041
    69  H    0.028745
    70  H    0.022234
    71  H    0.034890
    72  H    0.039564
    73  H    0.074398
    74  H    0.056004
    75  H    0.036010
    76  H    0.056734
    77  H    0.046664
    78  H    0.068481
    79  H    0.073779
    80  Mg   0.956999
    81  C    0.004013
    82  C   -0.071908
    83  C   -0.044020
    84  C   -0.099346
    85  N   -0.349468
    86  C    0.011152
    87  C   -0.050986
    88  C   -0.100635
    89  C    0.039643
    90  C    0.023952
    91  C   -0.030498
    92  C   -0.101858
    93  H    0.062762
    94  N   -0.458824
    95  C    0.154217
    96  C   -0.150600
    97  C   -0.094522
    98  C    0.205581
    99  C    0.091735
   100  C    0.063258
   101  O   -0.267528
   102  C   -0.000086
   103  N   -0.297870
   104  C    0.010977
   105  C   -0.080673
   106  C   -0.046039
   107  C    0.048450
   108  C    0.002566
   109  C   -0.042743
   110  C   -0.065009
   111  N   -0.464660
   112  C    0.133635
   113  C   -0.171460
   114  C   -0.013209
   115  C    0.155604
   116  C    0.081444
   117  C    0.117849
   118  O   -0.220482
   119  C   -0.107871
   120  C    0.242602
   121  O   -0.244140
   122  O   -0.368831
   123  C    0.139874
   124  H    0.011969
   125  H   -0.042732
   126  H    0.000577
   127  H    0.052320
   128  H    0.038924
   129  H    0.039359
   130  H    0.034768
   131  H    0.041148
   132  H    0.057097
   133  H    0.041344
   134  H    0.052381
   135  H    0.036457
   136  H    0.060530
   137  H    0.047478
   138  H    0.000070
   139  H    0.063299
   140  H    0.040979
   141  H    0.054811
   142  H    0.045349
   143  H    0.032386
   144  H    0.028525
   145  H    0.031341
   146  H    0.039397
   147  H    0.036132
   148  H    0.041047
   149  H    0.033271
   150  H    0.036125
   151  H    0.047741
   152  H    0.043631
   153  H    0.066730
   154  H    0.074551
   155  H    0.058527
   156  H    0.052625
   157  H    0.037342
   158  H    0.061452
 Sum of Mulliken charges =  -0.00000

 Dipole moment (field-independent basis, Debye):
    X=             -3.3801    Y=              2.0143    Z=             -2.6666  Tot=              4.7533
 Quadrupole moment (field-independent basis, Debye-Ang):
   XX=           -389.7963   YY=           -517.3545   ZZ=           -497.7155
   XY=             76.7454   XZ=             22.9826   YZ=            -57.4484

 Normal termination of Gaussian 16 at Sat Sep 18 19:16:24 2021.
