 Gaussian 16, Revision A.03,
 Gaussian 16:  ES64L-G16RevA.03 25-Dec-2016

 --------------------------------
 #p wB97XD/Def2SVP td=(nstates=5)
 --------------------------------

 --------------------------------
 TDDFT excited states in gaussian
 --------------------------------
 Symbolic Z-matrix:
 Charge =  0 Multiplicity = 1

                         Standard orientation:
 ---------------------------------------------------------------------
 Center     Atomic      Atomic             Coordinates (Angstroms)
 Number     Number       Type             X           Y           Z
 ---------------------------------------------------------------------
      1         12           0       19.653241    0.407447    0.505221
      2          6           0       17.211444   -1.530869   -1.259824
      3          6           0       20.343508    1.943627   -2.594336
      4          6           0       22.367745    1.729413    1.765396
      5          6           0       19.059206   -1.459033    3.284761
      6          7           0       18.811192    0.236663   -1.643083
      7          6           0       17.769601   -0.547413   -2.011333
      8          6           0       17.377872   -0.195668   -3.437047
      9          6           0       18.322733    0.936631   -3.929287
     10          6           0       19.191688    1.086085   -2.665657
     11          6           0       19.135442    0.564619   -5.294260
     12          6           0       15.866004    0.276345   -3.560685
     13          6           0       15.038896   -0.362461   -4.676823
     14          1           0       15.705080   -0.776734   -6.049930
     15          7           0       21.192665    1.634254   -0.328351
     16          6           0       21.253645    2.140837   -1.541619
     17          6           0       22.456461    2.920880   -1.620449
     18          6           0       23.042508    3.036680   -0.334464
     19          6           0       22.237836    2.101457    0.407153
     20          6           0       22.819911    3.755997   -2.847089
     21          6           0       24.130267    3.915400    0.263047
     22          8           0       24.527282    3.792602    1.407301
     23          6           0       24.661051    5.006540   -0.625560
     24          7           0       20.762790   -0.111482    2.147323
     25          6           0       21.771476    0.756923    2.568657
     26          6           0       22.138869    0.582140    4.067315
     27          6           0       20.933797   -0.327813    4.515804
     28          6           0       20.180623   -0.665552    3.229185
     29          6           0       23.538042   -0.031888    4.219770
     30          6           0       19.901488    0.411674    5.491905
     31          6           0       19.910064    0.052905    6.940082
     32          7           0       18.355445   -1.062430    0.983257
     33          6           0       18.255059   -1.756480    2.169663
     34          6           0       17.300106   -2.859516    2.101625
     35          6           0       16.840358   -2.813885    0.737173
     36          6           0       17.592045   -1.806390    0.087711
     37          6           0       16.824130   -3.627011    3.281598
     38          6           0       15.884321   -3.356817   -0.215590
     39          8           0       15.036330   -4.243281   -0.006023
     40          6           0       16.105714   -2.545048   -1.615382
     41          6           0       16.513869   -3.560397   -2.573308
     42          8           0       17.468815   -4.289277   -2.415960
     43          8           0       15.711979   -3.574922   -3.644629
     44          6           0       15.878410   -4.565640   -4.753923
     45          1           0       20.549149    2.503698   -3.508838
     46          1           0       22.964538    2.408030    2.379463
     47          1           0       18.845232   -1.973401    4.223673
     48          1           0       17.557594   -1.082689   -4.044516
     49          1           0       17.770161    1.825858   -4.233146
     50          1           0       18.616650   -0.212889   -5.855090
     51          1           0       20.120605    0.246593   -4.952082
     52          1           0       19.251105    1.458290   -5.907293
     53          1           0       15.721649    1.354189   -3.621029
     54          1           0       15.331151    0.002342   -2.651394
     55          1           0       14.179403    0.253357   -4.942503
     56          1           0       14.608339   -1.234101   -4.183896
     57          1           0       22.530562    4.804557   -2.775144
     58          1           0       22.480066    3.284492   -3.769694
     59          1           0       23.905384    3.707960   -2.930936
     60          1           0       23.910180    5.529861   -1.218298
     61          1           0       25.418293    4.686616   -1.339970
     62          1           0       24.988429    5.839033   -0.002704
     63          1           0       22.124651    1.572845    4.520811
     64          1           0       21.346167   -1.201525    5.020633
     65          1           0       24.115633   -0.075236    3.296504
     66          1           0       23.488740   -1.063306    4.567065
     67          1           0       24.100238    0.537840    4.960392
     68          1           0       18.851844    0.291042    5.224017
     69          1           0       19.983377    1.496886    5.443381
     70          1           0       20.201152    0.914486    7.539594
     71          1           0       20.659091   -0.737581    6.990452
     72          1           0       18.919178   -0.269926    7.259353
     73          1           0       15.777202   -3.909262    3.175652
     74          1           0       17.073717   -3.026091    4.155876
     75          1           0       17.421104   -4.539233    3.319582
     76          1           0       15.184709   -2.077950   -1.961590
     77          1           0       15.946072   -5.569527   -4.334305
     78          1           0       16.779363   -4.389500   -5.342110
     79          1           0       15.119507   -4.484380   -5.531613
     80         12           0      -19.498600   -0.586755   -0.425823
     81          6           0      -19.020613    2.870996    0.309824
     82          6           0      -16.408968   -1.041870    0.696244
     83          6           0      -20.161552   -3.886276   -0.117342
     84          6           0      -22.970631    0.196400   -0.604331
     85          7           0      -17.920151    0.726149    0.264414
     86          6           0      -17.884166    2.129462    0.414189
     87          6           0      -16.506201    2.656963    0.924391
     88          6           0      -15.680493    1.340410    0.978222
     89          6           0      -16.693495    0.263964    0.534315
     90          6           0      -14.439225    1.537964    0.092251
     91          6           0      -16.482059    3.438763    2.308243
     92          6           0      -16.106211    4.915064    2.255364
     93          1           0      -14.919510    5.377321    3.125380
     94          7           0      -18.454467   -2.231542    0.094423
     95          6           0      -17.137618   -2.199262    0.552823
     96          6           0      -16.636095   -3.504927    0.705674
     97          6           0      -17.631739   -4.391867    0.339841
     98          6           0      -18.801651   -3.571594    0.099368
     99          6           0      -15.200729   -3.963205    1.160194
    100          6           0      -17.425662   -5.887734    0.292850
    101          8           0      -16.370309   -6.426145    0.449369
    102          6           0      -18.714435   -6.749329   -0.131889
    103          7           0      -21.304149   -1.699826   -0.294728
    104          6           0      -21.290509   -3.065342   -0.209635
    105          6           0      -22.794315   -3.531835   -0.041543
    106          6           0      -23.688016   -2.310675   -0.315198
    107          6           0      -22.598366   -1.174646   -0.397033
    108          6           0      -23.153124   -4.789450   -0.780899
    109          6           0      -24.588015   -2.059986    0.888384
    110          6           0      -25.857924   -1.286372    0.652096
    111          7           0      -20.749706    1.201130   -0.445724
    112          6           0      -22.112528    1.344056   -0.552975
    113          6           0      -22.462397    2.717952   -0.563290
    114          6           0      -21.274759    3.439361   -0.296268
    115          6           0      -20.291422    2.425764   -0.117255
    116          6           0      -23.815191    3.301550   -0.653384
    117          6           0      -20.611162    4.729586   -0.065254
    118          8           0      -21.089580    5.868991   -0.145223
    119          6           0      -19.109269    4.436148    0.315353
    120          6           0      -18.255590    4.888144   -0.750760
    121          8           0      -18.165195    4.247325   -1.824610
    122          8           0      -17.702810    6.051969   -0.356067
    123          6           0      -16.621849    6.645931   -1.189585
    124          1           0      -15.382992   -1.224942    1.023363
    125          1           0      -20.325939   -4.965183   -0.077074
    126          1           0      -24.004058    0.504344   -0.774629
    127          1           0      -16.069356    3.322454    0.179882
    128          1           0      -15.359885    1.068368    1.983401
    129          1           0      -13.957999    0.564288    0.004840
    130          1           0      -13.698536    2.247479    0.460883
    131          1           0      -14.695404    1.881438   -0.910625
    132          1           0      -15.648032    2.987531    2.845770
    133          1           0      -17.417330    3.278931    2.844842
    134          1           0      -16.997266    5.484744    2.521376
    135          1           0      -15.819229    5.174175    1.235635
    136          1           0      -15.362975   -4.654012    1.987829
    137          1           0      -14.594046   -3.125021    1.502602
    138          1           0      -14.563909   -4.377807    0.378786
    139          1           0      -18.360981   -7.775516   -0.227894
    140          1           0      -19.021923   -6.281021   -1.067199
    141          1           0      -19.392541   -6.561421    0.700501
    142          1           0      -22.855952   -3.786053    1.017192
    143          1           0      -24.316806   -2.350028   -1.204625
    144          1           0      -24.210280   -4.742823   -1.040910
    145          1           0      -22.937966   -5.609108   -0.095067
    146          1           0      -22.517683   -5.005187   -1.639044
    147          1           0      -24.070558   -1.573773    1.715896
    148          1           0      -24.880868   -2.986268    1.382650
    149          1           0      -26.086337   -1.157901   -0.405776
    150          1           0      -25.736325   -0.302810    1.106337
    151          1           0      -26.678395   -1.704100    1.235480
    152          1           0      -24.497096    2.655216   -1.206888
    153          1           0      -23.687134    4.252530   -1.171002
    154          1           0      -24.164261    3.380658    0.376430
    155          1           0      -18.810285    4.790615    1.301804
    156          1           0      -16.822774    7.706417   -1.030761
    157          1           0      -16.647552    6.338892   -2.234717
    158          1           0      -15.645487    6.533827   -0.716947
 ---------------------------------------------------------------------

 SCF Done:  E(RwB97XD) =  -4070.60549078     A.U. after   19 cycles

 Excitation energies and oscillator strengths:

 Excited State   1:      Singlet-A      1.6235 eV  763.68 nm  f=0.4006  <S**2>=0.000
     310 -> 316        0.17883
     312 -> 313        0.68442
     310 <- 316        0.11639
 This state for optimization and/or second-order correction.
 Total Energy, E(TD-HF/TD-DFT) =  -4070.54582809
 Copying the excited state density for this state as the 1-particle RhoCI density.

 Excited State   2:      Singlet-A      1.6725 eV  741.31 nm  f=0.3898  <S**2>=0.000
     309 -> 315        0.17577
     311 -> 314        0.68526
     309 <- 315        0.11221

 Excited State   3:      Singlet-A      2.1423 eV  578.73 nm  f=0.1286  <S**2>=0.000
     310 -> 313        0.64799
     312 -> 316       -0.26644

 Excited State   4:      Singlet-A      2.2044 eV  562.45 nm  f=0.1139  <S**2>=0.000
     309 -> 314        0.63531
     311 -> 315       -0.29122

 Excited State   5:      Singlet-A      3.2889 eV  376.98 nm  f=0.0021  <S**2>=0.000
     302 -> 314       -0.11981
     308 -> 314        0.66475

 The electronic state is 1-A.
 Alpha  occ. eigenvalues --  -46.94990 -46.94875 -19.31710 -19.30479 -19.24701
 Alpha  occ. eigenvalues --  -19.24593 -19.24568 -19.24127 -19.23776 -19.23466
 Alpha  occ. eigenvalues --  -14.47182 -14.46782 -14.46508 -14.46326 -14.44175
 Alpha  occ. eigenvalues --  -14.44015 -14.43672 -14.43050 -10.43336 -10.42326
 Alpha  occ. eigenvalues --  -10.39767 -10.39552 -10.39482 -10.39408 -10.36589
 Alpha  occ. eigenvalues --  -10.36296 -10.35712 -10.35514 -10.35391 -10.35106
 Alpha  occ. eigenvalues --  -10.34809 -10.34610 -10.34522 -10.34522 -10.34289
 Alpha  occ. eigenvalues --  -10.33704 -10.33692 -10.33627 -10.33225 -10.33039
 Alpha  occ. eigenvalues --  -10.33014 -10.32762 -10.32647 -10.32640 -10.32419
 Alpha  occ. eigenvalues --  -10.32416 -10.32350 -10.32281 -10.32204 -10.32180
 Alpha  occ. eigenvalues --  -10.32011 -10.31978 -10.31973 -10.31872 -10.31855
 Alpha  occ. eigenvalues --  -10.31806 -10.31696 -10.31647 -10.31339 -10.31286
 Alpha  occ. eigenvalues --  -10.31170 -10.31138 -10.31067 -10.30991 -10.30987
 Alpha  occ. eigenvalues --  -10.30968 -10.30674 -10.30624 -10.30331 -10.30325
 Alpha  occ. eigenvalues --  -10.30274 -10.30274 -10.30244 -10.30059 -10.29966
 Alpha  occ. eigenvalues --  -10.29942 -10.29760 -10.29696 -10.29664 -10.29658
 Alpha  occ. eigenvalues --  -10.29638 -10.29324 -10.29269 -10.28975 -10.28858
 Alpha  occ. eigenvalues --  -10.28829  -3.21054  -3.20915  -1.94608  -1.94480
 Alpha  occ. eigenvalues --   -1.94187  -1.94031  -1.94019  -1.93907  -1.18812
 Alpha  occ. eigenvalues --   -1.18741  -1.14230  -1.13075  -1.10880  -1.10713
 Alpha  occ. eigenvalues --   -1.09574  -1.09561  -1.06701  -1.06155  -1.05539
 Alpha  occ. eigenvalues --   -1.05243  -1.05162  -1.04849  -1.03946  -1.03763
 Alpha  occ. eigenvalues --   -0.94166  -0.94158  -0.91517  -0.91215  -0.90684
 Alpha  occ. eigenvalues --   -0.90526  -0.90173  -0.89986  -0.89289  -0.89074
 Alpha  occ. eigenvalues --   -0.88970  -0.88633  -0.88424  -0.88381  -0.86722
 Alpha  occ. eigenvalues --   -0.86169  -0.86130  -0.86029  -0.85189  -0.84578
 Alpha  occ. eigenvalues --   -0.83837  -0.83765  -0.83245  -0.83108  -0.82677
 Alpha  occ. eigenvalues --   -0.82263  -0.80243  -0.79652  -0.79621  -0.79336
 Alpha  occ. eigenvalues --   -0.78818  -0.78615  -0.78200  -0.78170  -0.77100
 Alpha  occ. eigenvalues --   -0.76806  -0.74731  -0.74500  -0.73711  -0.73417
 Alpha  occ. eigenvalues --   -0.71247  -0.70765  -0.70519  -0.69771  -0.69719
 Alpha  occ. eigenvalues --   -0.69628  -0.69240  -0.68944  -0.67657  -0.67498
 Alpha  occ. eigenvalues --   -0.67493  -0.67117  -0.67007  -0.66647  -0.66566
 Alpha  occ. eigenvalues --   -0.66509  -0.64428  -0.64218  -0.62511  -0.62187
 Alpha  occ. eigenvalues --   -0.61613  -0.61390  -0.61194  -0.60841  -0.60485
 Alpha  occ. eigenvalues --   -0.60463  -0.60196  -0.60050  -0.59481  -0.59147
 Alpha  occ. eigenvalues --   -0.58380  -0.58107  -0.57995  -0.57684  -0.57165
 Alpha  occ. eigenvalues --   -0.56967  -0.56627  -0.56305  -0.56203  -0.55773
 Alpha  occ. eigenvalues --   -0.55463  -0.55274  -0.55102  -0.54958  -0.54869
 Alpha  occ. eigenvalues --   -0.54824  -0.54562  -0.54430  -0.54358  -0.54271
 Alpha  occ. eigenvalues --   -0.54022  -0.53630  -0.53396  -0.53229  -0.53147
 Alpha  occ. eigenvalues --   -0.53129  -0.52557  -0.52485  -0.52452  -0.52272
 Alpha  occ. eigenvalues --   -0.52081  -0.52017  -0.51945  -0.51932  -0.51755
 Alpha  occ. eigenvalues --   -0.51188  -0.51170  -0.51023  -0.50887  -0.50721
 Alpha  occ. eigenvalues --   -0.50506  -0.50385  -0.50344  -0.50164  -0.50049
 Alpha  occ. eigenvalues --   -0.49973  -0.49690  -0.49459  -0.49415  -0.49374
 Alpha  occ. eigenvalues --   -0.48894  -0.48675  -0.48549  -0.48367  -0.48240
 Alpha  occ. eigenvalues --   -0.48180  -0.48066  -0.48032  -0.47842  -0.47577
 Alpha  occ. eigenvalues --   -0.47244  -0.47243  -0.47056  -0.47054  -0.46884
 Alpha  occ. eigenvalues --   -0.46684  -0.46476  -0.46245  -0.46208  -0.46068
 Alpha  occ. eigenvalues --   -0.45771  -0.45742  -0.45558  -0.45440  -0.45282
 Alpha  occ. eigenvalues --   -0.45251  -0.44990  -0.44990  -0.44716  -0.44707
 Alpha  occ. eigenvalues --   -0.44618  -0.44516  -0.44460  -0.44228  -0.43834
 Alpha  occ. eigenvalues --   -0.43786  -0.43582  -0.43554  -0.43500  -0.43357
 Alpha  occ. eigenvalues --   -0.43214  -0.42928  -0.42510  -0.42452  -0.42203
 Alpha  occ. eigenvalues --   -0.42107  -0.41999  -0.41630  -0.41280  -0.41091
 Alpha  occ. eigenvalues --   -0.40392  -0.40302  -0.40123  -0.39870  -0.39578
 Alpha  occ. eigenvalues --   -0.39251  -0.39072  -0.38774  -0.38551  -0.38245
 Alpha  occ. eigenvalues --   -0.38139  -0.37936  -0.36467  -0.36237  -0.36144
 Alpha  occ. eigenvalues --   -0.35719  -0.35252  -0.35197  -0.34022  -0.33711
 Alpha  occ. eigenvalues --   -0.33419  -0.32984  -0.32801  -0.32735  -0.32664
 Alpha  occ. eigenvalues --   -0.32285  -0.31599  -0.31064  -0.26211  -0.25769
 Alpha  occ. eigenvalues --   -0.23067  -0.22782
 Alpha virt. eigenvalues --   -0.07097  -0.07094   0.00226   0.00783   0.02195
 Alpha virt. eigenvalues --    0.02653   0.04137   0.04789   0.04916   0.05445
 Alpha virt. eigenvalues --    0.06755   0.07223   0.07349   0.07848   0.08097

 Mulliken charges:
               1
     1  Mg   0.966246
     2  C   -0.049282
     3  C   -0.089658
     4  C   -0.059760
     5  C   -0.106204
     6  N   -0.317508
     7  C    0.011284
     8  C   -0.040402
     9  C   -0.105320
    10  C    0.050282
    11  C   -0.005199
    12  C   -0.008641
    13  C   -0.109757
    14  H    0.017174
    15  N   -0.388139
    16  C    0.163916
    17  C   -0.188108
    18  C   -0.059174
    19  C    0.115297
    20  C    0.051679
    21  C    0.080691
    22  O   -0.219430
    23  C   -0.036775
    24  N   -0.403503
    25  C    0.019076
    26  C   -0.074890
    27  C   -0.053953
    28  C    0.103467
    29  C    0.032754
    30  C   -0.056530
    31  C   -0.031324
    32  N   -0.481313
    33  C    0.161558
    34  C   -0.187071
    35  C   -0.019227
    36  C    0.160031
    37  C    0.089907
    38  C    0.119765
    39  O   -0.226478
    40  C   -0.061754
    41  C    0.258008
    42  O   -0.245659
    43  O   -0.357587
    44  C    0.146448
    45  H   -0.009379
    46  H    0.024544
    47  H    0.001021
    48  H    0.044161
    49  H    0.046785
    50  H    0.047925
    51  H    0.045200
    52  H    0.037820
    53  H    0.030165
    54  H    0.028324
    55  H    0.044331
    56  H    0.052380
    57  H    0.066462
    58  H    0.038142
    59  H    0.031198
    60  H    0.036022
    61  H    0.074664
    62  H    0.049261
    63  H    0.043693
    64  H    0.035676
    65  H    0.053051
    66  H    0.026348
    67  H    0.041776
    68  H    0.029337
    69  H    0.020476
    70  H    0.036570
    71  H    0.025307
    72  H    0.038902
    73  H    0.066603
    74  H    0.037244
    75  H    0.055619
    76  H    0.057912
    77  H    0.070430
    78  H    0.046848
    79  H    0.060242
    80  Mg   0.984563
    81  C   -0.043593
    82  C   -0.131992
    83  C   -0.102609
    84  C   -0.063466
    85  N   -0.377671
    86  C    0.011531
    87  C   -0.047336
    88  C   -0.123608
    89  C    0.121235
    90  C    0.014130
    91  C    0.012293
    92  C   -0.135674
    93  H    0.033887
    94  N   -0.504952
    95  C    0.212650
    96  C   -0.172100
    97  C   -0.054925
    98  C    0.150118
    99  C    0.105849
   100  C    0.008308
   101  O   -0.195232
   102  C   -0.027942
   103  N   -0.393419
   104  C    0.110750
   105  C   -0.081208
   106  C   -0.082586
   107  C    0.108031
   108  C    0.029343
   109  C   -0.045348
   110  C   -0.025381
   111  N   -0.385791
   112  C    0.093525
   113  C   -0.223113
   114  C    0.000599
   115  C    0.116451
   116  C    0.079627
   117  C    0.128973
   118  O   -0.222430
   119  C   -0.072440
   120  C    0.292543
   121  O   -0.279984
   122  O   -0.349493
   123  C    0.124675
   124  H   -0.016748
   125  H   -0.040256
   126  H   -0.012876
   127  H    0.028273
   128  H    0.045454
   129  H    0.027711
   130  H    0.042778
   131  H    0.043005
   132  H    0.041051
   133  H    0.048470
   134  H    0.069440
   135  H    0.033008
   136  H    0.061831
   137  H    0.011494
   138  H    0.062717
   139  H    0.058207
   140  H    0.066207
   141  H    0.068539
   142  H    0.046816
   143  H    0.038414
   144  H    0.041329
   145  H    0.031670
   146  H    0.038557
   147  H    0.030396
   148  H    0.021529
   149  H    0.036019
   150  H    0.029995
   151  H    0.032942
   152  H    0.030636
   153  H    0.066781
   154  H    0.060797
   155  H    0.055754
   156  H    0.061725
   157  H    0.085125
   158  H    0.056423
 Sum of Mulliken charges =  -0.00000

 Dipole moment (field-independent basis, Debye):
    X=              0.4004    Y=              3.1175    Z=             -0.8950  Tot=              3.2681
 Quadrupole moment (field-independent basis, Debye-Ang):
   XX=           -534.3951   YY=           -540.3290   ZZ=           -471.4336
   XY=            151.2244   XZ=            -49.8364   YZ=             -3.6153

 Normal termination of Gaussian 16 at Sun Sep 19 06:37:52 2021.
