 Gaussian 16, Revision A.03,
 Gaussian 16:  ES64L-G16RevA.03 25-Dec-2016

 --------------------------------
 #p wB97XD/Def2SVP td=(nstates=5)
 --------------------------------

 --------------------------------
 TDDFT excited states in gaussian
 --------------------------------
 Symbolic Z-matrix:
 Charge =  0 Multiplicity = 1

                         Standard orientation:
 ---------------------------------------------------------------------
 Center     Atomic      Atomic             Coordinates (Angstroms)
 Number     Number       Type             X           Y           Z
 ---------------------------------------------------------------------
      1         12           0       16.630071   -0.358469    0.320147
      2          6           0       15.145212    2.076800   -1.526514
      3          6           0       17.787686    1.851816    2.702927
      4          6           0       18.212845   -2.950338    1.901415
      5          6           0       15.856441   -2.703145   -2.324636
      6          7           0       16.649119    1.732289    0.427937
      7          6           0       15.739855    2.553145   -0.319941
      8          6           0       15.598927    3.885435    0.300448
      9          6           0       16.770454    3.852971    1.381500
     10          6           0       17.130623    2.393543    1.548643
     11          6           0       18.059530    4.713128    0.944917
     12          6           0       14.154885    4.236482    0.773826
     13          6           0       13.684913    5.611287    0.422393
     14          1           0       14.754879    6.765851    0.552916
     15          7           0       17.776115   -0.536196    2.105522
     16          6           0       18.121341    0.522734    2.891556
     17          6           0       18.868761    0.014122    3.990152
     18          6           0       18.954510   -1.426866    3.858163
     19          6           0       18.221566   -1.750538    2.588560
     20          6           0       19.524985    0.940222    5.037397
     21          6           0       19.549605   -2.499660    4.715671
     22          8           0       19.666846   -3.705028    4.467870
     23          6           0       20.041942   -2.025034    6.135094
     24          7           0       17.092951   -2.556910   -0.194594
     25          6           0       17.651618   -3.375575    0.661670
     26          6           0       17.507383   -4.838760    0.248242
     27          6           0       16.750206   -4.737702   -1.106699
     28          6           0       16.559678   -3.228329   -1.242721
     29          6           0       18.914501   -5.615415    0.115195
     30          6           0       15.369008   -5.519790   -0.980789
     31          6           0       14.245090   -5.010380   -0.044934
     32          7           0       15.834265   -0.310363   -1.628078
     33          6           0       15.548692   -1.330556   -2.515698
     34          6           0       14.756591   -0.724071   -3.604983
     35          6           0       14.532125    0.588131   -3.314673
     36          6           0       15.230982    0.789546   -2.069409
     37          6           0       14.419135   -1.419525   -4.878660
     38          6           0       13.912021    1.843896   -3.736610
     39          8           0       13.260906    2.124871   -4.728848
     40          6           0       14.312939    2.849781   -2.570070
     41          6           0       15.154655    3.902595   -3.174022
     42          8           0       16.206745    3.763882   -3.821969
     43          8           0       14.498167    5.075967   -2.862457
     44          6           0       15.242686    6.296316   -3.199632
     45          1           0       18.126675    2.510493    3.505042
     46          1           0       18.637649   -3.746793    2.517016
     47          1           0       15.546300   -3.410939   -3.095378
     48          1           0       15.839023    4.582627   -0.503285
     49          1           0       16.368587    4.232632    2.320402
     50          1           0       17.870522    5.392332    0.113617
     51          1           0       18.766244    3.999634    0.521379
     52          1           0       18.403625    5.144065    1.884209
     53          1           0       14.091866    4.144588    1.858153
     54          1           0       13.548019    3.496344    0.252471
     55          1           0       12.893946    5.972223    1.078634
     56          1           0       13.217917    5.826939   -0.538700
     57          1           0       18.852633    1.367521    5.781254
     58          1           0       20.020550    1.681633    4.410860
     59          1           0       20.215112    0.414604    5.697013
     60          1           0       20.960549   -1.450460    6.015976
     61          1           0       20.032401   -2.888929    6.799444
     62          1           0       19.316994   -1.406289    6.664362
     63          1           0       16.872142   -5.341922    0.976823
     64          1           0       17.297115   -5.167470   -1.945970
     65          1           0       18.973630   -6.273325    0.982977
     66          1           0       19.740834   -4.904948    0.154698
     67          1           0       19.090742   -6.272126   -0.735772
     68          1           0       15.459602   -6.582466   -0.756400
     69          1           0       14.970315   -5.393255   -1.987860
     70          1           0       13.451948   -4.756243   -0.748236
     71          1           0       14.561688   -4.173443    0.576220
     72          1           0       13.881274   -5.760091    0.657645
     73          1           0       13.456820   -0.980205   -5.139620
     74          1           0       14.360063   -2.502481   -4.768368
     75          1           0       15.064539   -1.005703   -5.652352
     76          1           0       13.327643    3.258692   -2.347843
     77          1           0       14.510158    7.074957   -2.985012
     78          1           0       15.396612    6.261706   -4.278158
     79          1           0       16.230013    6.390150   -2.746967
     80         12           0      -16.146749   -0.821865    0.165291
     81          6           0      -18.151234    1.920928    0.998826
     82          6           0      -13.712480    1.194968   -0.715884
     83          6           0      -14.547146   -3.472002   -1.325295
     84          6           0      -18.928884   -2.946523    0.624711
     85          7           0      -15.969890    1.276115    0.257662
     86          6           0      -16.850067    2.247695    0.680798
     87          6           0      -16.185962    3.616185    0.760852
     88          6           0      -14.850918    3.360888   -0.009613
     89          6           0      -14.784174    1.874532   -0.070177
     90          6           0      -14.596083    4.069871   -1.322213
     91          6           0      -16.043602    4.194150    2.205128
     92          6           0      -15.401216    5.582886    2.291843
     93          1           0      -16.174308    6.627837    3.082983
     94          7           0      -14.309769   -1.093852   -0.984903
     95          6           0      -13.377314   -0.125264   -1.099290
     96          6           0      -12.196871   -0.674943   -1.706223
     97          6           0      -12.470878   -2.023800   -1.990878
     98          6           0      -13.834865   -2.239397   -1.435977
     99          6           0      -10.953390    0.131624   -2.015691
    100          6           0      -11.593692   -3.071097   -2.594762
    101          8           0      -11.950141   -4.225460   -2.952878
    102          6           0      -10.106021   -2.804042   -2.788389
    103          7           0      -16.673604   -2.861808   -0.299043
    104          6           0      -15.863639   -3.711744   -0.972253
    105          6           0      -16.492961   -5.206998   -0.933567
    106          6           0      -17.655559   -5.042662    0.107271
    107          6           0      -17.749318   -3.555765    0.231835
    108          6           0      -16.945703   -5.612720   -2.390532
    109          6           0      -17.225348   -5.590447    1.517011
    110          6           0      -15.921124   -5.112094    2.135827
    111          7           0      -18.191221   -0.610582    0.773598
    112          6           0      -19.147783   -1.580044    0.900911
    113          6           0      -20.309024   -0.951263    1.331528
    114          6           0      -20.051730    0.448750    1.388787
    115          6           0      -18.737489    0.608412    1.035957
    116          6           0      -21.653301   -1.537617    1.583399
    117          6           0      -20.583961    1.805210    1.650955
    118          8           0      -21.695142    2.235141    1.938681
    119          6           0      -19.314407    2.810112    1.499534
    120          6           0      -19.686157    4.002845    0.692707
    121          8           0      -20.481817    3.990250   -0.293044
    122          8           0      -19.171727    5.059673    1.306929
    123          6           0      -19.798751    6.316768    0.946060
    124          1           0      -12.830515    1.806894   -0.916831
    125          1           0      -14.037554   -4.333487   -1.763411
    126          1           0      -19.725472   -3.647171    0.879791
    127          1           0      -16.900827    4.283614    0.279221
    128          1           0      -13.967408    3.628545    0.570949
    129          1           0      -15.186794    4.963961   -1.521525
    130          1           0      -14.714077    3.358112   -2.139707
    131          1           0      -13.517697    4.208415   -1.402121
    132          1           0      -15.494579    3.488516    2.829159
    133          1           0      -17.030938    4.251043    2.662254
    134          1           0      -15.509777    6.129130    1.355030
    135          1           0      -14.358150    5.518561    2.603044
    136          1           0      -11.053209    1.205679   -1.859473
    137          1           0      -10.659573    0.167010   -3.064464
    138          1           0      -10.076462   -0.189300   -1.452616
    139          1           0      -10.001657   -2.052564   -3.570514
    140          1           0       -9.604309   -3.632799   -3.287421
    141          1           0       -9.581768   -2.590252   -1.856261
    142          1           0      -15.723908   -5.918775   -0.633472
    143          1           0      -18.532132   -5.464287   -0.384574
    144          1           0      -16.549104   -4.958831   -3.167416
    145          1           0      -18.024925   -5.595673   -2.543358
    146          1           0      -16.587209   -6.593082   -2.701029
    147          1           0      -17.187955   -6.653533    1.278990
    148          1           0      -17.969347   -5.460722    2.302393
    149          1           0      -15.328791   -4.575579    1.394305
    150          1           0      -15.329869   -5.861182    2.661379
    151          1           0      -16.271076   -4.475735    2.948688
    152          1           0      -21.654966   -2.373204    2.283772
    153          1           0      -21.972831   -1.930164    0.618478
    154          1           0      -22.382032   -0.792936    1.901909
    155          1           0      -19.127248    3.140185    2.521032
    156          1           0      -19.960266    6.922937    1.838326
    157          1           0      -20.780282    6.250189    0.477345
    158          1           0      -19.089974    6.825539    0.291878
 ---------------------------------------------------------------------

 SCF Done:  E(RwB97XD) =  -4070.61785551     A.U. after   19 cycles

 Excitation energies and oscillator strengths:

 Excited State   1:      Singlet-A      1.6461 eV  753.21 nm  f=0.3870  <S**2>=0.000
     309 -> 315       -0.19141
     312 -> 314        0.68037
     309 <- 315       -0.11796
 This state for optimization and/or second-order correction.
 Total Energy, E(TD-HF/TD-DFT) =  -4070.55736292
 Copying the excited state density for this state as the 1-particle RhoCI density.

 Excited State   2:      Singlet-A      1.6682 eV  743.22 nm  f=0.3852  <S**2>=0.000
     310 -> 316        0.17095
     311 -> 313        0.68540
     310 <- 316        0.11140

 Excited State   3:      Singlet-A      2.0913 eV  592.87 nm  f=0.1641  <S**2>=0.000
     310 -> 313        0.66092
     311 -> 316       -0.23082

 Excited State   4:      Singlet-A      2.2140 eV  560.00 nm  f=0.0444  <S**2>=0.000
     309 -> 314        0.60811
     312 -> 315        0.34956

 Excited State   5:      Singlet-A      3.0726 eV  403.52 nm  f=0.0090  <S**2>=0.000
     308 -> 313        0.67869

 The electronic state is 1-A.
 Alpha  occ. eigenvalues --  -46.95730 -46.95676 -19.31865 -19.30949 -19.25283
 Alpha  occ. eigenvalues --  -19.24669 -19.24653 -19.24235 -19.24031 -19.23471
 Alpha  occ. eigenvalues --  -14.47530 -14.46978 -14.46864 -14.46433 -14.44376
 Alpha  occ. eigenvalues --  -14.44191 -14.44148 -14.42604 -10.43452 -10.43081
 Alpha  occ. eigenvalues --  -10.39815 -10.39810 -10.39506 -10.38839 -10.36217
 Alpha  occ. eigenvalues --  -10.36148 -10.35896 -10.35750 -10.35658 -10.35182
 Alpha  occ. eigenvalues --  -10.35020 -10.34971 -10.34891 -10.34758 -10.34508
 Alpha  occ. eigenvalues --  -10.34220 -10.34068 -10.34047 -10.34015 -10.33642
 Alpha  occ. eigenvalues --  -10.33528 -10.33236 -10.33145 -10.32861 -10.32608
 Alpha  occ. eigenvalues --  -10.32531 -10.32475 -10.32397 -10.32370 -10.32367
 Alpha  occ. eigenvalues --  -10.32364 -10.32256 -10.32152 -10.32087 -10.32031
 Alpha  occ. eigenvalues --  -10.31904 -10.31881 -10.31832 -10.31822 -10.31811
 Alpha  occ. eigenvalues --  -10.31807 -10.31732 -10.31610 -10.31581 -10.31505
 Alpha  occ. eigenvalues --  -10.31481 -10.31477 -10.31042 -10.30545 -10.30514
 Alpha  occ. eigenvalues --  -10.30512 -10.30459 -10.30430 -10.30421 -10.30393
 Alpha  occ. eigenvalues --  -10.30230 -10.30054 -10.29828 -10.29791 -10.29542
 Alpha  occ. eigenvalues --  -10.29500 -10.29386 -10.29261 -10.28818 -10.28714
 Alpha  occ. eigenvalues --  -10.28273  -3.21577  -3.21534  -1.95172  -1.95123
 Alpha  occ. eigenvalues --   -1.94667  -1.94644  -1.94556  -1.94504  -1.20297
 Alpha  occ. eigenvalues --   -1.18207  -1.12504  -1.11940  -1.11001  -1.10655
 Alpha  occ. eigenvalues --   -1.09733  -1.08108  -1.07518  -1.07208  -1.06397
 Alpha  occ. eigenvalues --   -1.05860  -1.05334  -1.05032  -1.04476  -1.03811
 Alpha  occ. eigenvalues --   -0.94413  -0.93800  -0.91502  -0.91208  -0.91115
 Alpha  occ. eigenvalues --   -0.90748  -0.90360  -0.89984  -0.89979  -0.89281
 Alpha  occ. eigenvalues --   -0.89071  -0.88923  -0.88308  -0.87601  -0.86727
 Alpha  occ. eigenvalues --   -0.86661  -0.85682  -0.85358  -0.84782  -0.84373
 Alpha  occ. eigenvalues --   -0.83826  -0.83553  -0.83311  -0.83258  -0.82646
 Alpha  occ. eigenvalues --   -0.82006  -0.80890  -0.80126  -0.79510  -0.79363
 Alpha  occ. eigenvalues --   -0.79271  -0.79212  -0.78069  -0.77808  -0.77195
 Alpha  occ. eigenvalues --   -0.76993  -0.74729  -0.74523  -0.74248  -0.73726
 Alpha  occ. eigenvalues --   -0.71894  -0.71869  -0.71300  -0.71101  -0.70406
 Alpha  occ. eigenvalues --   -0.70370  -0.69699  -0.69527  -0.67474  -0.67336
 Alpha  occ. eigenvalues --   -0.67212  -0.67030  -0.66753  -0.66688  -0.66521
 Alpha  occ. eigenvalues --   -0.66448  -0.64712  -0.64590  -0.63086  -0.62403
 Alpha  occ. eigenvalues --   -0.61754  -0.61465  -0.61235  -0.60989  -0.60850
 Alpha  occ. eigenvalues --   -0.60548  -0.60015  -0.59563  -0.59525  -0.59254
 Alpha  occ. eigenvalues --   -0.58234  -0.57985  -0.57969  -0.57735  -0.57556
 Alpha  occ. eigenvalues --   -0.57391  -0.57299  -0.57025  -0.56984  -0.56447
 Alpha  occ. eigenvalues --   -0.56351  -0.55542  -0.55255  -0.55232  -0.55201
 Alpha  occ. eigenvalues --   -0.55112  -0.54912  -0.54480  -0.54387  -0.54278
 Alpha  occ. eigenvalues --   -0.54162  -0.53986  -0.53658  -0.53533  -0.53527
 Alpha  occ. eigenvalues --   -0.53066  -0.52925  -0.52918  -0.52530  -0.52431
 Alpha  occ. eigenvalues --   -0.52048  -0.51906  -0.51652  -0.51540  -0.51307
 Alpha  occ. eigenvalues --   -0.51085  -0.50970  -0.50830  -0.50569  -0.50546
 Alpha  occ. eigenvalues --   -0.50506  -0.50479  -0.50460  -0.50272  -0.50162
 Alpha  occ. eigenvalues --   -0.50029  -0.49695  -0.49390  -0.49255  -0.49227
 Alpha  occ. eigenvalues --   -0.49146  -0.48880  -0.48781  -0.48706  -0.48458
 Alpha  occ. eigenvalues --   -0.48298  -0.48204  -0.47891  -0.47854  -0.47778
 Alpha  occ. eigenvalues --   -0.47590  -0.47374  -0.47195  -0.47094  -0.46781
 Alpha  occ. eigenvalues --   -0.46632  -0.46569  -0.46364  -0.46219  -0.45936
 Alpha  occ. eigenvalues --   -0.45811  -0.45652  -0.45498  -0.45366  -0.45247
 Alpha  occ. eigenvalues --   -0.45162  -0.45019  -0.44955  -0.44839  -0.44810
 Alpha  occ. eigenvalues --   -0.44580  -0.44378  -0.44328  -0.44145  -0.44091
 Alpha  occ. eigenvalues --   -0.44008  -0.43951  -0.43822  -0.43687  -0.43525
 Alpha  occ. eigenvalues --   -0.43388  -0.43158  -0.42783  -0.42773  -0.42483
 Alpha  occ. eigenvalues --   -0.42397  -0.41767  -0.41531  -0.41483  -0.41148
 Alpha  occ. eigenvalues --   -0.40625  -0.39925  -0.39862  -0.39604  -0.39385
 Alpha  occ. eigenvalues --   -0.39179  -0.38881  -0.38795  -0.38583  -0.38436
 Alpha  occ. eigenvalues --   -0.38353  -0.38349  -0.36706  -0.36280  -0.36137
 Alpha  occ. eigenvalues --   -0.35961  -0.35795  -0.35056  -0.34174  -0.33502
 Alpha  occ. eigenvalues --   -0.33207  -0.33193  -0.33041  -0.32976  -0.32604
 Alpha  occ. eigenvalues --   -0.32166  -0.32088  -0.30643  -0.26429  -0.26002
 Alpha  occ. eigenvalues --   -0.23605  -0.22841
 Alpha virt. eigenvalues --   -0.07734  -0.06910  -0.00543   0.00632   0.01726
 Alpha virt. eigenvalues --    0.01972   0.04147   0.04520   0.04929   0.04974
 Alpha virt. eigenvalues --    0.06606   0.06856   0.07130   0.07361   0.07723

 Mulliken charges:
               1
     1  Mg   0.932411
     2  C   -0.004978
     3  C   -0.105927
     4  C   -0.037081
     5  C   -0.077818
     6  N   -0.442331
     7  C   -0.001301
     8  C   -0.039710
     9  C   -0.136010
    10  C    0.130722
    11  C    0.033364
    12  C    0.069960
    13  C   -0.138351
    14  H    0.000580
    15  N   -0.460663
    16  C    0.168920
    17  C   -0.150557
    18  C   -0.078079
    19  C    0.134164
    20  C    0.056671
    21  C    0.061805
    22  O   -0.237488
    23  C   -0.054665
    24  N   -0.260553
    25  C    0.018035
    26  C   -0.075289
    27  C   -0.047677
    28  C    0.027329
    29  C   -0.001720
    30  C   -0.063188
    31  C   -0.056317
    32  N   -0.406637
    33  C    0.141335
    34  C   -0.241034
    35  C   -0.006264
    36  C    0.120008
    37  C    0.082712
    38  C    0.139110
    39  O   -0.194789
    40  C   -0.109525
    41  C    0.275690
    42  O   -0.258992
    43  O   -0.370023
    44  C    0.139912
    45  H    0.001520
    46  H    0.024296
    47  H    0.003102
    48  H    0.030727
    49  H    0.027140
    50  H    0.043622
    51  H    0.045719
    52  H    0.050315
    53  H    0.039544
    54  H    0.041679
    55  H    0.043764
    56  H    0.061488
    57  H    0.055341
    58  H    0.062262
    59  H    0.016866
    60  H    0.079342
    61  H    0.051797
    62  H    0.041932
    63  H    0.050152
    64  H    0.039148
    65  H    0.042730
    66  H    0.048683
    67  H    0.040805
    68  H    0.041720
    69  H    0.020575
    70  H    0.044499
    71  H    0.039757
    72  H    0.038679
    73  H    0.047035
    74  H    0.040298
    75  H    0.066297
    76  H    0.068315
    77  H    0.059413
    78  H    0.056256
    79  H    0.059422
    80  Mg   0.940900
    81  C    0.025496
    82  C   -0.076111
    83  C   -0.054471
    84  C   -0.071307
    85  N   -0.396467
    86  C   -0.020311
    87  C   -0.029457
    88  C   -0.089392
    89  C    0.104851
    90  C    0.044346
    91  C    0.022488
    92  C   -0.128880
    93  H    0.030667
    94  N   -0.379765
    95  C    0.094800
    96  C   -0.112382
    97  C   -0.048684
    98  C    0.101662
    99  C    0.053596
   100  C    0.041299
   101  O   -0.259312
   102  C   -0.009224
   103  N   -0.351700
   104  C    0.069164
   105  C   -0.145278
   106  C   -0.029847
   107  C    0.039039
   108  C    0.014253
   109  C   -0.014298
   110  C   -0.051449
   111  N   -0.418238
   112  C    0.151669
   113  C   -0.204268
   114  C   -0.041227
   115  C    0.088517
   116  C    0.077110
   117  C    0.161942
   118  O   -0.201882
   119  C   -0.128977
   120  C    0.263215
   121  O   -0.280557
   122  O   -0.330266
   123  C    0.127190
   124  H   -0.027656
   125  H    0.024849
   126  H   -0.001115
   127  H    0.031590
   128  H    0.031498
   129  H    0.056327
   130  H    0.033623
   131  H    0.025688
   132  H    0.024394
   133  H    0.044897
   134  H    0.046540
   135  H    0.062151
   136  H    0.028510
   137  H    0.048678
   138  H    0.054972
   139  H    0.043887
   140  H    0.044714
   141  H    0.064170
   142  H    0.043779
   143  H    0.030763
   144  H    0.043575
   145  H    0.032468
   146  H    0.040128
   147  H    0.029593
   148  H    0.030933
   149  H    0.055286
   150  H    0.043801
   151  H    0.033813
   152  H    0.035232
   153  H    0.042878
   154  H    0.057948
   155  H    0.081979
   156  H    0.053476
   157  H    0.078589
   158  H    0.049591
 Sum of Mulliken charges =  -0.00000

 Dipole moment (field-independent basis, Debye):
    X=              5.8228    Y=              2.3597    Z=              5.9020  Tot=              8.6201
 Quadrupole moment (field-independent basis, Debye-Ang):
   XX=           -766.7869   YY=           -460.5051   ZZ=           -527.9214
   XY=             38.6603   XZ=             42.0512   YZ=             18.4067

 Normal termination of Gaussian 16 at Sat Sep 18 05:26:42 2021.
