 Gaussian 16, Revision A.03,
 Gaussian 16:  ES64L-G16RevA.03 25-Dec-2016

 --------------------------------
 #p wB97XD/Def2SVP td=(nstates=5)
 --------------------------------

 --------------------------------
 TDDFT excited states in gaussian
 --------------------------------
 Symbolic Z-matrix:
 Charge =  0 Multiplicity = 1

                         Standard orientation:
 ---------------------------------------------------------------------
 Center     Atomic      Atomic             Coordinates (Angstroms)
 Number     Number       Type             X           Y           Z
 ---------------------------------------------------------------------
      1         12           0      -16.961430   -0.658829    0.261324
      2          6           0      -17.086476    2.419459   -1.180760
      3          6           0      -16.109377    0.725451    3.293595
      4          6           0      -16.698612   -3.793328    1.512966
      5          6           0      -17.363121   -2.059032   -2.958898
      6          7           0      -16.417288    1.347941    0.917804
      7          6           0      -16.865381    2.436144    0.236571
      8          6           0      -16.907162    3.677380    1.061862
      9          6           0      -16.323486    3.094185    2.451189
     10          6           0      -16.270771    1.617761    2.232248
     11          6           0      -14.888812    3.689893    2.815710
     12          6           0      -18.427695    4.154648    1.199846
     13          6           0      -18.673192    5.629167    1.527161
     14          1           0      -17.582964    6.606109    2.033605
     15          7           0      -16.575175   -1.473832    2.148379
     16          6           0      -16.218519   -0.713281    3.273922
     17          6           0      -15.987993   -1.642746    4.355426
     18          6           0      -16.184352   -2.948965    3.862886
     19          6           0      -16.548923   -2.749519    2.466989
     20          6           0      -15.654547   -1.144064    5.780889
     21          6           0      -15.952441   -4.345053    4.646324
     22          8           0      -16.286747   -5.439295    4.174794
     23          6           0      -15.344990   -4.455413    6.035049
     24          7           0      -17.097836   -2.676778   -0.638266
     25          6           0      -16.907937   -3.779099    0.125548
     26          6           0      -16.753284   -5.033282   -0.733080
     27          6           0      -17.308592   -4.509486   -2.180061
     28          6           0      -17.377567   -2.993542   -1.937631
     29          6           0      -15.316348   -5.729886   -0.709113
     30          6           0      -18.806192   -4.954337   -2.578646
     31          6           0      -19.077183   -5.550945   -3.947504
     32          7           0      -17.238102   -0.032017   -1.711846
     33          6           0      -17.369986   -0.669168   -2.888477
     34          6           0      -17.626903    0.325090   -3.977081
     35          6           0      -17.569436    1.556768   -3.282723
     36          6           0      -17.206213    1.255756   -1.947277
     37          6           0      -17.924496    0.136232   -5.422531
     38          6           0      -17.697616    2.945034   -3.523829
     39          8           0      -17.946932    3.560890   -4.580492
     40          6           0      -17.385419    3.575795   -2.169138
     41          6           0      -16.230611    4.433127   -2.309075
     42          8           0      -15.135586    4.203957   -2.718367
     43          8           0      -16.584020    5.653722   -1.741537
     44          6           0      -15.610908    6.807682   -1.637586
     45          1           0      -16.060899    1.093518    4.320163
     46          1           0      -16.517117   -4.797384    1.902936
     47          1           0      -17.297178   -2.406089   -3.991590
     48          1           0      -16.349957    4.570388    0.779431
     49          1           0      -16.990624    3.314201    3.284607
     50          1           0      -14.699904    3.861117    3.875219
     51          1           0      -14.697928    4.564259    2.193686
     52          1           0      -14.160641    2.937558    2.510879
     53          1           0      -18.962676    3.572785    1.950653
     54          1           0      -18.882523    3.929875    0.234779
     55          1           0      -19.492072    5.634614    2.247656
     56          1           0      -19.104849    6.110079    0.650207
     57          1           0      -15.666526   -0.059804    5.891180
     58          1           0      -14.677372   -1.555214    6.032064
     59          1           0      -16.378094   -1.602240    6.455565
     60          1           0      -16.098020   -4.025715    6.694623
     61          1           0      -14.540020   -3.738345    6.197335
     62          1           0      -14.941863   -5.455012    6.196216
     63          1           0      -17.470321   -5.770698   -0.370311
     64          1           0      -16.643369   -4.816591   -2.987309
     65          1           0      -14.887326   -5.787530   -1.709751
     66          1           0      -15.390070   -6.724277   -0.270303
     67          1           0      -14.607499   -5.128458   -0.139477
     68          1           0      -19.525746   -4.153712   -2.407979
     69          1           0      -19.105499   -5.694392   -1.837077
     70          1           0      -19.840743   -4.926298   -4.409762
     71          1           0      -19.382157   -6.596136   -3.903964
     72          1           0      -18.191628   -5.444313   -4.575582
     73          1           0      -18.035000   -0.901489   -5.736784
     74          1           0      -17.130987    0.556595   -6.040927
     75          1           0      -18.852633    0.659522   -5.651504
     76          1           0      -18.218502    4.167188   -1.788116
     77          1           0      -14.629878    6.511554   -2.009684
     78          1           0      -15.472613    7.075432   -0.589219
     79          1           0      -16.046666    7.607260   -2.236602
     80         12           0       17.227620   -0.634376   -0.113116
     81          6           0       15.061387    2.154716    0.620515
     82          6           0       19.861977    1.677218   -0.231542
     83          6           0       19.235860   -3.172896   -0.663374
     84          6           0       14.422993   -2.716342   -0.256671
     85          7           0       17.375657    1.707251    0.154779
     86          6           0       16.436222    2.558073    0.645507
     87          6           0       17.038080    3.888296    1.068261
     88          6           0       18.547620    3.848390    0.456032
     89          6           0       18.605358    2.339974    0.078294
     90          6           0       18.817946    4.860387   -0.685450
     91          6           0       16.999398    4.104133    2.618905
     92          6           0       16.263329    5.396729    3.057165
     93          1           0       17.230780    6.484226    3.804083
     94          7           0       19.205660   -0.729950   -0.391448
     95          6           0       20.191326    0.312774   -0.449266
     96          6           0       21.566923   -0.189299   -0.677690
     97          6           0       21.349110   -1.604655   -0.739674
     98          6           0       19.909176   -1.876965   -0.595376
     99          6           0       22.811581    0.690017   -0.814088
    100          6           0       22.334490   -2.676698   -1.011668
    101          8           0       22.154911   -3.875630   -0.827089
    102          6           0       23.756801   -2.257985   -1.432881
    103          7           0       16.881800   -2.635588   -0.238024
    104          6           0       17.882184   -3.506237   -0.503983
    105          6           0       17.385857   -4.879990   -0.860055
    106          6           0       15.848906   -4.787566   -0.694983
    107          6           0       15.672865   -3.300159   -0.314577
    108          6           0       17.872452   -5.403767   -2.194977
    109          6           0       15.337137   -5.769735    0.515182
    110          6           0       14.163935   -6.821337    0.120212
    111          7           0       15.123485   -0.329065   -0.137149
    112          6           0       14.119040   -1.326654   -0.124806
    113          6           0       12.830251   -0.658353    0.088593
    114          6           0       13.203395    0.644820    0.510713
    115          6           0       14.561336    0.821727    0.241131
    116          6           0       11.411342   -1.207744   -0.024111
    117          6           0       12.599763    1.968545    0.833438
    118          8           0       11.425656    2.416926    0.951223
    119          6           0       13.828934    2.937647    1.030592
    120          6           0       13.615148    4.154773    0.179863
    121          8           0       13.230788    4.126881   -0.954985
    122          8           0       13.809811    5.278938    0.933390
    123          6           0       13.292613    6.503338    0.271645
    124          1           0       20.618093    2.448699   -0.390122
    125          1           0       19.849175   -4.057693   -0.847832
    126          1           0       13.536323   -3.353358   -0.259101
    127          1           0       16.479571    4.654058    0.529890
    128          1           0       19.312203    3.986867    1.220923
    129          1           0       19.009696    4.342972   -1.625915
    130          1           0       19.665017    5.500226   -0.434710
    131          1           0       18.039564    5.604087   -0.856298
    132          1           0       18.001991    4.166679    3.042781
    133          1           0       16.484781    3.287297    3.125618
    134          1           0       15.546821    5.229378    3.861771
    135          1           0       15.671388    5.880319    2.280724
    136          1           0       22.739508    1.712918   -0.443172
    137          1           0       23.242086    0.742152   -1.814062
    138          1           0       23.567069    0.198098   -0.200597
    139          1           0       23.727320   -1.706218   -2.372408
    140          1           0       24.437913   -3.107342   -1.495505
    141          1           0       24.152935   -1.601687   -0.658010
    142          1           0       17.831348   -5.588296   -0.160219
    143          1           0       15.337214   -4.985479   -1.636384
    144          1           0       18.617795   -6.194621   -2.106281
    145          1           0       18.393283   -4.674875   -2.815800
    146          1           0       17.003057   -5.747923   -2.755547
    147          1           0       14.964813   -5.237523    1.389919
    148          1           0       16.137403   -6.393745    0.912162
    149          1           0       14.216251   -6.919269   -0.964297
    150          1           0       13.181078   -6.472149    0.439363
    151          1           0       14.394252   -7.825271    0.475870
    152          1           0       10.726615   -0.725653    0.673354
    153          1           0       11.435283   -2.239551    0.328391
    154          1           0       11.213246   -1.175199   -1.095562
    155          1           0       13.763953    3.285222    2.061333
    156          1           0       13.746736    6.553095   -0.717814
    157          1           0       13.731863    7.310487    0.857674
    158          1           0       12.219550    6.610708    0.113425
 ---------------------------------------------------------------------

 SCF Done:  E(RwB97XD) =  -4070.59868275     A.U. after   20 cycles

 Excitation energies and oscillator strengths:

 Excited State   1:      Singlet-A      1.6155 eV  767.47 nm  f=0.3721  <S**2>=0.000
     309 -> 315        0.19318
     311 -> 313        0.68203
     309 <- 315        0.12122
 This state for optimization and/or second-order correction.
 Total Energy, E(TD-HF/TD-DFT) =  -4070.53931433
 Copying the excited state density for this state as the 1-particle RhoCI density.

 Excited State   2:      Singlet-A      1.6817 eV  737.26 nm  f=0.3929  <S**2>=0.000
     310 -> 316        0.19777
     312 -> 314        0.68063
     310 <- 316        0.11935

 Excited State   3:      Singlet-A      2.1191 eV  585.07 nm  f=0.1286  <S**2>=0.000
     309 -> 313        0.64518
     311 -> 315       -0.27991

 Excited State   4:      Singlet-A      2.1739 eV  570.33 nm  f=0.0993  <S**2>=0.000
     310 -> 314        0.63669
     312 -> 316       -0.29860

 Excited State   5:      Singlet-A      3.3517 eV  369.91 nm  f=0.0005  <S**2>=0.000
     304 -> 319       -0.10241
     305 -> 313        0.13845
     308 -> 313        0.64950
     308 -> 318       -0.12988

 The electronic state is 1-A.
 Alpha  occ. eigenvalues --  -46.95680 -46.94861 -19.30864 -19.28881 -19.24661
 Alpha  occ. eigenvalues --  -19.24473 -19.24161 -19.24013 -19.23851 -19.23742
 Alpha  occ. eigenvalues --  -14.47245 -14.46997 -14.46497 -14.46226 -14.45370
 Alpha  occ. eigenvalues --  -14.44081 -14.43933 -14.43826 -10.42651 -10.42433
 Alpha  occ. eigenvalues --  -10.40171 -10.39179 -10.39120 -10.38483 -10.35910
 Alpha  occ. eigenvalues --  -10.35747 -10.35685 -10.35672 -10.35624 -10.35608
 Alpha  occ. eigenvalues --  -10.35295 -10.34913 -10.34902 -10.34771 -10.34622
 Alpha  occ. eigenvalues --  -10.34613 -10.34160 -10.33990 -10.33974 -10.33842
 Alpha  occ. eigenvalues --  -10.33675 -10.33290 -10.33121 -10.33011 -10.32955
 Alpha  occ. eigenvalues --  -10.32943 -10.32918 -10.32748 -10.32710 -10.32529
 Alpha  occ. eigenvalues --  -10.32503 -10.32370 -10.32334 -10.32292 -10.32283
 Alpha  occ. eigenvalues --  -10.32239 -10.32228 -10.32027 -10.31973 -10.31967
 Alpha  occ. eigenvalues --  -10.31865 -10.31813 -10.31549 -10.31382 -10.31353
 Alpha  occ. eigenvalues --  -10.31281 -10.31262 -10.31188 -10.31158 -10.30715
 Alpha  occ. eigenvalues --  -10.30470 -10.30459 -10.30421 -10.30187 -10.30070
 Alpha  occ. eigenvalues --  -10.30002 -10.29969 -10.29949 -10.29933 -10.29907
 Alpha  occ. eigenvalues --  -10.29865 -10.29725 -10.29345 -10.29206 -10.29122
 Alpha  occ. eigenvalues --  -10.28786  -3.21536  -3.20937  -1.95146  -1.94639
 Alpha  occ. eigenvalues --   -1.94527  -1.94516  -1.94061  -1.93928  -1.19117
 Alpha  occ. eigenvalues --   -1.17734  -1.12211  -1.11669  -1.10870  -1.10546
 Alpha  occ. eigenvalues --   -1.09364  -1.09286  -1.07572  -1.06421  -1.05978
 Alpha  occ. eigenvalues --   -1.05537  -1.05271  -1.04628  -1.04599  -1.04064
 Alpha  occ. eigenvalues --   -0.95464  -0.93538  -0.90608  -0.90491  -0.90359
 Alpha  occ. eigenvalues --   -0.90081  -0.90000  -0.89384  -0.89355  -0.88943
 Alpha  occ. eigenvalues --   -0.88942  -0.88744  -0.88110  -0.87545  -0.86225
 Alpha  occ. eigenvalues --   -0.85941  -0.85304  -0.85056  -0.84201  -0.83696
 Alpha  occ. eigenvalues --   -0.83471  -0.83335  -0.83079  -0.82614  -0.82218
 Alpha  occ. eigenvalues --   -0.81709  -0.81083  -0.80321  -0.79354  -0.79011
 Alpha  occ. eigenvalues --   -0.79009  -0.78702  -0.78076  -0.77960  -0.77165
 Alpha  occ. eigenvalues --   -0.77054  -0.74556  -0.74546  -0.73907  -0.73398
 Alpha  occ. eigenvalues --   -0.71228  -0.71156  -0.70656  -0.70516  -0.70112
 Alpha  occ. eigenvalues --   -0.69530  -0.69101  -0.67914  -0.67824  -0.67601
 Alpha  occ. eigenvalues --   -0.67202  -0.67115  -0.66464  -0.66407  -0.66198
 Alpha  occ. eigenvalues --   -0.66014  -0.64339  -0.63785  -0.62837  -0.62415
 Alpha  occ. eigenvalues --   -0.61839  -0.61216  -0.61126  -0.60751  -0.60733
 Alpha  occ. eigenvalues --   -0.60386  -0.60326  -0.59921  -0.59690  -0.59127
 Alpha  occ. eigenvalues --   -0.58148  -0.57968  -0.57462  -0.57254  -0.57185
 Alpha  occ. eigenvalues --   -0.56943  -0.56459  -0.56091  -0.55716  -0.55653
 Alpha  occ. eigenvalues --   -0.55344  -0.54908  -0.54849  -0.54654  -0.54625
 Alpha  occ. eigenvalues --   -0.54516  -0.54136  -0.54061  -0.54027  -0.53610
 Alpha  occ. eigenvalues --   -0.53544  -0.53506  -0.53331  -0.53298  -0.53283
 Alpha  occ. eigenvalues --   -0.52771  -0.52711  -0.52431  -0.52407  -0.51973
 Alpha  occ. eigenvalues --   -0.51888  -0.51704  -0.51678  -0.51556  -0.51404
 Alpha  occ. eigenvalues --   -0.51317  -0.51157  -0.51016  -0.50764  -0.50726
 Alpha  occ. eigenvalues --   -0.50206  -0.50193  -0.50045  -0.50043  -0.49939
 Alpha  occ. eigenvalues --   -0.49833  -0.49534  -0.49500  -0.49412  -0.49192
 Alpha  occ. eigenvalues --   -0.48973  -0.48822  -0.48769  -0.48481  -0.48450
 Alpha  occ. eigenvalues --   -0.48343  -0.48126  -0.48096  -0.48036  -0.47869
 Alpha  occ. eigenvalues --   -0.47483  -0.47465  -0.47084  -0.46900  -0.46738
 Alpha  occ. eigenvalues --   -0.46673  -0.46586  -0.46334  -0.46220  -0.46182
 Alpha  occ. eigenvalues --   -0.46026  -0.45856  -0.45782  -0.45778  -0.45717
 Alpha  occ. eigenvalues --   -0.45603  -0.45268  -0.45021  -0.44763  -0.44538
 Alpha  occ. eigenvalues --   -0.44538  -0.44270  -0.44183  -0.44007  -0.43628
 Alpha  occ. eigenvalues --   -0.43514  -0.43503  -0.43256  -0.43250  -0.43015
 Alpha  occ. eigenvalues --   -0.42874  -0.42703  -0.42702  -0.42599  -0.42377
 Alpha  occ. eigenvalues --   -0.42063  -0.42058  -0.41604  -0.41300  -0.41291
 Alpha  occ. eigenvalues --   -0.40511  -0.40274  -0.40166  -0.39696  -0.39478
 Alpha  occ. eigenvalues --   -0.39441  -0.39329  -0.38714  -0.38520  -0.38517
 Alpha  occ. eigenvalues --   -0.38067  -0.37506  -0.36636  -0.36412  -0.36388
 Alpha  occ. eigenvalues --   -0.36175  -0.35356  -0.35247  -0.33855  -0.33337
 Alpha  occ. eigenvalues --   -0.33085  -0.32970  -0.32962  -0.32593  -0.32474
 Alpha  occ. eigenvalues --   -0.32312  -0.32178  -0.31497  -0.25814  -0.25701
 Alpha  occ. eigenvalues --   -0.23108  -0.22887
 Alpha virt. eigenvalues --   -0.07341  -0.06813   0.00075   0.00242   0.02090
 Alpha virt. eigenvalues --    0.02177   0.04154   0.04491   0.05872   0.06568
 Alpha virt. eigenvalues --    0.06793   0.07369   0.07726   0.07907   0.08062

 Mulliken charges:
               1
     1  Mg   0.950893
     2  C   -0.080254
     3  C   -0.065002
     4  C   -0.054636
     5  C   -0.099737
     6  N   -0.357788
     7  C    0.029442
     8  C   -0.079493
     9  C   -0.109816
    10  C    0.090034
    11  C    0.022767
    12  C   -0.013523
    13  C   -0.098878
    14  H    0.035663
    15  N   -0.438781
    16  C    0.108472
    17  C   -0.179350
    18  C   -0.083515
    19  C    0.122421
    20  C    0.062531
    21  C    0.076064
    22  O   -0.249700
    23  C    0.010356
    24  N   -0.332047
    25  C    0.031016
    26  C   -0.062655
    27  C   -0.122791
    28  C    0.110840
    29  C    0.017298
    30  C   -0.023488
    31  C   -0.037694
    32  N   -0.390519
    33  C    0.092729
    34  C   -0.157255
    35  C   -0.058399
    36  C    0.194996
    37  C    0.082437
    38  C    0.129069
    39  O   -0.229564
    40  C   -0.055347
    41  C    0.260431
    42  O   -0.202623
    43  O   -0.416646
    44  C    0.130253
    45  H   -0.007785
    46  H    0.015230
    47  H    0.000041
    48  H    0.042264
    49  H    0.032221
    50  H    0.044466
    51  H    0.033055
    52  H    0.038634
    53  H    0.033198
    54  H    0.032438
    55  H    0.042946
    56  H    0.053429
    57  H    0.042701
    58  H    0.051445
    59  H    0.048378
    60  H    0.054832
    61  H    0.026413
    62  H    0.075589
    63  H    0.037430
    64  H    0.035322
    65  H    0.033716
    66  H    0.050409
    67  H    0.045548
    68  H    0.038368
    69  H    0.020807
    70  H    0.037067
    71  H    0.048285
    72  H    0.024453
    73  H    0.023594
    74  H    0.065387
    75  H    0.063676
    76  H    0.069606
    77  H    0.066052
    78  H    0.053388
    79  H    0.069187
    80  Mg   0.990724
    81  C   -0.017452
    82  C   -0.078491
    83  C   -0.086402
    84  C   -0.079788
    85  N   -0.298225
    86  C   -0.019956
    87  C   -0.052881
    88  C   -0.107196
    89  C    0.010937
    90  C    0.015731
    91  C    0.043028
    92  C   -0.139037
    93  H   -0.009674
    94  N   -0.512327
    95  C    0.177247
    96  C   -0.130241
    97  C   -0.070965
    98  C    0.182223
    99  C    0.070241
   100  C    0.029587
   101  O   -0.236669
   102  C   -0.016419
   103  N   -0.420583
   104  C    0.093684
   105  C   -0.078880
   106  C   -0.074193
   107  C    0.101998
   108  C    0.012632
   109  C   -0.031822
   110  C   -0.079631
   111  N   -0.424625
   112  C    0.112432
   113  C   -0.186339
   114  C   -0.110931
   115  C    0.145603
   116  C    0.092666
   117  C    0.193640
   118  O   -0.247698
   119  C   -0.086777
   120  C    0.237141
   121  O   -0.214947
   122  O   -0.372174
   123  C    0.133761
   124  H   -0.004507
   125  H    0.020960
   126  H   -0.003307
   127  H    0.041539
   128  H    0.042901
   129  H    0.048278
   130  H    0.034615
   131  H    0.041319
   132  H    0.049060
   133  H    0.046135
   134  H    0.054684
   135  H    0.060350
   136  H    0.047049
   137  H    0.062961
   138  H    0.044831
   139  H    0.052799
   140  H    0.053677
   141  H    0.038450
   142  H    0.046235
   143  H    0.048461
   144  H    0.040254
   145  H    0.042102
   146  H    0.029172
   147  H    0.043031
   148  H    0.034652
   149  H    0.027546
   150  H    0.051964
   151  H    0.040918
   152  H    0.063915
   153  H    0.026432
   154  H    0.068753
   155  H    0.067068
   156  H    0.050173
   157  H    0.052080
   158  H    0.076498
 Sum of Mulliken charges =  -0.00000

 Dipole moment (field-independent basis, Debye):
    X=              4.3621    Y=              0.7553    Z=              3.9687  Tot=              5.9455
 Quadrupole moment (field-independent basis, Debye-Ang):
   XX=           -343.7659   YY=           -482.2294   ZZ=           -509.0875
   XY=             39.4696   XZ=            -64.6612   YZ=             37.0020

 Normal termination of Gaussian 16 at Sun Sep 19 13:53:03 2021.
