 Gaussian 16, Revision A.03,
 Gaussian 16:  ES64L-G16RevA.03 25-Dec-2016

 --------------------------------
 #p wB97XD/Def2SVP td=(nstates=5)
 --------------------------------

 --------------------------------
 TDDFT excited states in gaussian
 --------------------------------
 Symbolic Z-matrix:
 Charge =  0 Multiplicity = 1

                         Standard orientation:
 ---------------------------------------------------------------------
 Center     Atomic      Atomic             Coordinates (Angstroms)
 Number     Number       Type             X           Y           Z
 ---------------------------------------------------------------------
      1         12           0       -0.674999    0.044692   -0.458868
      2          6           0        2.664949    0.157537    0.370773
      3          6           0       -0.499250   -3.365782   -0.413332
      4          6           0       -3.945197    0.027577    0.008277
      5          6           0       -0.684323    3.555516   -0.419983
      6          7           0        0.842640   -1.375644    0.403963
      7          6           0        2.176584   -1.124261    0.441552
      8          6           0        2.996705   -2.367624    0.620068
      9          6           0        2.047476   -3.412258   -0.051312
     10          6           0        0.725698   -2.660108   -0.098923
     11          6           0        2.574062   -3.920775   -1.423947
     12          6           0        3.249852   -2.712935    2.172685
     13          6           0        4.669580   -3.367865    2.507247
     14          1           0        4.422398   -4.724527    3.119137
     15          7           0       -2.043639   -1.478280   -0.433838
     16          6           0       -1.831554   -2.809043   -0.335626
     17          6           0       -3.096820   -3.527365   -0.250156
     18          6           0       -4.109276   -2.550082   -0.160286
     19          6           0       -3.367740   -1.258112   -0.188808
     20          6           0       -3.138450   -5.073904   -0.197641
     21          6           0       -5.542489   -2.885395    0.145254
     22          8           0       -5.874353   -4.038220    0.240661
     23          6           0       -6.649587   -1.845479    0.403136
     24          7           0       -2.187619    1.576709   -0.360505
     25          6           0       -3.399886    1.307505   -0.156170
     26          6           0       -4.241873    2.507929    0.072618
     27          6           0       -3.201035    3.686171   -0.076896
     28          6           0       -1.960504    2.934167   -0.294425
     29          6           0       -5.485649    2.534020   -0.878781
     30          6           0       -3.141968    4.605279    1.229788
     31          6           0       -2.516113    6.037479    1.080030
     32          7           0        0.672321    1.584731   -0.189816
     33          6           0        0.535999    2.955867   -0.309457
     34          6           0        1.817803    3.600058   -0.232282
     35          6           0        2.724475    2.505453   -0.008410
     36          6           0        1.972762    1.352537    0.111246
     37          6           0        2.120891    5.058337   -0.358417
     38          6           0        4.100028    2.178969    0.146259
     39          8           0        5.155920    2.824353    0.171238
     40          6           0        4.103472    0.678744    0.590480
     41          6           0        5.182837    0.005703   -0.190013
     42          8           0        6.344925   -0.159646    0.206751
     43          8           0        4.710427   -0.346321   -1.424200
     44          6           0        5.814579   -0.972069   -2.204682
     45          1           0       -0.529000   -4.447832   -0.559932
     46          1           0       -5.015029   -0.010759    0.221187
     47          1           0       -0.710456    4.638227   -0.274981
     48          1           0        3.877509   -2.190300    0.004239
     49          1           0        2.001148   -4.303304    0.574998
     50          1           0        2.786540   -4.987235   -1.354796
     51          1           0        3.534033   -3.433642   -1.598102
     52          1           0        1.842212   -3.637870   -2.179912
     53          1           0        2.472322   -3.291625    2.671121
     54          1           0        3.207867   -1.804464    2.772672
     55          1           0        5.079850   -2.724474    3.285740
     56          1           0        5.443446   -3.404518    1.740423
     57          1           0       -3.615264   -5.490801    0.689381
     58          1           0       -2.164830   -5.549374   -0.321444
     59          1           0       -3.675648   -5.402372   -1.086752
     60          1           0       -6.865911   -1.222886   -0.464397
     61          1           0       -6.460726   -1.209359    1.268246
     62          1           0       -7.495957   -2.433009    0.760203
     63          1           0       -4.539058    2.406953    1.116365
     64          1           0       -3.268289    4.329910   -0.953595
     65          1           0       -6.368946    2.557838   -0.240941
     66          1           0       -5.506012    1.672349   -1.546263
     67          1           0       -5.626705    3.479274   -1.402668
     68          1           0       -2.581020    4.100031    2.016306
     69          1           0       -4.174951    4.690731    1.563858
     70          1           0       -3.098021    6.932114    1.299941
     71          1           0       -2.215671    6.216548    0.048574
     72          1           0       -1.620522    6.122600    1.695497
     73          1           0        1.303517    5.701427   -0.684075
     74          1           0        2.933594    5.003644   -1.081604
     75          1           0        2.537643    5.246559    0.631107
     76          1           0        4.256889    0.527620    1.659529
     77          1           0        6.552038   -0.211543   -2.459321
     78          1           0        5.501328   -1.286726   -3.200179
     79          1           0        6.202149   -1.804201   -1.616564
 ---------------------------------------------------------------------

 SCF Done:  E(RwB97XD) =  -2035.29446495     A.U. after   19 cycles

 Excitation energies and oscillator strengths:

 Excited State   1:      Singlet-A      1.6577 eV  747.95 nm  f=0.3594  <S**2>=0.000
     155 ->158         0.16774
     156 ->157         0.68563
     155 <-158         0.10883
 This state for optimization and/or second-order correction.
 Total Energy, E(TD-HF/TD-DFT) =  -2035.23354736
 Copying the excited state density for this state as the 1-particle RhoCI density.

 Excited State   2:      Singlet-A      2.1684 eV  571.77 nm  f=0.1045  <S**2>=0.000
     155 ->157         0.63805
     156 ->158        -0.28227

 Excited State   3:      Singlet-A      3.4147 eV  363.09 nm  f=0.0012  <S**2>=0.000
     152 ->157        -0.19823
     154 ->157         0.62638
     154 ->159         0.11466

 Excited State   4:      Singlet-A      3.4831 eV  355.96 nm  f=0.3532  <S**2>=0.000
     151 ->157        -0.29755
     152 ->157         0.25082
     153 ->157        -0.15368
     155 ->157         0.18943
     156 ->158         0.50619

 Excited State   5:      Singlet-A      3.5816 eV  346.17 nm  f=0.2074  <S**2>=0.000
     151 ->157         0.15945
     153 ->157         0.44471
     153 ->159         0.27142
     153 ->160        -0.14624
     155 ->157         0.15436
     156 ->158         0.29993

 The electronic state is 1-A.
 Alpha  occ. eigenvalues --  -46.95573 -19.30739 -19.24608 -19.23983 -19.22887
 Alpha  occ. eigenvalues --  -14.46686 -14.46502 -14.44969 -14.43139 -10.42496
 Alpha  occ. eigenvalues --  -10.39796 -10.38021 -10.36454 -10.35882 -10.35445
 Alpha  occ. eigenvalues --  -10.35163 -10.34695 -10.34170 -10.33931 -10.33653
 Alpha  occ. eigenvalues --  -10.32734 -10.32444 -10.32269 -10.32255 -10.32177
 Alpha  occ. eigenvalues --  -10.32115 -10.31858 -10.31854 -10.31746 -10.31691
 Alpha  occ. eigenvalues --  -10.31512 -10.31391 -10.31304 -10.31251 -10.30893
 Alpha  occ. eigenvalues --  -10.30672 -10.30660 -10.30601 -10.30596 -10.30108
 Alpha  occ. eigenvalues --  -10.30094 -10.30017 -10.28381  -3.21585  -1.95161
 Alpha  occ. eigenvalues --   -1.94724  -1.94545  -1.18084  -1.14248  -1.10265
 Alpha  occ. eigenvalues --   -1.09059  -1.08602  -1.06691  -1.05979  -1.04814
 Alpha  occ. eigenvalues --   -0.94425  -0.91611  -0.90615  -0.90137  -0.89246
 Alpha  occ. eigenvalues --   -0.88940  -0.88527  -0.86216  -0.85679  -0.84181
 Alpha  occ. eigenvalues --   -0.83749  -0.82832  -0.82285  -0.80351  -0.79824
 Alpha  occ. eigenvalues --   -0.78720  -0.77874  -0.77449  -0.74647  -0.74221
 Alpha  occ. eigenvalues --   -0.72387  -0.71332  -0.70140  -0.69682  -0.68751
 Alpha  occ. eigenvalues --   -0.67308  -0.66865  -0.66465  -0.64387  -0.62580
 Alpha  occ. eigenvalues --   -0.61572  -0.61190  -0.60774  -0.59996  -0.58973
 Alpha  occ. eigenvalues --   -0.58587  -0.58111  -0.57650  -0.56933  -0.56074
 Alpha  occ. eigenvalues --   -0.55551  -0.54934  -0.54665  -0.54336  -0.53943
 Alpha  occ. eigenvalues --   -0.53615  -0.53121  -0.53114  -0.52534  -0.52418
 Alpha  occ. eigenvalues --   -0.52173  -0.51851  -0.51663  -0.51063  -0.50843
 Alpha  occ. eigenvalues --   -0.50605  -0.50243  -0.49708  -0.49573  -0.49360
 Alpha  occ. eigenvalues --   -0.48889  -0.48743  -0.48209  -0.48166  -0.47814
 Alpha  occ. eigenvalues --   -0.47683  -0.47331  -0.47086  -0.46567  -0.46352
 Alpha  occ. eigenvalues --   -0.46251  -0.46136  -0.45941  -0.45289  -0.45112
 Alpha  occ. eigenvalues --   -0.44880  -0.44523  -0.44083  -0.43835  -0.43817
 Alpha  occ. eigenvalues --   -0.43346  -0.43112  -0.42666  -0.41979  -0.41511
 Alpha  occ. eigenvalues --   -0.40580  -0.40228  -0.39617  -0.38890  -0.38767
 Alpha  occ. eigenvalues --   -0.38411  -0.36975  -0.35807  -0.35332  -0.33976
 Alpha  occ. eigenvalues --   -0.33590  -0.32794  -0.32010  -0.31031  -0.26146
 Alpha  occ. eigenvalues --   -0.22986
 Alpha virt. eigenvalues --   -0.07116   0.00135   0.02294   0.04149   0.05137
 Alpha virt. eigenvalues --    0.06967   0.08126   0.08924   0.09143   0.10831
 Alpha virt. eigenvalues --    0.11294   0.12089   0.12582   0.13133   0.13653

 Mulliken charges:
               1
     1  Mg   0.966728
     2  C    0.015995
     3  C   -0.089448
     4  C   -0.073419
     5  C   -0.081549
     6  N   -0.340674
     7  C   -0.050136
     8  C   -0.024495
     9  C   -0.146448
    10  C    0.111102
    11  C    0.045259
    12  C    0.022920
    13  C   -0.129951
    14  H    0.028879
    15  N   -0.460499
    16  C    0.119200
    17  C   -0.139331
    18  C   -0.060641
    19  C    0.168448
    20  C    0.086909
    21  C    0.018694
    22  O   -0.211077
    23  C   -0.019728
    24  N   -0.295246
    25  C    0.031305
    26  C   -0.087945
    27  C   -0.051432
    28  C    0.005412
    29  C    0.018814
    30  C   -0.018463
    31  C   -0.065368
    32  N   -0.451166
    33  C    0.151119
    34  C   -0.200832
    35  C   -0.007555
    36  C    0.106200
    37  C    0.098589
    38  C    0.085854
    39  O   -0.226230
    40  C   -0.061237
    41  C    0.241401
    42  O   -0.258074
    43  O   -0.370128
    44  C    0.138469
    45  H    0.002866
    46  H   -0.045472
    47  H   -0.027277
    48  H    0.025955
    49  H    0.042452
    50  H    0.041614
    51  H    0.029819
    52  H    0.040818
    53  H    0.040686
    54  H    0.032337
    55  H    0.057552
    56  H    0.062923
    57  H    0.069765
    58  H    0.019233
    59  H    0.052798
    60  H    0.067242
    61  H    0.060716
    62  H    0.051542
    63  H    0.046690
    64  H    0.041956
    65  H    0.030578
    66  H    0.057207
    67  H    0.038727
    68  H    0.041062
    69  H    0.036551
    70  H    0.040105
    71  H    0.033035
    72  H    0.044194
    73  H    0.043253
    74  H    0.065008
    75  H    0.064733
    76  H    0.078450
    77  H    0.064888
    78  H    0.047288
    79  H    0.060477
 Sum of Mulliken charges =  -0.00000

 Dipole moment (field-independent basis, Debye):
    X=             -5.8664    Y=              0.2600    Z=             -1.8971  Tot=              6.1710
 Quadrupole moment (field-independent basis, Debye-Ang):
   XX=           -288.0923   YY=           -245.9600   ZZ=           -248.4983
   XY=            -43.6337   XZ=            -12.2128   YZ=              3.8248

 Normal termination of Gaussian 16 at Mon Sep 20 07:55:27 2021.
