 Gaussian 16, Revision A.03,
 Gaussian 16:  ES64L-G16RevA.03 25-Dec-2016

 --------------------------------
 #p wB97XD/Def2SVP td=(nstates=5)
 --------------------------------

 --------------------------------
 TDDFT excited states in gaussian
 --------------------------------
 Symbolic Z-matrix:
 Charge =  0 Multiplicity = 1

                         Standard orientation:
 ---------------------------------------------------------------------
 Center     Atomic      Atomic             Coordinates (Angstroms)
 Number     Number       Type             X           Y           Z
 ---------------------------------------------------------------------
      1         12           0       -4.898255   -0.256219    1.159819
      2          6           0       -4.795155    3.043754    0.020285
      3          6           0       -2.177475    0.557775    3.216320
      4          6           0       -4.501809   -3.486113    1.940583
      5          6           0       -6.796462   -1.081444   -1.589566
      6          7           0       -3.651424    1.658683    1.677491
      7          6           0       -3.824305    2.820172    0.992303
      8          6           0       -2.787718    3.909507    1.477736
      9          6           0       -1.781146    2.990548    2.337645
     10          6           0       -2.524720    1.645570    2.395514
     11          6           0       -0.483807    2.787971    1.476905
     12          6           0       -3.564738    4.915653    2.403996
     13          6           0       -2.734214    6.015097    3.120421
     14          1           0       -2.817109    6.482627    4.543059
     15          7           0       -3.673322   -1.244461    2.537618
     16          6           0       -2.625605   -0.761330    3.339220
     17          6           0       -2.101466   -1.844652    4.059366
     18          6           0       -2.875087   -2.978485    3.850130
     19          6           0       -3.740680   -2.596724    2.746509
     20          6           0       -0.997890   -1.628889    5.042504
     21          6           0       -2.774487   -4.414682    4.462015
     22          8           0       -3.535822   -5.341074    4.204906
     23          6           0       -1.827000   -4.740192    5.619879
     24          7           0       -5.468170   -2.012396    0.214318
     25          6           0       -5.302904   -3.207003    0.824925
     26          6           0       -6.098903   -4.351999    0.168617
     27          6           0       -6.722208   -3.609338   -1.045760
     28          6           0       -6.433528   -2.145452   -0.765584
     29          6           0       -5.272077   -5.655674   -0.087132
     30          6           0       -8.213757   -3.900058   -1.367558
     31          6           0       -9.209121   -3.281131   -0.480672
     32          7           0       -5.744429    0.739735   -0.422282
     33          6           0       -6.466303    0.306967   -1.429855
     34          6           0       -6.958657    1.407438   -2.264830
     35          6           0       -6.286847    2.524323   -1.672778
     36          6           0       -5.543091    2.074717   -0.599315
     37          6           0       -8.125069    1.449165   -3.137078
     38          6           0       -6.143211    3.965499   -1.782319
     39          8           0       -6.704996    4.762581   -2.498922
     40          6           0       -5.100802    4.317539   -0.714109
     41          6           0       -3.891384    5.040104   -1.316706
     42          8           0       -2.999735    4.491920   -1.910846
     43          8           0       -4.034275    6.394911   -1.134703
     44          6           0       -2.894779    7.164340   -1.685257
     45          1           0       -1.419979    0.854281    3.943663
     46          1           0       -4.564390   -4.515530    2.300248
     47          1           0       -7.485903   -1.578683   -2.274063
     48          1           0       -2.241493    4.364714    0.651192
     49          1           0       -1.524687    3.392283    3.318713
     50          1           0       -0.353432    1.809851    1.014996
     51          1           0        0.406847    2.737103    2.103684
     52          1           0       -0.354618    3.530624    0.689843
     53          1           0       -4.111205    4.322115    3.136427
     54          1           0       -4.347688    5.366468    1.793596
     55          1           0       -2.809182    6.872074    2.450397
     56          1           0       -1.740514    5.571707    3.070020
     57          1           0       -0.606011   -0.612929    5.097944
     58          1           0       -0.255770   -2.413209    4.887338
     59          1           0       -1.475864   -1.810865    6.005459
     60          1           0       -0.771711   -4.692195    5.351023
     61          1           0       -2.051962   -5.668891    6.144536
     62          1           0       -2.033092   -4.003492    6.396572
     63          1           0       -6.806500   -4.509881    0.982067
     64          1           0       -6.086903   -3.897220   -1.883386
     65          1           0       -4.477081   -5.764481    0.649855
     66          1           0       -4.815089   -5.601955   -1.075599
     67          1           0       -5.874541   -6.560613   -0.005565
     68          1           0       -8.244171   -4.984861   -1.270653
     69          1           0       -8.410301   -3.689124   -2.418915
     70          1           0       -9.397335   -2.257850   -0.805205
     71          1           0       -8.897087   -3.340749    0.561825
     72          1           0      -10.184467   -3.761108   -0.566143
     73          1           0       -8.786058    0.672709   -2.751240
     74          1           0       -8.027593    1.173802   -4.187327
     75          1           0       -8.530948    2.457370   -3.061144
     76          1           0       -5.586997    4.956991    0.023389
     77          1           0       -3.275225    8.108295   -2.075073
     78          1           0       -2.436902    6.763499   -2.589814
     79          1           0       -2.174887    7.408207   -0.904660
     80         12           0        4.067363   -0.791319   -1.481587
     81          6           0        6.764213    0.823452    0.030908
     82          6           0        2.324559    2.043158   -1.409116
     83          6           0        1.224563   -2.681503   -1.657065
     84          6           0        5.913606   -3.745571   -1.488789
     85          7           0        4.566738    1.272051   -0.911011
     86          6           0        5.702081    1.671952   -0.351310
     87          6           0        5.683201    3.238064   -0.222140
     88          6           0        4.217226    3.576662   -0.584069
     89          6           0        3.632950    2.222802   -0.975957
     90          6           0        3.343654    4.112621    0.656155
     91          6           0        6.718264    4.010730   -1.159668
     92          6           0        7.380798    5.145380   -0.456444
     93          1           0        7.391483    6.522894   -1.101100
     94          7           0        2.061389   -0.357005   -1.549623
     95          6           0        1.525815    0.903537   -1.529897
     96          6           0        0.114221    0.819076   -1.929659
     97          6           0       -0.194305   -0.568235   -1.998195
     98          6           0        1.064092   -1.260621   -1.674408
     99          6           0       -0.806823    2.071485   -2.081934
    100          6           0       -1.570178   -1.247659   -2.270518
    101          8           0       -1.741826   -2.460634   -2.316139
    102          6           0       -2.740552   -0.372302   -2.515931
    103          7           0        3.626619   -2.838955   -1.528066
    104          6           0        2.361148   -3.433290   -1.536751
    105          6           0        2.505257   -4.963452   -1.327565
    106          6           0        3.953635   -5.265713   -1.913798
    107          6           0        4.511643   -3.842387   -1.629397
    108          6           0        2.252863   -5.405495    0.129912
    109          6           0        4.046661   -5.606736   -3.373949
    110          6           0        3.975890   -4.538984   -4.424906
    111          7           0        6.004038   -1.377447   -1.067611
    112          6           0        6.618817   -2.608166   -1.072533
    113          6           0        8.014600   -2.526063   -0.636186
    114          6           0        8.111448   -1.173515   -0.075720
    115          6           0        6.839115   -0.545679   -0.371150
    116          6           0        8.951305   -3.618418   -0.539284
    117          6           0        8.960100   -0.232038    0.644505
    118          8           0       10.019970   -0.336227    1.137914
    119          6           0        8.121309    1.150003    0.667390
    120          6           0        8.056542    1.815392    2.018915
    121          8           0        7.167435    1.648603    2.848580
    122          8           0        9.116294    2.716033    2.120999
    123          6           0        9.224428    3.504511    3.361850
    124          1           0        1.674047    2.891607   -1.633050
    125          1           0        0.275071   -3.220095   -1.696984
    126          1           0        6.462398   -4.681568   -1.609033
    127          1           0        5.835195    3.567550    0.805995
    128          1           0        4.071995    4.336223   -1.352211
    129          1           0        3.417599    5.200239    0.644637
    130          1           0        3.703671    3.818943    1.641841
    131          1           0        2.307228    3.819305    0.485092
    132          1           0        6.231950    4.421714   -2.044524
    133          1           0        7.509572    3.397791   -1.591452
    134          1           0        8.429504    4.849522   -0.450219
    135          1           0        7.105926    5.334439    0.580869
    136          1           0       -1.254683    2.227184   -1.100867
    137          1           0       -1.529652    1.943444   -2.888039
    138          1           0       -0.265259    3.015280   -2.153994
    139          1           0       -2.905852    0.537443   -1.938961
    140          1           0       -3.658384   -0.948921   -2.403770
    141          1           0       -2.841886   -0.204469   -3.588536
    142          1           0        1.755952   -5.380053   -2.000071
    143          1           0        4.465729   -6.056061   -1.365262
    144          1           0        3.036185   -5.997333    0.603486
    145          1           0        1.258210   -5.820311    0.294830
    146          1           0        2.191156   -4.529955    0.775986
    147          1           0        3.298427   -6.321082   -3.715264
    148          1           0        4.997048   -6.116542   -3.532604
    149          1           0        5.029371   -4.335562   -4.616161
    150          1           0        3.524505   -3.595668   -4.116707
    151          1           0        3.476489   -4.937468   -5.308623
    152          1           0        9.922880   -3.197502   -0.798707
    153          1           0        8.666770   -4.351626   -1.293560
    154          1           0        8.972675   -4.007051    0.478377
    155          1           0        8.632193    1.840504   -0.003673
    156          1           0        9.202084    2.795631    4.189992
    157          1           0        8.366369    4.166232    3.477047
    158          1           0       10.083694    4.158491    3.511339
 ---------------------------------------------------------------------

 SCF Done:  E(RwB97XD) =  -4070.65244156     A.U. after   19 cycles

 Excitation energies and oscillator strengths:

 Excited State   1:      Singlet-A      1.6138 eV  768.27 nm  f=0.3463  <S**2>=0.000
     310 -> 316        0.17922
     312 -> 314        0.67824
     310 <- 316        0.11644
 This state for optimization and/or second-order correction.
 Total Energy, E(TD-HF/TD-DFT) =  -4070.59313529
 Copying the excited state density for this state as the 1-particle RhoCI density.

 Excited State   2:      Singlet-A      1.7020 eV  728.45 nm  f=0.4124  <S**2>=0.000
     309 -> 315       -0.18664
     311 -> 313        0.67562
     309 <- 315       -0.11312

 Excited State   3:      Singlet-A      2.1989 eV  563.84 nm  f=0.0016  <S**2>=0.000
     309 -> 313        0.40154
     310 -> 314        0.49451
     311 -> 315        0.16308
     312 -> 316       -0.24094

 Excited State   4:      Singlet-A      2.2145 eV  559.87 nm  f=0.1778  <S**2>=0.000
     309 -> 313        0.50259
     310 -> 314       -0.38692
     311 -> 315        0.21896
     312 -> 316        0.19785

 Excited State   5:      Singlet-A      2.6169 eV  473.79 nm  f=0.0000  <S**2>=0.000
     312 -> 313        0.70330

 The electronic state is 1-A.
 Alpha  occ. eigenvalues --  -46.95189 -46.94069 -19.31652 -19.30273 -19.26181
 Alpha  occ. eigenvalues --  -19.25048 -19.24591 -19.24562 -19.24121 -19.23611
 Alpha  occ. eigenvalues --  -14.47067 -14.46626 -14.45815 -14.45708 -14.43913
 Alpha  occ. eigenvalues --  -14.43898 -14.43711 -14.43545 -10.44345 -10.43546
 Alpha  occ. eigenvalues --  -10.40256 -10.39395 -10.38948 -10.38782 -10.36124
 Alpha  occ. eigenvalues --  -10.35593 -10.35413 -10.35153 -10.34792 -10.34790
 Alpha  occ. eigenvalues --  -10.34616 -10.34448 -10.34374 -10.34015 -10.33957
 Alpha  occ. eigenvalues --  -10.33887 -10.33698 -10.33670 -10.33532 -10.33288
 Alpha  occ. eigenvalues --  -10.33162 -10.33055 -10.32999 -10.32919 -10.32721
 Alpha  occ. eigenvalues --  -10.32562 -10.32437 -10.32394 -10.32355 -10.32287
 Alpha  occ. eigenvalues --  -10.32221 -10.32217 -10.31974 -10.31911 -10.31857
 Alpha  occ. eigenvalues --  -10.31707 -10.31619 -10.31596 -10.31491 -10.31465
 Alpha  occ. eigenvalues --  -10.31431 -10.31281 -10.31186 -10.30977 -10.30760
 Alpha  occ. eigenvalues --  -10.30714 -10.30569 -10.30253 -10.30103 -10.30052
 Alpha  occ. eigenvalues --  -10.30010 -10.30008 -10.29955 -10.29926 -10.29897
 Alpha  occ. eigenvalues --  -10.29803 -10.29628 -10.29428 -10.29342 -10.29334
 Alpha  occ. eigenvalues --  -10.29262 -10.29163 -10.28924 -10.28513 -10.28455
 Alpha  occ. eigenvalues --  -10.28206  -3.21202  -3.20191  -1.94776  -1.94338
 Alpha  occ. eigenvalues --   -1.94160  -1.93789  -1.93294  -1.93193  -1.19691
 Alpha  occ. eigenvalues --   -1.17332  -1.15078  -1.12796  -1.12710  -1.11746
 Alpha  occ. eigenvalues --   -1.11699  -1.09667  -1.07169  -1.07028  -1.06025
 Alpha  occ. eigenvalues --   -1.05453  -1.05371  -1.04656  -1.04623  -1.03961
 Alpha  occ. eigenvalues --   -0.96088  -0.93691  -0.91289  -0.90726  -0.90571
 Alpha  occ. eigenvalues --   -0.90415  -0.90393  -0.89763  -0.89623  -0.89213
 Alpha  occ. eigenvalues --   -0.88904  -0.88644  -0.88276  -0.87583  -0.86178
 Alpha  occ. eigenvalues --   -0.85932  -0.85670  -0.85356  -0.84528  -0.84361
 Alpha  occ. eigenvalues --   -0.83608  -0.83109  -0.83037  -0.82607  -0.82555
 Alpha  occ. eigenvalues --   -0.82033  -0.80600  -0.79701  -0.79647  -0.78944
 Alpha  occ. eigenvalues --   -0.78720  -0.78368  -0.78178  -0.77714  -0.76941
 Alpha  occ. eigenvalues --   -0.76592  -0.74614  -0.74012  -0.73881  -0.73290
 Alpha  occ. eigenvalues --   -0.72009  -0.71361  -0.70973  -0.70539  -0.70283
 Alpha  occ. eigenvalues --   -0.69585  -0.69177  -0.68357  -0.67599  -0.67457
 Alpha  occ. eigenvalues --   -0.67019  -0.66598  -0.66413  -0.66096  -0.66050
 Alpha  occ. eigenvalues --   -0.65862  -0.64852  -0.63700  -0.62218  -0.61688
 Alpha  occ. eigenvalues --   -0.61641  -0.61545  -0.61402  -0.61034  -0.60651
 Alpha  occ. eigenvalues --   -0.60481  -0.59930  -0.59550  -0.59436  -0.59025
 Alpha  occ. eigenvalues --   -0.58639  -0.57918  -0.57691  -0.57509  -0.57305
 Alpha  occ. eigenvalues --   -0.57233  -0.57100  -0.56913  -0.56615  -0.56219
 Alpha  occ. eigenvalues --   -0.56006  -0.55449  -0.55377  -0.55270  -0.55230
 Alpha  occ. eigenvalues --   -0.54713  -0.54648  -0.54551  -0.54210  -0.54106
 Alpha  occ. eigenvalues --   -0.53715  -0.53463  -0.53406  -0.53316  -0.53192
 Alpha  occ. eigenvalues --   -0.53061  -0.52914  -0.52670  -0.52335  -0.52104
 Alpha  occ. eigenvalues --   -0.52054  -0.51773  -0.51688  -0.51509  -0.51408
 Alpha  occ. eigenvalues --   -0.51259  -0.51226  -0.51148  -0.51038  -0.50957
 Alpha  occ. eigenvalues --   -0.50824  -0.50444  -0.50115  -0.50049  -0.49909
 Alpha  occ. eigenvalues --   -0.49746  -0.49692  -0.49478  -0.49188  -0.48793
 Alpha  occ. eigenvalues --   -0.48661  -0.48537  -0.48309  -0.48255  -0.48062
 Alpha  occ. eigenvalues --   -0.47935  -0.47834  -0.47614  -0.47520  -0.47394
 Alpha  occ. eigenvalues --   -0.47254  -0.47171  -0.47086  -0.47018  -0.46778
 Alpha  occ. eigenvalues --   -0.46701  -0.46518  -0.46346  -0.46316  -0.46182
 Alpha  occ. eigenvalues --   -0.46107  -0.45901  -0.45853  -0.45730  -0.45417
 Alpha  occ. eigenvalues --   -0.45351  -0.45299  -0.45143  -0.45081  -0.44944
 Alpha  occ. eigenvalues --   -0.44836  -0.44486  -0.44392  -0.44324  -0.43957
 Alpha  occ. eigenvalues --   -0.43829  -0.43730  -0.43585  -0.43467  -0.43256
 Alpha  occ. eigenvalues --   -0.42908  -0.42677  -0.42445  -0.42373  -0.42203
 Alpha  occ. eigenvalues --   -0.42008  -0.41504  -0.40876  -0.40747  -0.40659
 Alpha  occ. eigenvalues --   -0.40508  -0.40177  -0.39866  -0.39839  -0.39782
 Alpha  occ. eigenvalues --   -0.39355  -0.39032  -0.38839  -0.38603  -0.38494
 Alpha  occ. eigenvalues --   -0.38427  -0.37730  -0.37543  -0.36398  -0.36395
 Alpha  occ. eigenvalues --   -0.36093  -0.35602  -0.34869  -0.33737  -0.33189
 Alpha  occ. eigenvalues --   -0.33165  -0.33037  -0.32975  -0.32675  -0.32384
 Alpha  occ. eigenvalues --   -0.31818  -0.31550  -0.31526  -0.25878  -0.25724
 Alpha  occ. eigenvalues --   -0.23080  -0.22363
 Alpha virt. eigenvalues --   -0.06860  -0.06570   0.00440   0.00706   0.02306
 Alpha virt. eigenvalues --    0.02834   0.04179   0.04834   0.05265   0.06083
 Alpha virt. eigenvalues --    0.06711   0.06774   0.07812   0.08167   0.08679

 Mulliken charges:
               1
     1  Mg   0.960464
     2  C   -0.009320
     3  C   -0.071708
     4  C   -0.105110
     5  C   -0.065934
     6  N   -0.282179
     7  C   -0.060107
     8  C   -0.081075
     9  C   -0.116748
    10  C    0.040685
    11  C   -0.009953
    12  C   -0.011732
    13  C   -0.096891
    14  H    0.060585
    15  N   -0.476563
    16  C    0.178437
    17  C   -0.161672
    18  C   -0.080606
    19  C    0.154040
    20  C    0.071269
    21  C    0.086361
    22  O   -0.232830
    23  C   -0.021827
    24  N   -0.406170
    25  C    0.085841
    26  C   -0.117228
    27  C   -0.031378
    28  C   -0.008737
    29  C    0.035366
    30  C   -0.021544
    31  C   -0.015490
    32  N   -0.406548
    33  C    0.143884
    34  C   -0.159212
    35  C   -0.073177
    36  C    0.144193
    37  C    0.070881
    38  C    0.114945
    39  O   -0.187611
    40  C   -0.074259
    41  C    0.268120
    42  O   -0.229811
    43  O   -0.358269
    44  C    0.123394
    45  H   -0.011042
    46  H    0.022881
    47  H   -0.018951
    48  H    0.041432
    49  H    0.048900
    50  H    0.056370
    51  H    0.037806
    52  H    0.046839
    53  H    0.036821
    54  H    0.031678
    55  H    0.050200
    56  H    0.036364
    57  H    0.046680
    58  H    0.051547
    59  H    0.050300
    60  H    0.059636
    61  H    0.055108
    62  H    0.041546
    63  H    0.040188
    64  H    0.047839
    65  H    0.049084
    66  H    0.040042
    67  H    0.038392
    68  H    0.023372
    69  H    0.034770
    70  H    0.031574
    71  H    0.032832
    72  H    0.035304
    73  H    0.030441
    74  H    0.040943
    75  H    0.063658
    76  H    0.080383
    77  H    0.052287
    78  H    0.067790
    79  H    0.057109
    80  Mg   0.980792
    81  C    0.016434
    82  C   -0.090859
    83  C   -0.083749
    84  C   -0.106765
    85  N   -0.315587
    86  C    0.007510
    87  C   -0.040199
    88  C   -0.127131
    89  C    0.102882
    90  C   -0.003852
    91  C    0.028490
    92  C   -0.147445
    93  H    0.025326
    94  N   -0.452929
    95  C    0.104673
    96  C   -0.161256
    97  C   -0.102628
    98  C    0.124404
    99  C    0.073080
   100  C    0.084144
   101  O   -0.236562
   102  C   -0.033647
   103  N   -0.364788
   104  C    0.051789
   105  C   -0.052640
   106  C   -0.059855
   107  C    0.045714
   108  C    0.045547
   109  C   -0.025013
   110  C   -0.034843
   111  N   -0.447601
   112  C    0.162401
   113  C   -0.170392
   114  C   -0.085139
   115  C    0.116182
   116  C    0.077233
   117  C    0.136530
   118  O   -0.143768
   119  C   -0.138855
   120  C    0.283271
   121  O   -0.251038
   122  O   -0.383026
   123  C    0.147479
   124  H   -0.012737
   125  H    0.021959
   126  H   -0.010910
   127  H    0.041427
   128  H    0.043921
   129  H    0.029427
   130  H    0.048406
   131  H    0.033220
   132  H    0.037986
   133  H    0.037285
   134  H    0.053995
   135  H    0.050486
   136  H    0.038181
   137  H    0.071169
   138  H    0.031964
   139  H    0.080652
   140  H    0.048120
   141  H    0.062389
   142  H    0.024250
   143  H    0.022929
   144  H    0.038172
   145  H    0.044927
   146  H    0.029364
   147  H    0.025906
   148  H    0.023022
   149  H    0.026910
   150  H    0.052266
   151  H    0.039804
   152  H    0.056545
   153  H    0.036208
   154  H    0.072918
   155  H    0.075614
   156  H    0.053587
   157  H    0.039731
   158  H    0.061699
 Sum of Mulliken charges =  -0.00000

 Dipole moment (field-independent basis, Debye):
    X=             -0.2474    Y=              1.0342    Z=              1.5833  Tot=              1.9072
 Quadrupole moment (field-independent basis, Debye-Ang):
   XX=           -543.0368   YY=           -480.7924   ZZ=           -498.2557
   XY=             24.0956   XZ=            -16.2684   YZ=             21.1595

 Normal termination of Gaussian 16 at Sat Sep 18 16:45:25 2021.
