 Gaussian 16, Revision A.03,
 Gaussian 16:  ES64L-G16RevA.03 25-Dec-2016

 --------------------------------
 #p wB97XD/Def2SVP td=(nstates=5)
 --------------------------------

 --------------------------------
 TDDFT excited states in gaussian
 --------------------------------
 Symbolic Z-matrix:
 Charge =  0 Multiplicity = 1

                         Standard orientation:
 ---------------------------------------------------------------------
 Center     Atomic      Atomic             Coordinates (Angstroms)
 Number     Number       Type             X           Y           Z
 ---------------------------------------------------------------------
      1         12           0       25.472249   -0.184376   -0.144005
      2          6           0       21.993888   -0.700742    0.153908
      3          6           0       24.977358    0.858918   -3.435555
      4          6           0       28.569510    1.233040   -0.033149
      5          6           0       25.655464   -0.788350    3.381830
      6          7           0       23.718161    0.005189   -1.446984
      7          6           0       22.430605   -0.227334   -1.114638
      8          6           0       21.468063    0.178191   -2.277928
      9          6           0       22.511624    0.294596   -3.482144
     10          6           0       23.894341    0.364472   -2.756675
     11          6           0       22.623163   -0.821858   -4.545066
     12          6           0       20.754989    1.531578   -1.900966
     13          6           0       19.282935    1.629270   -2.389012
     14          1           0       18.843744    3.040014   -2.956960
     15          7           0       26.735853    0.745893   -1.633597
     16          6           0       26.319774    1.015166   -2.910460
     17          6           0       27.430871    1.563935   -3.590545
     18          6           0       28.490431    1.769120   -2.657613
     19          6           0       27.994448    1.196668   -1.361375
     20          6           0       27.445260    1.958032   -5.048603
     21          6           0       29.748748    2.534764   -2.887103
     22          8           0       29.959221    3.133001   -3.929964
     23          6           0       30.794886    2.710033   -1.913602
     24          7           0       26.863089    0.258577    1.528477
     25          6           0       28.156761    0.707778    1.224734
     26          6           0       29.035287    0.638983    2.434591
     27          6           0       28.110992    0.056191    3.566832
     28          6           0       26.806893   -0.178243    2.824137
     29          6           0       30.262195   -0.223546    2.112094
     30          6           0       28.126881    0.901032    4.896129
     31          6           0       28.521106    0.182488    6.150831
     32          7           0       24.122533   -0.695665    1.502696
     33          6           0       24.382922   -0.949530    2.826965
     34          6           0       23.172022   -1.467390    3.500966
     35          6           0       22.218720   -1.304555    2.460986
     36          6           0       22.851272   -0.931333    1.289960
     37          6           0       22.963693   -1.850472    4.957752
     38          6           0       20.802986   -1.333685    2.205996
     39          8           0       19.859871   -1.570870    2.976799
     40          6           0       20.555926   -0.979909    0.739719
     41          6           0       19.794081   -2.040674    0.054534
     42          8           0       18.752412   -1.842311   -0.457485
     43          8           0       20.491801   -3.203611   -0.099559
     44          6           0       19.780469   -4.123665   -1.013352
     45          1           0       24.871360    1.117867   -4.491531
     46          1           0       29.588466    1.618510   -0.094068
     47          1           0       25.508518   -0.974562    4.448282
     48          1           0       20.740419   -0.622942   -2.408787
     49          1           0       22.582147    1.279788   -3.942859
     50          1           0       22.297124   -1.775791   -4.129001
     51          1           0       23.602245   -0.958038   -5.004474
     52          1           0       21.910843   -0.555263   -5.325126
     53          1           0       21.333604    2.385501   -2.254418
     54          1           0       20.781174    1.558038   -0.811559
     55          1           0       18.707146    1.383009   -1.496693
     56          1           0       19.209939    0.798901   -3.091685
     57          1           0       28.424379    2.015993   -5.524241
     58          1           0       26.964645    2.935978   -5.049612
     59          1           0       26.730134    1.452746   -5.697771
     60          1           0       31.171744    1.714533   -1.675485
     61          1           0       30.431968    3.247476   -1.037034
     62          1           0       31.586291    3.310019   -2.362912
     63          1           0       29.279647    1.640297    2.788406
     64          1           0       28.237601   -0.993693    3.831967
     65          1           0       30.399283   -0.395739    1.044271
     66          1           0       30.187718   -1.214722    2.559447
     67          1           0       31.169073    0.345382    2.314854
     68          1           0       27.112581    1.290914    4.981587
     69          1           0       28.874530    1.693281    4.907629
     70          1           0       27.717225    0.332488    6.871006
     71          1           0       29.418997    0.609237    6.598182
     72          1           0       28.799065   -0.857773    5.981158
     73          1           0       22.763655   -0.988990    5.595206
     74          1           0       23.774234   -2.457224    5.363412
     75          1           0       22.016872   -2.386545    4.893691
     76          1           0       19.878778   -0.128976    0.677809
     77          1           0       20.378993   -5.030850   -1.100329
     78          1           0       19.635596   -3.661570   -1.989769
     79          1           0       18.840873   -4.510064   -0.619952
     80         12           0      -25.290953    0.581286    0.133733
     81          6           0      -22.474470   -1.701958   -0.061711
     82          6           0      -27.207291   -2.095722   -0.591642
     83          6           0      -27.748054    2.618844    0.251200
     84          6           0      -22.999963    3.248329    0.552210
     85          7           0      -24.825933   -1.749004   -0.262558
     86          6           0      -23.655682   -2.406511   -0.191474
     87          6           0      -23.891021   -3.925672   -0.293155
     88          6           0      -25.361590   -3.864269   -0.919403
     89          6           0      -25.848153   -2.533402   -0.524927
     90          6           0      -25.558214   -4.343753   -2.347829
     91          6           0      -23.762928   -4.540865    1.111141
     92          6           0      -23.354074   -6.043006    1.078814
     93          1           0      -22.824772   -6.777100   -0.238706
     94          7           0      -27.277023    0.313003   -0.090391
     95          6           0      -27.909206   -0.852684   -0.478540
     96          6           0      -29.331583   -0.562269   -0.631294
     97          6           0      -29.518844    0.804997   -0.310785
     98          6           0      -28.137103    1.293042   -0.038936
     99          6           0      -30.334419   -1.543638   -1.048647
    100          6           0      -30.879819    1.673359   -0.212032
    101          8           0      -30.884579    2.783938    0.244032
    102          6           0      -32.262628    1.026227   -0.407756
    103          7           0      -25.317579    2.685236    0.100898
    104          6           0      -26.494493    3.269475    0.310734
    105          6           0      -26.415851    4.749653    0.571811
    106          6           0      -24.946015    4.833954    1.050931
    107          6           0      -24.365819    3.544073    0.375104
    108          6           0      -26.670539    5.660217   -0.718201
    109          6           0      -24.725126    4.915099    2.619654
    110          6           0      -25.806769    5.576151    3.522749
    111          7           0      -23.202151    0.804076    0.120997
    112          6           0      -22.407569    1.877567    0.355544
    113          6           0      -21.069295    1.514700    0.483837
    114          6           0      -21.071603    0.164794    0.276912
    115          6           0      -22.368235   -0.266673    0.078320
    116          6           0      -19.916165    2.446523    0.846272
    117          6           0      -20.151137   -0.981709    0.245164
    118          8           0      -18.933043   -1.072693    0.213402
    119          6           0      -21.096735   -2.252663    0.098087
    120          6           0      -20.598234   -3.039701   -1.016206
    121          8           0      -20.763177   -2.812761   -2.219039
    122          8           0      -19.702861   -3.912728   -0.509298
    123          6           0      -18.854619   -4.497055   -1.532592
    124          1           0      -27.794751   -2.919306   -1.002990
    125          1           0      -28.607552    3.291571    0.244631
    126          1           0      -22.341747    4.089480    0.778717
    127          1           0      -23.242625   -4.383212   -1.040482
    128          1           0      -25.951333   -4.580590   -0.349030
    129          1           0      -26.154055   -5.254687   -2.396380
    130          1           0      -24.593083   -4.528668   -2.819076
    131          1           0      -26.013214   -3.604073   -3.006616
    132          1           0      -24.758909   -4.542466    1.554557
    133          1           0      -23.125258   -3.973301    1.788644
    134          1           0      -24.112845   -6.677745    1.537622
    135          1           0      -22.636267   -6.092302    1.897489
    136          1           0      -30.016318   -2.563524   -0.833484
    137          1           0      -30.455835   -1.385124   -2.120341
    138          1           0      -31.299962   -1.430416   -0.555201
    139          1           0      -32.520150    0.296655    0.360003
    140          1           0      -32.257432    0.683230   -1.442603
    141          1           0      -33.032001    1.798499   -0.428924
    142          1           0      -27.199579    4.904135    1.313052
    143          1           0      -24.410736    5.689272    0.639333
    144          1           0      -27.355727    6.409513   -0.322409
    145          1           0      -27.147049    5.140339   -1.550065
    146          1           0      -25.798421    6.183020   -1.109011
    147          1           0      -23.758906    5.380231    2.809800
    148          1           0      -24.777943    3.858027    2.880863
    149          1           0      -26.563396    4.844882    3.806076
    150          1           0      -26.144986    6.424065    2.926115
    151          1           0      -25.378613    6.019833    4.420932
    152          1           0      -20.375726    3.221721    1.459897
    153          1           0      -19.490590    2.959530   -0.015678
    154          1           0      -19.172179    1.870002    1.395714
    155          1           0      -21.014940   -2.804963    1.035081
    156          1           0      -18.110860   -5.187423   -1.135730
    157          1           0      -18.440636   -3.812841   -2.273432
    158          1           0      -19.435471   -5.163822   -2.170810
 ---------------------------------------------------------------------

 SCF Done:  E(RwB97XD) =  -4070.55885219     A.U. after   19 cycles

 Excitation energies and oscillator strengths:

 Excited State   1:      Singlet-A      1.6192 eV  765.69 nm  f=0.4081  <S**2>=0.000
     309 -> 315       -0.17886
     311 -> 313        0.68467
     309 <- 315       -0.11646
 This state for optimization and/or second-order correction.
 Total Energy, E(TD-HF/TD-DFT) =  -4070.49934622
 Copying the excited state density for this state as the 1-particle RhoCI density.

 Excited State   2:      Singlet-A      1.7988 eV  689.27 nm  f=0.3721  <S**2>=0.000
     310 -> 316        0.19146
     312 -> 314        0.67946
     310 <- 316        0.11150

 Excited State   3:      Singlet-A      2.1451 eV  577.98 nm  f=0.1100  <S**2>=0.000
     309 -> 313        0.63986
     311 -> 315        0.28460

 Excited State   4:      Singlet-A      2.1925 eV  565.50 nm  f=0.1524  <S**2>=0.000
     310 -> 314        0.65250
     312 -> 316       -0.25642

 Excited State   5:      Singlet-A      3.2208 eV  384.95 nm  f=0.0033  <S**2>=0.000
     304 -> 313       -0.13615
     306 -> 313       -0.11660
     308 -> 313        0.65568
     308 -> 317        0.10329

 The electronic state is 1-A.
 Alpha  occ. eigenvalues --  -46.97144 -46.95659 -19.30324 -19.30065 -19.25563
 Alpha  occ. eigenvalues --  -19.24830 -19.23929 -19.23824 -19.23661 -19.22293
 Alpha  occ. eigenvalues --  -14.47592 -14.47260 -14.46045 -14.45634 -14.44534
 Alpha  occ. eigenvalues --  -14.44463 -14.43877 -14.43166 -10.42547 -10.41993
 Alpha  occ. eigenvalues --  -10.40997 -10.38808 -10.38764 -10.37391 -10.36288
 Alpha  occ. eigenvalues --  -10.35997 -10.35867 -10.35555 -10.35391 -10.35078
 Alpha  occ. eigenvalues --  -10.34985 -10.34826 -10.34817 -10.34667 -10.34226
 Alpha  occ. eigenvalues --  -10.34220 -10.33847 -10.33624 -10.33535 -10.33531
 Alpha  occ. eigenvalues --  -10.33506 -10.33172 -10.33095 -10.33092 -10.33055
 Alpha  occ. eigenvalues --  -10.32737 -10.32681 -10.32560 -10.32484 -10.32477
 Alpha  occ. eigenvalues --  -10.32324 -10.32263 -10.32177 -10.32016 -10.31953
 Alpha  occ. eigenvalues --  -10.31827 -10.31630 -10.31602 -10.31555 -10.31538
 Alpha  occ. eigenvalues --  -10.31505 -10.31418 -10.31404 -10.31275 -10.31251
 Alpha  occ. eigenvalues --  -10.31095 -10.31022 -10.30957 -10.30891 -10.30735
 Alpha  occ. eigenvalues --  -10.30719 -10.30482 -10.30373 -10.30233 -10.30100
 Alpha  occ. eigenvalues --  -10.29918 -10.29842 -10.29550 -10.29516 -10.29425
 Alpha  occ. eigenvalues --  -10.29394 -10.29333 -10.29149 -10.29117 -10.29006
 Alpha  occ. eigenvalues --  -10.27649  -3.22789  -3.21612  -1.96382  -1.95880
 Alpha  occ. eigenvalues --   -1.95740  -1.95203  -1.94753  -1.94563  -1.20123
 Alpha  occ. eigenvalues --   -1.18613  -1.14858  -1.11711  -1.11608  -1.11243
 Alpha  occ. eigenvalues --   -1.11204  -1.08764  -1.07769  -1.07194  -1.07159
 Alpha  occ. eigenvalues --   -1.06695  -1.05734  -1.05427  -1.05385  -1.04546
 Alpha  occ. eigenvalues --   -0.94619  -0.94258  -0.91275  -0.91144  -0.90941
 Alpha  occ. eigenvalues --   -0.90578  -0.90106  -0.89941  -0.89923  -0.89472
 Alpha  occ. eigenvalues --   -0.88979  -0.88795  -0.87740  -0.87451  -0.86769
 Alpha  occ. eigenvalues --   -0.86583  -0.86263  -0.84966  -0.84617  -0.84386
 Alpha  occ. eigenvalues --   -0.84229  -0.83857  -0.82877  -0.82630  -0.82508
 Alpha  occ. eigenvalues --   -0.82032  -0.80598  -0.80596  -0.79539  -0.78789
 Alpha  occ. eigenvalues --   -0.78699  -0.78497  -0.78397  -0.77606  -0.77349
 Alpha  occ. eigenvalues --   -0.77165  -0.75142  -0.74678  -0.74484  -0.73599
 Alpha  occ. eigenvalues --   -0.71563  -0.71347  -0.71188  -0.70679  -0.69913
 Alpha  occ. eigenvalues --   -0.69539  -0.68833  -0.68784  -0.68280  -0.67637
 Alpha  occ. eigenvalues --   -0.67362  -0.67013  -0.66996  -0.66639  -0.66579
 Alpha  occ. eigenvalues --   -0.65628  -0.65297  -0.63741  -0.62843  -0.62077
 Alpha  occ. eigenvalues --   -0.62014  -0.61443  -0.61193  -0.60974  -0.60858
 Alpha  occ. eigenvalues --   -0.60339  -0.60265  -0.59820  -0.59439  -0.59039
 Alpha  occ. eigenvalues --   -0.58556  -0.58439  -0.58012  -0.57527  -0.57365
 Alpha  occ. eigenvalues --   -0.57112  -0.57065  -0.56496  -0.56490  -0.55951
 Alpha  occ. eigenvalues --   -0.55735  -0.55511  -0.55479  -0.55303  -0.55082
 Alpha  occ. eigenvalues --   -0.54918  -0.54822  -0.54757  -0.54558  -0.54195
 Alpha  occ. eigenvalues --   -0.54148  -0.53658  -0.53642  -0.53423  -0.53266
 Alpha  occ. eigenvalues --   -0.53178  -0.53033  -0.52811  -0.52604  -0.52375
 Alpha  occ. eigenvalues --   -0.51955  -0.51901  -0.51774  -0.51614  -0.51524
 Alpha  occ. eigenvalues --   -0.51225  -0.51031  -0.51015  -0.50851  -0.50664
 Alpha  occ. eigenvalues --   -0.50550  -0.50489  -0.50310  -0.50243  -0.50087
 Alpha  occ. eigenvalues --   -0.49763  -0.49444  -0.49387  -0.49282  -0.49244
 Alpha  occ. eigenvalues --   -0.48927  -0.48900  -0.48697  -0.48633  -0.48610
 Alpha  occ. eigenvalues --   -0.48253  -0.48233  -0.48127  -0.47667  -0.47644
 Alpha  occ. eigenvalues --   -0.47318  -0.47082  -0.47022  -0.46784  -0.46781
 Alpha  occ. eigenvalues --   -0.46622  -0.46520  -0.46409  -0.46283  -0.46190
 Alpha  occ. eigenvalues --   -0.45979  -0.45958  -0.45819  -0.45713  -0.45515
 Alpha  occ. eigenvalues --   -0.45288  -0.45224  -0.45150  -0.44912  -0.44864
 Alpha  occ. eigenvalues --   -0.44799  -0.44554  -0.44536  -0.44344  -0.44323
 Alpha  occ. eigenvalues --   -0.44184  -0.43952  -0.43681  -0.43312  -0.43288
 Alpha  occ. eigenvalues --   -0.43189  -0.42888  -0.42631  -0.42256  -0.42049
 Alpha  occ. eigenvalues --   -0.41597  -0.41524  -0.41195  -0.41112  -0.40571
 Alpha  occ. eigenvalues --   -0.40566  -0.40133  -0.39975  -0.39906  -0.39640
 Alpha  occ. eigenvalues --   -0.39380  -0.39225  -0.38920  -0.38625  -0.38319
 Alpha  occ. eigenvalues --   -0.37871  -0.37613  -0.36888  -0.36117  -0.36114
 Alpha  occ. eigenvalues --   -0.35737  -0.35629  -0.34658  -0.33932  -0.33715
 Alpha  occ. eigenvalues --   -0.33697  -0.32961  -0.32805  -0.32592  -0.32277
 Alpha  occ. eigenvalues --   -0.31896  -0.31557  -0.31315  -0.26412  -0.25274
 Alpha  occ. eigenvalues --   -0.23351  -0.23182
 Alpha virt. eigenvalues --   -0.07741  -0.06561  -0.00326   0.00866   0.02348
 Alpha virt. eigenvalues --    0.02645   0.04427   0.04564   0.04795   0.05600
 Alpha virt. eigenvalues --    0.06791   0.07296   0.07944   0.08022   0.08229

 Mulliken charges:
               1
     1  Mg   0.930391
     2  C   -0.012462
     3  C   -0.078698
     4  C   -0.029767
     5  C   -0.055273
     6  N   -0.359332
     7  C   -0.011289
     8  C   -0.090486
     9  C   -0.100326
    10  C    0.079461
    11  C    0.032986
    12  C    0.011783
    13  C   -0.107014
    14  H    0.041762
    15  N   -0.446538
    16  C    0.131664
    17  C   -0.166263
    18  C   -0.071332
    19  C    0.121576
    20  C    0.092232
    21  C   -0.000474
    22  O   -0.245914
    23  C    0.011374
    24  N   -0.354281
    25  C    0.049174
    26  C   -0.068689
    27  C   -0.054133
    28  C    0.053447
    29  C    0.028808
    30  C   -0.008409
    31  C   -0.059093
    32  N   -0.367906
    33  C    0.038698
    34  C   -0.158690
    35  C   -0.038454
    36  C    0.117544
    37  C    0.062070
    38  C    0.094562
    39  O   -0.225684
    40  C   -0.017600
    41  C    0.221657
    42  O   -0.212622
    43  O   -0.366542
    44  C    0.140036
    45  H    0.006048
    46  H   -0.031124
    47  H   -0.001358
    48  H    0.037998
    49  H    0.035494
    50  H    0.032297
    51  H    0.046094
    52  H    0.040181
    53  H    0.042475
    54  H    0.036105
    55  H    0.065985
    56  H    0.053279
    57  H    0.070782
    58  H    0.039825
    59  H    0.017368
    60  H    0.051095
    61  H    0.064309
    62  H    0.052262
    63  H    0.047983
    64  H    0.037673
    65  H    0.035131
    66  H    0.041413
    67  H    0.037052
    68  H    0.041973
    69  H    0.039571
    70  H    0.042344
    71  H    0.030749
    72  H    0.032985
    73  H    0.064852
    74  H    0.051560
    75  H    0.065784
    76  H    0.062099
    77  H    0.046725
    78  H    0.053342
    79  H    0.057692
    80  Mg   0.962991
    81  C   -0.002480
    82  C   -0.069653
    83  C   -0.087019
    84  C   -0.078739
    85  N   -0.252321
    86  C   -0.062683
    87  C   -0.062012
    88  C   -0.088835
    89  C   -0.000001
    90  C    0.039646
    91  C    0.010100
    92  C   -0.092295
    93  H    0.048526
    94  N   -0.472836
    95  C    0.161547
    96  C   -0.161882
    97  C   -0.088143
    98  C    0.122013
    99  C    0.059535
   100  C    0.076558
   101  O   -0.197388
   102  C   -0.024155
   103  N   -0.321578
   104  C    0.064957
   105  C   -0.102415
   106  C   -0.113648
   107  C    0.058486
   108  C    0.030258
   109  C   -0.010562
   110  C   -0.052979
   111  N   -0.409749
   112  C    0.090344
   113  C   -0.219087
   114  C   -0.051347
   115  C    0.154791
   116  C    0.095815
   117  C    0.138593
   118  O   -0.197722
   119  C   -0.093037
   120  C    0.252598
   121  O   -0.272140
   122  O   -0.331222
   123  C    0.153365
   124  H   -0.010549
   125  H    0.011894
   126  H    0.003407
   127  H    0.040495
   128  H    0.017712
   129  H    0.039824
   130  H    0.042837
   131  H    0.036614
   132  H    0.031782
   133  H    0.048022
   134  H    0.038509
   135  H    0.037361
   136  H    0.044130
   137  H    0.065916
   138  H    0.040856
   139  H    0.086389
   140  H    0.045208
   141  H    0.050797
   142  H    0.043737
   143  H    0.017542
   144  H    0.041923
   145  H    0.045894
   146  H    0.042533
   147  H    0.037418
   148  H    0.027788
   149  H    0.050445
   150  H    0.034820
   151  H    0.039889
   152  H    0.025454
   153  H    0.053088
   154  H    0.055845
   155  H    0.073340
   156  H    0.049856
   157  H    0.060899
   158  H    0.024131
 Sum of Mulliken charges =  -0.00000

 Dipole moment (field-independent basis, Debye):
    X=             -1.6873    Y=             -4.3218    Z=              2.9863  Tot=              5.5175
 Quadrupole moment (field-independent basis, Debye-Ang):
   XX=            -56.0854   YY=           -481.4191   ZZ=           -502.4460
   XY=             -1.2950   XZ=             55.8423   YZ=             19.8551

 Normal termination of Gaussian 16 at Sat Sep 18 22:27:19 2021.
