 Gaussian 16, Revision A.03,
 Gaussian 16:  ES64L-G16RevA.03 25-Dec-2016

 --------------------------------
 #p wB97XD/Def2SVP td=(nstates=5)
 --------------------------------

 --------------------------------
 TDDFT excited states in gaussian
 --------------------------------
 Symbolic Z-matrix:
 Charge =  0 Multiplicity = 1

                         Standard orientation:
 ---------------------------------------------------------------------
 Center     Atomic      Atomic             Coordinates (Angstroms)
 Number     Number       Type             X           Y           Z
 ---------------------------------------------------------------------
      1         12           0       -9.551165    0.330174    0.511206
      2          6           0       -8.932732   -2.366591   -1.472476
      3          6           0       -6.799535   -0.606306    2.403502
      4          6           0       -9.934353    3.189976    2.227976
      5          6           0      -11.875105    1.544573   -1.836198
      6          7           0       -7.882097   -1.173655    0.299817
      7          6           0       -7.916839   -2.184811   -0.591098
      8          6           0       -6.711702   -3.049525   -0.518352
      9          6           0       -6.222967   -2.675935    1.015946
     10          6           0       -7.015231   -1.381409    1.295313
     11          6           0       -6.470876   -3.833096    2.028128
     12          6           0       -5.704247   -2.615671   -1.571237
     13          6           0       -5.212567   -1.094812   -1.602447
     14          1           0       -3.752296   -0.762109   -1.882294
     15          7           0       -8.524716    1.179521    2.084898
     16          6           0       -7.485155    0.571140    2.832870
     17          6           0       -7.269377    1.382876    3.983814
     18          6           0       -8.096148    2.499192    3.958616
     19          6           0       -8.944646    2.342226    2.765304
     20          6           0       -6.220266    0.937390    4.982162
     21          6           0       -8.085213    3.674823    4.906243
     22          8           0       -7.234101    3.621359    5.828722
     23          6           0       -8.789016    4.900725    4.730569
     24          7           0      -10.592751    2.207453    0.093869
     25          6           0      -10.633849    3.210703    1.016966
     26          6           0      -11.537678    4.373515    0.541926
     27          6           0      -12.151637    3.806379   -0.782233
     28          6           0      -11.448783    2.464638   -0.901081
     29          6           0      -12.563967    4.799925    1.569769
     30          6           0      -11.881414    4.806094   -2.029265
     31          6           0      -13.082517    4.974674   -2.966767
     32          7           0      -10.336804   -0.246460   -1.348841
     33          6           0      -11.388683    0.205338   -2.079641
     34          6           0      -11.703267   -0.819730   -3.037319
     35          6           0      -10.799658   -1.923017   -2.853627
     36          6           0       -9.975828   -1.495519   -1.825523
     37          6           0      -12.616092   -0.656334   -4.204075
     38          6           0      -10.322695   -3.190470   -3.305415
     39          8           0      -10.835971   -3.846214   -4.220787
     40          6           0       -9.140701   -3.529567   -2.416161
     41          6           0       -9.422580   -4.811025   -1.724639
     42          8           0       -9.665879   -5.800929   -2.386352
     43          8           0       -9.291463   -4.765945   -0.370255
     44          6           0       -9.544664   -6.031178    0.321835
     45          1           0       -6.125766   -1.040447    3.144973
     46          1           0      -10.205529    3.987037    2.923152
     47          1           0      -12.707231    1.765400   -2.508429
     48          1           0       -6.838245   -4.122610   -0.662148
     49          1           0       -5.136062   -2.601678    1.069986
     50          1           0       -5.530273   -4.131896    2.489377
     51          1           0       -6.841827   -4.681032    1.451755
     52          1           0       -7.207351   -3.612114    2.801794
     53          1           0       -6.094886   -2.938693   -2.536422
     54          1           0       -4.908264   -3.348314   -1.438558
     55          1           0       -5.383313   -0.523560   -0.689872
     56          1           0       -5.768466   -0.704586   -2.454476
     57          1           0       -5.275049    1.320962    4.597597
     58          1           0       -6.170634   -0.150760    4.979200
     59          1           0       -6.363312    1.261933    6.013283
     60          1           0       -8.259839    5.740216    5.182592
     61          1           0       -9.841599    4.844324    5.011017
     62          1           0       -8.698715    5.118627    3.667260
     63          1           0      -10.822104    5.168621    0.329599
     64          1           0      -13.204396    3.574350   -0.622265
     65          1           0      -12.457520    4.305185    2.534804
     66          1           0      -13.625641    4.838240    1.327378
     67          1           0      -12.225749    5.802111    1.834693
     68          1           0      -11.047636    4.505136   -2.663655
     69          1           0      -11.553277    5.791794   -1.699862
     70          1           0      -13.497207    5.969571   -2.806839
     71          1           0      -13.859588    4.277895   -2.651785
     72          1           0      -12.822578    4.852128   -4.018316
     73          1           0      -13.682812   -0.569594   -4.001010
     74          1           0      -12.420396   -1.520388   -4.840185
     75          1           0      -12.396962    0.247236   -4.773076
     76          1           0       -8.288728   -3.661518   -3.083758
     77          1           0       -8.858416   -6.774847   -0.084300
     78          1           0      -10.585489   -6.351649    0.273475
     79          1           0       -9.449247   -5.904701    1.400160
     80         12           0        9.709504    0.550036   -0.149861
     81          6           0        8.374313   -2.400112    0.835334
     82          6           0        6.521910    1.791996   -0.751129
     83          6           0       11.045596    3.498556   -1.141101
     84          6           0       12.877523   -0.839337   -0.022016
     85          7           0        7.769006   -0.213645    0.141367
     86          6           0        7.407570   -1.464129    0.524828
     87          6           0        5.926560   -1.584509    0.772859
     88          6           0        5.332181   -0.343361    0.004892
     89          6           0        6.639669    0.491598   -0.192783
     90          6           0        4.462544   -0.552330   -1.304621
     91          6           0        5.576698   -1.484952    2.325740
     92          6           0        4.226139   -2.175298    2.678225
     93          1           0        3.091131   -2.312289    1.649568
     94          7           0        8.926954    2.408188   -0.939331
     95          6           0        7.542944    2.688135   -1.085412
     96          6           0        7.376238    4.023110   -1.575664
     97          6           0        8.706454    4.556664   -1.719882
     98          6           0        9.612981    3.455359   -1.234866
     99          6           0        6.063379    4.695112   -1.777015
    100          6           0        9.148333    5.931013   -2.210073
    101          8           0       10.343873    6.290963   -2.419600
    102          6           0        8.098795    6.988752   -2.506487
    103          7           0       11.657431    1.218676   -0.594380
    104          6           0       11.993611    2.556167   -0.809494
    105          6           0       13.508905    2.876264   -0.658860
    106          6           0       14.036840    1.392433   -0.237783
    107          6           0       12.824503    0.535224   -0.249223
    108          6           0       14.048978    3.385758   -2.001314
    109          6           0       14.813888    1.353227    1.045021
    110          6           0       16.183984    0.755656    0.897704
    111          7           0       10.540835   -1.192111    0.172936
    112          6           0       11.846173   -1.664006    0.233580
    113          6           0       11.853658   -3.036302    0.582428
    114          6           0       10.505636   -3.429943    0.798146
    115          6           0        9.738900   -2.255613    0.644515
    116          6           0       13.006288   -3.948284    0.760330
    117          6           0        9.628067   -4.553486    1.043008
    118          8           0        9.782281   -5.750672    1.185918
    119          6           0        8.191079   -3.852277    1.142516
    120          6           0        7.122238   -4.657738    0.495983
    121          8           0        7.189656   -5.222518   -0.565758
    122          8           0        6.007952   -4.754665    1.237725
    123          6           0        4.913745   -5.545317    0.605590
    124          1           0        5.501613    2.018343   -1.068098
    125          1           0       11.460970    4.404368   -1.587480
    126          1           0       13.842002   -1.320739    0.152165
    127          1           0        5.488337   -2.445028    0.267599
    128          1           0        4.737770    0.239231    0.707980
    129          1           0        4.318207   -1.625748   -1.427819
    130          1           0        4.843322   -0.136774   -2.236239
    131          1           0        3.523494   -0.024057   -1.138564
    132          1           0        5.582824   -0.414526    2.532039
    133          1           0        6.386902   -1.971130    2.869295
    134          1           0        3.883577   -1.586525    3.529363
    135          1           0        4.484980   -3.141816    3.109787
    136          1           0        5.608127    5.124637   -0.884572
    137          1           0        5.423192    3.941302   -2.233591
    138          1           0        6.072644    5.419606   -2.590798
    139          1           0        7.747766    6.783776   -3.517741
    140          1           0        8.644247    7.932097   -2.497566
    141          1           0        7.247533    6.973648   -1.825651
    142          1           0       13.572632    3.688943    0.064836
    143          1           0       14.715713    1.036537   -1.013483
    144          1           0       13.367640    3.309336   -2.848943
    145          1           0       15.028095    2.941318   -2.178349
    146          1           0       14.178183    4.461374   -1.877655
    147          1           0       14.347872    0.734041    1.811645
    148          1           0       14.938488    2.320667    1.531637
    149          1           0       16.966822    1.362363    1.351967
    150          1           0       16.452238    0.631075   -0.151065
    151          1           0       16.076144   -0.254221    1.294544
    152          1           0       13.880241   -3.742300    0.141652
    153          1           0       12.669205   -4.867670    0.280709
    154          1           0       13.272322   -4.011327    1.815540
    155          1           0        8.073453   -3.962132    2.220960
    156          1           0        5.089858   -6.619567    0.676968
    157          1           0        4.677764   -5.186556   -0.396400
    158          1           0        3.997246   -5.363156    1.167327
 ---------------------------------------------------------------------

 SCF Done:  E(RwB97XD) =  -4070.61130710     A.U. after   19 cycles

 Excitation energies and oscillator strengths:

 Excited State   1:      Singlet-A      1.5875 eV  781.01 nm  f=0.3879  <S**2>=0.000
     310 -> 316       -0.17569
     312 -> 314        0.68643
     310 <- 316       -0.11659
 This state for optimization and/or second-order correction.
 Total Energy, E(TD-HF/TD-DFT) =  -4070.55296778
 Copying the excited state density for this state as the 1-particle RhoCI density.

 Excited State   2:      Singlet-A      1.6878 eV  734.57 nm  f=0.3890  <S**2>=0.000
     309 -> 315       -0.18212
     311 -> 313        0.68298
     309 <- 315       -0.11286

 Excited State   3:      Singlet-A      2.1626 eV  573.30 nm  f=0.1238  <S**2>=0.000
     309 -> 313        0.62706
     310 -> 314       -0.16110
     311 -> 315        0.24795

 Excited State   4:      Singlet-A      2.1696 eV  571.45 nm  f=0.1136  <S**2>=0.000
     309 -> 313        0.16251
     310 -> 314        0.61529
     312 -> 316        0.28513

 Excited State   5:      Singlet-A      3.3648 eV  368.48 nm  f=0.0000  <S**2>=0.000
     312 -> 313        0.70681

 The electronic state is 1-A.
 Alpha  occ. eigenvalues --  -46.95648 -46.93516 -19.31743 -19.30408 -19.24567
 Alpha  occ. eigenvalues --  -19.24294 -19.23722 -19.23556 -19.23472 -19.23414
 Alpha  occ. eigenvalues --  -14.47470 -14.46843 -14.46838 -14.46301 -14.44623
 Alpha  occ. eigenvalues --  -14.44119 -14.43411 -14.43349 -10.43447 -10.42445
 Alpha  occ. eigenvalues --  -10.39223 -10.39187 -10.38995 -10.38599 -10.36623
 Alpha  occ. eigenvalues --  -10.35906 -10.35869 -10.35506 -10.35418 -10.35392
 Alpha  occ. eigenvalues --  -10.34961 -10.34721 -10.34677 -10.34650 -10.34523
 Alpha  occ. eigenvalues --  -10.34372 -10.34128 -10.33906 -10.33389 -10.33343
 Alpha  occ. eigenvalues --  -10.33302 -10.32971 -10.32897 -10.32841 -10.32761
 Alpha  occ. eigenvalues --  -10.32664 -10.32633 -10.32629 -10.32593 -10.32344
 Alpha  occ. eigenvalues --  -10.32321 -10.32300 -10.32191 -10.32123 -10.31986
 Alpha  occ. eigenvalues --  -10.31933 -10.31914 -10.31843 -10.31770 -10.31704
 Alpha  occ. eigenvalues --  -10.31625 -10.31606 -10.31596 -10.31545 -10.31544
 Alpha  occ. eigenvalues --  -10.31446 -10.31424 -10.31139 -10.31082 -10.30953
 Alpha  occ. eigenvalues --  -10.30693 -10.30571 -10.30514 -10.30413 -10.29976
 Alpha  occ. eigenvalues --  -10.29722 -10.29716 -10.29630 -10.29560 -10.29501
 Alpha  occ. eigenvalues --  -10.29450 -10.29329 -10.29287 -10.28963 -10.28919
 Alpha  occ. eigenvalues --  -10.28727  -3.21554  -3.19766  -1.95114  -1.94693
 Alpha  occ. eigenvalues --   -1.94504  -1.93355  -1.92880  -1.92788  -1.19728
 Alpha  occ. eigenvalues --   -1.19511  -1.12399  -1.11391  -1.10812  -1.10356
 Alpha  occ. eigenvalues --   -1.09627  -1.09483  -1.07168  -1.06715  -1.06530
 Alpha  occ. eigenvalues --   -1.05610  -1.04917  -1.04734  -1.03776  -1.03429
 Alpha  occ. eigenvalues --   -0.96222  -0.95370  -0.91587  -0.91419  -0.91071
 Alpha  occ. eigenvalues --   -0.90828  -0.90733  -0.90468  -0.89899  -0.89602
 Alpha  occ. eigenvalues --   -0.89177  -0.88521  -0.88367  -0.87953  -0.87193
 Alpha  occ. eigenvalues --   -0.86246  -0.86166  -0.85737  -0.85468  -0.84882
 Alpha  occ. eigenvalues --   -0.84399  -0.83602  -0.83569  -0.83034  -0.83022
 Alpha  occ. eigenvalues --   -0.82472  -0.80732  -0.80312  -0.80149  -0.79717
 Alpha  occ. eigenvalues --   -0.79293  -0.79128  -0.78484  -0.78271  -0.77165
 Alpha  occ. eigenvalues --   -0.77115  -0.74886  -0.74655  -0.74294  -0.73825
 Alpha  occ. eigenvalues --   -0.72292  -0.71242  -0.71088  -0.70950  -0.70596
 Alpha  occ. eigenvalues --   -0.70170  -0.69344  -0.68692  -0.68640  -0.67800
 Alpha  occ. eigenvalues --   -0.67528  -0.67386  -0.67315  -0.66784  -0.66545
 Alpha  occ. eigenvalues --   -0.66098  -0.65974  -0.64354  -0.62395  -0.62337
 Alpha  occ. eigenvalues --   -0.61903  -0.61893  -0.61505  -0.60951  -0.60902
 Alpha  occ. eigenvalues --   -0.60556  -0.60373  -0.60200  -0.59981  -0.59729
 Alpha  occ. eigenvalues --   -0.58912  -0.58749  -0.58085  -0.57952  -0.57389
 Alpha  occ. eigenvalues --   -0.57266  -0.57173  -0.56994  -0.56637  -0.56381
 Alpha  occ. eigenvalues --   -0.55873  -0.55868  -0.55617  -0.55300  -0.55195
 Alpha  occ. eigenvalues --   -0.54968  -0.54819  -0.54643  -0.54480  -0.54368
 Alpha  occ. eigenvalues --   -0.54119  -0.53984  -0.53917  -0.53866  -0.53545
 Alpha  occ. eigenvalues --   -0.53256  -0.53183  -0.53095  -0.52972  -0.52508
 Alpha  occ. eigenvalues --   -0.52243  -0.52032  -0.51928  -0.51760  -0.51612
 Alpha  occ. eigenvalues --   -0.51600  -0.51221  -0.50953  -0.50882  -0.50814
 Alpha  occ. eigenvalues --   -0.50742  -0.50587  -0.50320  -0.50262  -0.50152
 Alpha  occ. eigenvalues --   -0.49911  -0.49759  -0.49725  -0.49272  -0.49208
 Alpha  occ. eigenvalues --   -0.49136  -0.48825  -0.48647  -0.48600  -0.48552
 Alpha  occ. eigenvalues --   -0.48550  -0.48313  -0.48185  -0.47855  -0.47834
 Alpha  occ. eigenvalues --   -0.47726  -0.47340  -0.47162  -0.47002  -0.46860
 Alpha  occ. eigenvalues --   -0.46760  -0.46722  -0.46679  -0.46656  -0.46490
 Alpha  occ. eigenvalues --   -0.46008  -0.45881  -0.45839  -0.45677  -0.45482
 Alpha  occ. eigenvalues --   -0.45213  -0.45133  -0.44933  -0.44492  -0.44398
 Alpha  occ. eigenvalues --   -0.44378  -0.44348  -0.44265  -0.44018  -0.44003
 Alpha  occ. eigenvalues --   -0.43906  -0.43843  -0.43491  -0.43355  -0.43281
 Alpha  occ. eigenvalues --   -0.43144  -0.42957  -0.42854  -0.42519  -0.42513
 Alpha  occ. eigenvalues --   -0.42342  -0.42296  -0.41929  -0.41582  -0.41260
 Alpha  occ. eigenvalues --   -0.40861  -0.40236  -0.39985  -0.39897  -0.39897
 Alpha  occ. eigenvalues --   -0.39653  -0.39646  -0.39181  -0.39170  -0.39002
 Alpha  occ. eigenvalues --   -0.38666  -0.38090  -0.36882  -0.36630  -0.36219
 Alpha  occ. eigenvalues --   -0.36155  -0.35465  -0.35450  -0.34172  -0.33693
 Alpha  occ. eigenvalues --   -0.32996  -0.32827  -0.32646  -0.32556  -0.32489
 Alpha  occ. eigenvalues --   -0.32142  -0.31763  -0.31304  -0.26399  -0.26240
 Alpha  occ. eigenvalues --   -0.23652  -0.22844
 Alpha virt. eigenvalues --   -0.07673  -0.07330  -0.00125   0.00287   0.02042
 Alpha virt. eigenvalues --    0.02162   0.03951   0.04301   0.04329   0.06114
 Alpha virt. eigenvalues --    0.07197   0.07380   0.07818   0.07836   0.08004

 Mulliken charges:
               1
     1  Mg   0.931767
     2  C   -0.000704
     3  C   -0.066396
     4  C   -0.091387
     5  C   -0.077208
     6  N   -0.307354
     7  C    0.003636
     8  C   -0.074177
     9  C   -0.126287
    10  C    0.080616
    11  C    0.020629
    12  C    0.007935
    13  C   -0.130285
    14  H    0.034589
    15  N   -0.514492
    16  C    0.148801
    17  C   -0.152059
    18  C   -0.055395
    19  C    0.177915
    20  C    0.087333
    21  C    0.034385
    22  O   -0.271201
    23  C    0.017164
    24  N   -0.324787
    25  C    0.043498
    26  C   -0.057416
    27  C   -0.088533
    28  C    0.105820
    29  C    0.017370
    30  C   -0.009944
    31  C   -0.055856
    32  N   -0.439897
    33  C    0.094569
    34  C   -0.179423
    35  C    0.012035
    36  C    0.117564
    37  C    0.047980
    38  C    0.071164
    39  O   -0.201377
    40  C   -0.081434
    41  C    0.257131
    42  O   -0.227485
    43  O   -0.352853
    44  C    0.138793
    45  H   -0.004342
    46  H   -0.037059
    47  H   -0.004831
    48  H    0.022370
    49  H    0.036488
    50  H    0.037623
    51  H    0.026726
    52  H    0.039461
    53  H    0.025481
    54  H    0.032276
    55  H    0.077991
    56  H    0.066875
    57  H    0.052717
    58  H    0.029991
    59  H    0.064118
    60  H    0.061062
    61  H    0.077589
    62  H    0.047455
    63  H    0.049628
    64  H    0.041022
    65  H    0.036204
    66  H    0.052200
    67  H    0.027178
    68  H    0.036321
    69  H    0.028036
    70  H    0.035173
    71  H    0.031509
    72  H    0.047387
    73  H    0.038710
    74  H    0.058423
    75  H    0.037964
    76  H    0.089599
    77  H    0.063510
    78  H    0.059391
    79  H    0.051012
    80  Mg   0.985745
    81  C    0.012880
    82  C   -0.095161
    83  C   -0.062306
    84  C   -0.128130
    85  N   -0.378390
    86  C   -0.008485
    87  C   -0.043548
    88  C   -0.122065
    89  C    0.057896
    90  C    0.021143
    91  C    0.005430
    92  C   -0.092383
    93  H    0.042687
    94  N   -0.389593
    95  C    0.163869
    96  C   -0.155372
    97  C   -0.073719
    98  C    0.100082
    99  C    0.064815
   100  C    0.052948
   101  O   -0.274712
   102  C   -0.022165
   103  N   -0.391950
   104  C    0.057810
   105  C   -0.092121
   106  C   -0.027226
   107  C    0.108980
   108  C    0.008967
   109  C   -0.008535
   110  C   -0.062956
   111  N   -0.527606
   112  C    0.189923
   113  C   -0.191406
   114  C   -0.055003
   115  C    0.141393
   116  C    0.072742
   117  C    0.153158
   118  O   -0.183201
   119  C   -0.107264
   120  C    0.224525
   121  O   -0.229784
   122  O   -0.358856
   123  C    0.141088
   124  H   -0.003406
   125  H    0.017323
   126  H   -0.016863
   127  H    0.024448
   128  H    0.035485
   129  H    0.042166
   130  H    0.048666
   131  H    0.037310
   132  H    0.035973
   133  H    0.041545
   134  H    0.044315
   135  H    0.060478
   136  H    0.073962
   137  H    0.034925
   138  H    0.031967
   139  H    0.066712
   140  H    0.059195
   141  H    0.050491
   142  H    0.056058
   143  H    0.035293
   144  H    0.060753
   145  H    0.037259
   146  H    0.041387
   147  H    0.033215
   148  H    0.028302
   149  H    0.043822
   150  H    0.022338
   151  H    0.037618
   152  H    0.026989
   153  H    0.061482
   154  H    0.068361
   155  H    0.069117
   156  H    0.070781
   157  H    0.058684
   158  H    0.039703
 Sum of Mulliken charges =  -0.00000

 Dipole moment (field-independent basis, Debye):
    X=             -4.1766    Y=              6.3142    Z=              5.5979  Tot=              9.4154
 Quadrupole moment (field-independent basis, Debye-Ang):
   XX=           -492.4985   YY=           -540.0124   ZZ=           -545.4488
   XY=            -34.8229   XZ=            -19.9996   YZ=            -38.6796

 Normal termination of Gaussian 16 at Sun Sep 19 20:19:35 2021.
