 Gaussian 16, Revision A.03,
 Gaussian 16:  ES64L-G16RevA.03 25-Dec-2016

 --------------------------------
 #p wB97XD/Def2SVP td=(nstates=5)
 --------------------------------

 --------------------------------
 TDDFT excited states in gaussian
 --------------------------------
 Symbolic Z-matrix:
 Charge =  0 Multiplicity = 1

                         Standard orientation:
 ---------------------------------------------------------------------
 Center     Atomic      Atomic             Coordinates (Angstroms)
 Number     Number       Type             X           Y           Z
 ---------------------------------------------------------------------
      1         12           0       13.795629   -0.091267   -0.008487
      2          6           0       10.405019   -0.642769   -0.883894
      3          6           0       13.630212    2.844856   -1.705378
      4          6           0       16.709212    0.783345    1.509892
      5          6           0       13.594765   -2.844960    2.086643
      6          7           0       12.065064    0.961572   -1.010105
      7          6           0       10.805690    0.548767   -1.356013
      8          6           0       10.119481    1.528976   -2.233086
      9          6           0       11.316606    2.463537   -2.739217
     10          6           0       12.391908    2.097891   -1.773900
     11          6           0       11.668807    2.195871   -4.193623
     12          6           0        9.010892    2.190000   -1.398999
     13          6           0        7.535111    2.157124   -1.981154
     14          1           0        6.710284    3.465511   -2.172176
     15          7           0       15.063528    1.532954   -0.078417
     16          6           0       14.840738    2.621161   -0.933512
     17          6           0       16.016339    3.438735   -0.911507
     18          6           0       16.943166    2.897395    0.042204
     19          6           0       16.278733    1.641336    0.481960
     20          6           0       16.138138    4.654933   -1.820584
     21          6           0       18.290307    3.435297    0.470142
     22          8           0       18.666511    4.440985   -0.198842
     23          6           0       19.184289    2.985499    1.660223
     24          7           0       15.025851   -0.915169    1.593313
     25          6           0       16.196182   -0.381483    2.007335
     26          6           0       16.851048   -1.172520    3.170576
     27          6           0       15.891424   -2.407904    3.273633
     28          6           0       14.714082   -1.995853    2.270152
     29          6           0       18.282847   -1.523134    2.807305
     30          6           0       15.349513   -2.688308    4.642017
     31          6           0       15.864627   -3.964177    5.250901
     32          7           0       12.458912   -1.558492    0.406639
     33          6           0       12.480017   -2.682428    1.242156
     34          6           0       11.411025   -3.514066    1.014769
     35          6           0       10.576954   -2.772607    0.153267
     36          6           0       11.222021   -1.568466   -0.119422
     37          6           0       11.334547   -4.940294    1.517139
     38          6           0        9.316976   -2.842662   -0.633554
     39          8           0        8.528153   -3.732132   -0.717715
     40          6           0        9.195268   -1.392240   -1.236661
     41          6           0        8.686221   -1.545246   -2.653383
     42          8           0        7.530697   -1.315669   -3.010461
     43          8           0        9.739249   -1.937965   -3.514867
     44          6           0        9.326793   -1.977697   -4.917555
     45          1           0       13.666931    3.670930   -2.418971
     46          1           0       17.690351    0.973128    1.951474
     47          1           0       13.375111   -3.578728    2.864147
     48          1           0        9.660831    1.005577   -3.072106
     49          1           0       10.994659    3.501182   -2.655358
     50          1           0       11.601579    1.143382   -4.465589
     51          1           0       12.719015    2.449031   -4.342575
     52          1           0       11.109838    2.807990   -4.901376
     53          1           0        9.301556    3.229874   -1.250444
     54          1           0        8.967921    1.840760   -0.367355
     55          1           0        7.047459    1.553587   -1.215183
     56          1           0        7.478334    1.502989   -2.850406
     57          1           0       15.262227    5.298001   -1.734747
     58          1           0       16.171817    4.267375   -2.838729
     59          1           0       16.947013    5.357821   -1.616480
     60          1           0       19.535325    2.002644    1.347407
     61          1           0       18.562956    2.915409    2.553121
     62          1           0       19.994739    3.685943    1.863588
     63          1           0       16.897804   -0.623623    4.110782
     64          1           0       16.350472   -3.274588    2.798686
     65          1           0       18.775344   -0.605872    2.484100
     66          1           0       18.257913   -2.239942    1.985908
     67          1           0       18.902230   -2.056965    3.527068
     68          1           0       14.266235   -2.806452    4.667655
     69          1           0       15.508487   -1.920986    5.399420
     70          1           0       16.289305   -3.721788    6.224285
     71          1           0       16.693361   -4.395808    4.689656
     72          1           0       15.121625   -4.759534    5.318688
     73          1           0       10.568188   -5.429140    0.914758
     74          1           0       11.059202   -4.994055    2.570148
     75          1           0       12.334899   -5.342301    1.358112
     76          1           0        8.328822   -1.001486   -0.701852
     77          1           0       10.181892   -1.808070   -5.572012
     78          1           0        8.683425   -1.135036   -5.166734
     79          1           0        8.800342   -2.894956   -5.182779
     80         12           0      -13.238586    0.860507    0.159968
     81          6           0      -13.312359   -2.504517   -0.553317
     82          6           0       -9.807281    0.828949   -0.535543
     83          6           0      -13.057981    4.141625    0.931999
     84          6           0      -16.474352    0.738400    1.175923
     85          7           0      -11.686043   -0.766250   -0.223731
     86          6           0      -12.036262   -2.032844   -0.707828
     87          6           0      -10.852181   -2.735732   -1.400729
     88          6           0       -9.735924   -1.637195   -1.252950
     89          6           0      -10.412961   -0.409735   -0.682030
     90          6           0       -8.556180   -2.094223   -0.404261
     91          6           0      -11.004472   -3.230753   -2.882560
     92          6           0      -10.990471   -4.835523   -3.131960
     93          1           0       -9.845801   -5.241989   -4.065241
     94          7           0      -11.679846    2.246314    0.297090
     95          6           0      -10.364831    2.063717   -0.160446
     96          6           0       -9.640278    3.337232   -0.224985
     97          6           0      -10.566032    4.393658    0.295966
     98          6           0      -11.873973    3.647426    0.482708
     99          6           0       -8.207697    3.451030   -0.697556
    100          6           0      -10.368233    5.815198    0.539260
    101          8           0      -11.268286    6.478610    1.075045
    102          6           0       -9.067920    6.535990    0.229486
    103          7           0      -14.531747    2.146289    0.994584
    104          6           0      -14.308502    3.530397    1.115415
    105          6           0      -15.576097    4.378026    1.537049
    106          6           0      -16.659351    3.183717    1.630394
    107          6           0      -15.832140    1.943978    1.221473
    108          6           0      -15.405437    5.197771    2.909688
    109          6           0      -17.890677    3.443159    0.695840
    110          6           0      -19.244939    3.043681    1.192180
    111          7           0      -14.602389   -0.649209    0.381660
    112          6           0      -15.940864   -0.535166    0.768196
    113          6           0      -16.632600   -1.763653    0.574973
    114          6           0      -15.619619   -2.575550   -0.057234
    115          6           0      -14.420927   -1.851053   -0.059819
    116          6           0      -18.038592   -2.133010    0.800302
    117          6           0      -15.344767   -3.899896   -0.519683
    118          8           0      -16.015007   -4.924859   -0.686511
    119          6           0      -13.762645   -3.935854   -0.726020
    120          6           0      -13.178424   -4.915434    0.227935
    121          8           0      -12.658928   -4.712574    1.254130
    122          8           0      -13.208606   -6.195972   -0.319377
    123          6           0      -12.202394   -7.104319    0.190114
    124          1           0       -8.758387    0.829767   -0.839411
    125          1           0      -13.149644    5.208121    1.147659
    126          1           0      -17.550956    0.729452    1.358189
    127          1           0      -10.557829   -3.593733   -0.797295
    128          1           0       -9.261077   -1.413047   -2.208539
    129          1           0       -8.526879   -1.494452    0.505026
    130          1           0       -7.702436   -1.856893   -1.037853
    131          1           0       -8.507493   -3.162438   -0.194024
    132          1           0      -10.198051   -2.786122   -3.466268
    133          1           0      -11.955938   -2.913532   -3.309620
    134          1           0      -11.926040   -4.988841   -3.670122
    135          1           0      -10.921524   -5.367420   -2.183310
    136          1           0       -7.585131    3.037825    0.096993
    137          1           0       -7.982470    4.507684   -0.833545
    138          1           0       -7.985365    2.828928   -1.564807
    139          1           0       -9.106425    7.462346    0.802988
    140          1           0       -8.912014    6.726704   -0.832830
    141          1           0       -8.151334    6.112882    0.640045
    142          1           0      -15.890019    5.009644    0.706652
    143          1           0      -17.116954    3.053851    2.611391
    144          1           0      -16.346220    5.147300    3.458247
    145          1           0      -15.271026    6.275332    2.823564
    146          1           0      -14.592427    4.823155    3.531920
    147          1           0      -17.778256    3.033217   -0.307725
    148          1           0      -18.064538    4.504713    0.520889
    149          1           0      -19.541935    2.221468    0.541329
    150          1           0      -20.104195    3.697438    1.042539
    151          1           0      -19.173610    2.707036    2.226951
    152          1           0      -18.647742   -1.233112    0.710976
    153          1           0      -18.058133   -2.473162    1.835613
    154          1           0      -18.274912   -2.997743    0.179939
    155          1           0      -13.525859   -4.253528   -1.741150
    156          1           0      -12.586445   -7.395495    1.167182
    157          1           0      -11.298291   -6.505925    0.301322
    158          1           0      -12.099774   -7.986018   -0.443130
 ---------------------------------------------------------------------

 SCF Done:  E(RwB97XD) =  -4070.59432054     A.U. after   19 cycles

 Excitation energies and oscillator strengths:

 Excited State   1:      Singlet-A      1.6225 eV  764.16 nm  f=0.4294  <S**2>=0.000
     310 -> 315        0.16213
     312 -> 314        0.68592
     310 <- 315        0.10553
 This state for optimization and/or second-order correction.
 Total Energy, E(TD-HF/TD-DFT) =  -4070.53469476
 Copying the excited state density for this state as the 1-particle RhoCI density.

 Excited State   2:      Singlet-A      1.6248 eV  763.06 nm  f=0.3413  <S**2>=0.000
     309 -> 316       -0.17973
     311 -> 313        0.68459
     309 <- 316       -0.11750

 Excited State   3:      Singlet-A      2.1350 eV  580.73 nm  f=0.1261  <S**2>=0.000
     310 -> 314        0.64267
     312 -> 315       -0.25967

 Excited State   4:      Singlet-A      2.1638 eV  573.00 nm  f=0.1541  <S**2>=0.000
     309 -> 313        0.64629
     311 -> 316        0.27027

 Excited State   5:      Singlet-A      3.2316 eV  383.66 nm  f=0.0021  <S**2>=0.000
     304 -> 313       -0.25480
     304 -> 318        0.10173
     306 -> 313        0.63287

 The electronic state is 1-A.
 Alpha  occ. eigenvalues --  -46.95456 -46.94234 -19.30978 -19.27292 -19.26089
 Alpha  occ. eigenvalues --  -19.24985 -19.24359 -19.23874 -19.23449 -19.22887
 Alpha  occ. eigenvalues --  -14.47111 -14.47083 -14.46914 -14.46532 -14.44874
 Alpha  occ. eigenvalues --  -14.44790 -14.43709 -14.43065 -10.44370 -10.41809
 Alpha  occ. eigenvalues --  -10.39761 -10.39596 -10.39274 -10.38109 -10.36159
 Alpha  occ. eigenvalues --  -10.35856 -10.35523 -10.35274 -10.35209 -10.35098
 Alpha  occ. eigenvalues --  -10.35083 -10.34977 -10.34831 -10.34804 -10.34665
 Alpha  occ. eigenvalues --  -10.34664 -10.34653 -10.34248 -10.34149 -10.33421
 Alpha  occ. eigenvalues --  -10.33260 -10.33169 -10.33159 -10.32959 -10.32800
 Alpha  occ. eigenvalues --  -10.32726 -10.32697 -10.32673 -10.32523 -10.32523
 Alpha  occ. eigenvalues --  -10.32477 -10.32384 -10.32245 -10.32217 -10.32115
 Alpha  occ. eigenvalues --  -10.31951 -10.31764 -10.31730 -10.31663 -10.31552
 Alpha  occ. eigenvalues --  -10.31536 -10.31488 -10.31335 -10.31332 -10.31292
 Alpha  occ. eigenvalues --  -10.31178 -10.31093 -10.31056 -10.30903 -10.30568
 Alpha  occ. eigenvalues --  -10.30510 -10.30448 -10.30426 -10.30306 -10.30292
 Alpha  occ. eigenvalues --  -10.30266 -10.30048 -10.29947 -10.29802 -10.29737
 Alpha  occ. eigenvalues --  -10.29627 -10.29406 -10.29227 -10.29088 -10.29073
 Alpha  occ. eigenvalues --  -10.28404  -3.21461  -3.20401  -1.95031  -1.94590
 Alpha  occ. eigenvalues --   -1.94434  -1.93965  -1.93539  -1.93397  -1.18795
 Alpha  occ. eigenvalues --   -1.17875  -1.14385  -1.11751  -1.10293  -1.10222
 Alpha  occ. eigenvalues --   -1.09939  -1.09817  -1.07350  -1.06547  -1.06392
 Alpha  occ. eigenvalues --   -1.05492  -1.05374  -1.04903  -1.03984  -1.02630
 Alpha  occ. eigenvalues --   -0.95392  -0.94457  -0.91859  -0.91353  -0.91061
 Alpha  occ. eigenvalues --   -0.91037  -0.90422  -0.90301  -0.89899  -0.89199
 Alpha  occ. eigenvalues --   -0.89062  -0.89057  -0.88583  -0.88003  -0.86867
 Alpha  occ. eigenvalues --   -0.86298  -0.86066  -0.85288  -0.84669  -0.84262
 Alpha  occ. eigenvalues --   -0.83958  -0.83755  -0.82761  -0.82714  -0.82559
 Alpha  occ. eigenvalues --   -0.82105  -0.80693  -0.79866  -0.79472  -0.79253
 Alpha  occ. eigenvalues --   -0.78937  -0.78527  -0.78518  -0.77559  -0.77121
 Alpha  occ. eigenvalues --   -0.77076  -0.75620  -0.74982  -0.74312  -0.73597
 Alpha  occ. eigenvalues --   -0.71475  -0.71267  -0.71007  -0.70535  -0.69805
 Alpha  occ. eigenvalues --   -0.69784  -0.69468  -0.69354  -0.68329  -0.67779
 Alpha  occ. eigenvalues --   -0.67528  -0.67481  -0.67157  -0.67048  -0.66921
 Alpha  occ. eigenvalues --   -0.65818  -0.65224  -0.62756  -0.62624  -0.62174
 Alpha  occ. eigenvalues --   -0.62144  -0.61703  -0.61260  -0.61065  -0.60921
 Alpha  occ. eigenvalues --   -0.60351  -0.60183  -0.60171  -0.59573  -0.58931
 Alpha  occ. eigenvalues --   -0.58433  -0.58324  -0.57897  -0.57732  -0.57415
 Alpha  occ. eigenvalues --   -0.57166  -0.56962  -0.56423  -0.55938  -0.55779
 Alpha  occ. eigenvalues --   -0.55615  -0.55487  -0.55271  -0.55167  -0.54846
 Alpha  occ. eigenvalues --   -0.54732  -0.54511  -0.54338  -0.54174  -0.54100
 Alpha  occ. eigenvalues --   -0.54001  -0.53768  -0.53440  -0.53192  -0.53153
 Alpha  occ. eigenvalues --   -0.53014  -0.52930  -0.52583  -0.52557  -0.52404
 Alpha  occ. eigenvalues --   -0.52342  -0.52099  -0.52046  -0.51934  -0.51882
 Alpha  occ. eigenvalues --   -0.51704  -0.51605  -0.51496  -0.50942  -0.50850
 Alpha  occ. eigenvalues --   -0.50671  -0.50488  -0.50375  -0.50362  -0.50045
 Alpha  occ. eigenvalues --   -0.49918  -0.49861  -0.49759  -0.49258  -0.49153
 Alpha  occ. eigenvalues --   -0.48937  -0.48873  -0.48690  -0.48646  -0.48522
 Alpha  occ. eigenvalues --   -0.48301  -0.48058  -0.47983  -0.47936  -0.47836
 Alpha  occ. eigenvalues --   -0.47794  -0.47545  -0.47357  -0.47254  -0.47229
 Alpha  occ. eigenvalues --   -0.47126  -0.46930  -0.46802  -0.46543  -0.46084
 Alpha  occ. eigenvalues --   -0.45996  -0.45981  -0.45766  -0.45540  -0.45403
 Alpha  occ. eigenvalues --   -0.45297  -0.45205  -0.44922  -0.44775  -0.44731
 Alpha  occ. eigenvalues --   -0.44536  -0.44469  -0.44464  -0.44416  -0.44071
 Alpha  occ. eigenvalues --   -0.43895  -0.43759  -0.43574  -0.43544  -0.43500
 Alpha  occ. eigenvalues --   -0.43236  -0.43153  -0.43000  -0.42827  -0.42499
 Alpha  occ. eigenvalues --   -0.42131  -0.41984  -0.41733  -0.41073  -0.40930
 Alpha  occ. eigenvalues --   -0.40782  -0.40524  -0.40250  -0.39862  -0.39699
 Alpha  occ. eigenvalues --   -0.39598  -0.39532  -0.39393  -0.39164  -0.38491
 Alpha  occ. eigenvalues --   -0.37955  -0.37500  -0.36784  -0.36778  -0.36356
 Alpha  occ. eigenvalues --   -0.35971  -0.35576  -0.35315  -0.34081  -0.33590
 Alpha  occ. eigenvalues --   -0.33436  -0.33226  -0.32640  -0.32261  -0.32125
 Alpha  occ. eigenvalues --   -0.32051  -0.31758  -0.31298  -0.26422  -0.26231
 Alpha  occ. eigenvalues --   -0.23558  -0.23195
 Alpha virt. eigenvalues --   -0.07790  -0.07562  -0.00158  -0.00016   0.01871
 Alpha virt. eigenvalues --    0.02221   0.04335   0.04385   0.04905   0.05324
 Alpha virt. eigenvalues --    0.06156   0.07321   0.07633   0.08005   0.08027

 Mulliken charges:
               1
     1  Mg   0.972096
     2  C    0.037513
     3  C   -0.077691
     4  C   -0.047232
     5  C   -0.092853
     6  N   -0.359237
     7  C   -0.052006
     8  C   -0.053910
     9  C   -0.081789
    10  C    0.068592
    11  C    0.030552
    12  C    0.005170
    13  C   -0.116103
    14  H    0.047351
    15  N   -0.473448
    16  C    0.150828
    17  C   -0.148718
    18  C   -0.063062
    19  C    0.179990
    20  C    0.070465
    21  C    0.021633
    22  O   -0.276160
    23  C    0.023487
    24  N   -0.303526
    25  C    0.005174
    26  C   -0.045829
    27  C   -0.064860
    28  C    0.055453
    29  C    0.009388
    30  C   -0.003032
    31  C   -0.061555
    32  N   -0.466443
    33  C    0.108395
    34  C   -0.190655
    35  C   -0.079897
    36  C    0.148061
    37  C    0.086708
    38  C    0.122361
    39  O   -0.159589
    40  C   -0.057501
    41  C    0.245517
    42  O   -0.241832
    43  O   -0.390541
    44  C    0.140139
    45  H    0.005692
    46  H   -0.060253
    47  H    0.007075
    48  H    0.035102
    49  H    0.038404
    50  H    0.038052
    51  H    0.024660
    52  H    0.047398
    53  H    0.031383
    54  H    0.047730
    55  H    0.050493
    56  H    0.054737
    57  H    0.034231
    58  H    0.046824
    59  H    0.065168
    60  H    0.062966
    61  H    0.064306
    62  H    0.063678
    63  H    0.043578
    64  H    0.043160
    65  H    0.033497
    66  H    0.024424
    67  H    0.040336
    68  H    0.030965
    69  H    0.026726
    70  H    0.031460
    71  H    0.020936
    72  H    0.040003
    73  H    0.062268
    74  H    0.052145
    75  H    0.046592
    76  H    0.069597
    77  H    0.047412
    78  H    0.043751
    79  H    0.064101
    80  Mg   0.967225
    81  C    0.011732
    82  C   -0.103008
    83  C   -0.069910
    84  C   -0.098518
    85  N   -0.364250
    86  C   -0.034166
    87  C   -0.002659
    88  C   -0.138253
    89  C    0.092959
    90  C    0.019260
    91  C   -0.009117
    92  C   -0.148609
    93  H    0.036732
    94  N   -0.481725
    95  C    0.200693
    96  C   -0.180003
    97  C   -0.027896
    98  C    0.193772
    99  C    0.079710
   100  C    0.021615
   101  O   -0.253011
   102  C   -0.034092
   103  N   -0.410756
   104  C    0.038749
   105  C   -0.045298
   106  C   -0.088371
   107  C    0.134058
   108  C   -0.000866
   109  C   -0.040801
   110  C   -0.058026
   111  N   -0.418779
   112  C    0.119568
   113  C   -0.179301
   114  C   -0.042524
   115  C    0.138628
   116  C    0.103212
   117  C    0.092886
   118  O   -0.217822
   119  C   -0.114259
   120  C    0.257103
   121  O   -0.187435
   122  O   -0.389686
   123  C    0.148306
   124  H   -0.010403
   125  H    0.025824
   126  H   -0.022048
   127  H    0.032372
   128  H    0.032652
   129  H    0.050123
   130  H    0.027693
   131  H    0.046412
   132  H    0.043003
   133  H    0.040464
   134  H    0.074060
   135  H    0.060423
   136  H    0.058847
   137  H    0.036780
   138  H    0.054333
   139  H    0.050632
   140  H    0.073204
   141  H    0.053680
   142  H    0.051913
   143  H    0.039516
   144  H    0.033855
   145  H    0.045962
   146  H    0.057376
   147  H    0.033670
   148  H    0.029565
   149  H    0.026180
   150  H    0.038688
   151  H    0.035080
   152  H    0.041366
   153  H    0.054279
   154  H    0.067059
   155  H    0.052268
   156  H    0.050733
   157  H    0.037218
   158  H    0.060152
 Sum of Mulliken charges =  -0.00000

 Dipole moment (field-independent basis, Debye):
    X=              7.1559    Y=              3.3535    Z=             -1.5179  Tot=              8.0472
 Quadrupole moment (field-independent basis, Debye-Ang):
   XX=           -494.6353   YY=           -542.6426   ZZ=           -483.3224
   XY=           -118.3598   XZ=             42.7040   YZ=            -12.0656

 Normal termination of Gaussian 16 at Sun Sep 19 21:22:01 2021.
