 Gaussian 16, Revision A.03,
 Gaussian 16:  ES64L-G16RevA.03 25-Dec-2016

 --------------------------------
 #p wB97XD/Def2SVP td=(nstates=5)
 --------------------------------

 --------------------------------
 TDDFT excited states in gaussian
 --------------------------------
 Symbolic Z-matrix:
 Charge =  0 Multiplicity = 1

                         Standard orientation:
 ---------------------------------------------------------------------
 Center     Atomic      Atomic             Coordinates (Angstroms)
 Number     Number       Type             X           Y           Z
 ---------------------------------------------------------------------
      1         12           0       -0.617414   -0.003160   -0.204000
      2          6           0        2.858463   -0.024695    0.207207
      3          6           0       -0.487750   -3.392977    0.469052
      4          6           0       -3.955218   -0.023627   -0.229476
      5          6           0       -0.596427    3.487371   -0.013895
      6          7           0        1.124587   -1.536149    0.505438
      7          6           0        2.450485   -1.302971    0.466746
      8          6           0        3.286687   -2.510832    0.815264
      9          6           0        2.156498   -3.585028    0.584382
     10          6           0        0.820990   -2.848642    0.562210
     11          6           0        2.357383   -4.278149   -0.789671
     12          6           0        3.939171   -2.359296    2.195220
     13          6           0        3.143243   -1.725766    3.355229
     14          1           0        3.159561   -2.492983    4.672041
     15          7           0       -2.012613   -1.474990    0.064123
     16          6           0       -1.737109   -2.808991    0.207853
     17          6           0       -2.938566   -3.581749   -0.133425
     18          6           0       -4.036194   -2.632828   -0.193597
     19          6           0       -3.334093   -1.314538   -0.133653
     20          6           0       -3.001357   -5.153566   -0.027823
     21          6           0       -5.528301   -2.958221   -0.297555
     22          8           0       -5.896502   -4.085854   -0.475401
     23          6           0       -6.544559   -1.855357   -0.224185
     24          7           0       -2.071951    1.585255    0.090635
     25          6           0       -3.450166    1.352619   -0.072912
     26          6           0       -4.311947    2.684981   -0.035032
     27          6           0       -3.161143    3.800412   -0.027317
     28          6           0       -1.836612    2.907923   -0.024104
     29          6           0       -5.457221    2.944967   -1.136198
     30          6           0       -3.198588    4.889149    1.139830
     31          6           0       -2.652085    6.305540    0.609569
     32          7           0        0.813667    1.507115   -0.007713
     33          6           0        0.672833    2.879635   -0.038526
     34          6           0        1.993906    3.495988   -0.026258
     35          6           0        2.934224    2.433973    0.003379
     36          6           0        2.153226    1.225701    0.094273
     37          6           0        2.303530    4.958874   -0.207862
     38          6           0        4.366801    2.002190    0.098824
     39          8           0        5.374525    2.659585    0.234558
     40          6           0        4.317455    0.416997    0.173859
     41          6           0        5.051552   -0.092551   -1.035902
     42          8           0        6.303437   -0.110733   -1.141985
     43          8           0        4.148738   -0.661244   -1.922627
     44          6           0        4.725943   -1.387270   -3.004169
     45          1           0       -0.440863   -4.477317    0.590031
     46          1           0       -5.019938    0.092335   -0.443564
     47          1           0       -0.597792    4.570068   -0.156989
     48          1           0        4.037484   -2.715806    0.052352
     49          1           0        2.058205   -4.387126    1.314617
     50          1           0        1.356040   -4.503438   -1.157432
     51          1           0        3.029469   -5.129790   -0.694195
     52          1           0        2.729065   -3.692671   -1.631192
     53          1           0        4.770627   -1.670193    2.050410
     54          1           0        4.312835   -3.336614    2.500951
     55          1           0        2.093365   -1.664795    3.069694
     56          1           0        3.581650   -0.752275    3.572917
     57          1           0       -3.095869   -5.545325    0.985307
     58          1           0       -2.115982   -5.585133   -0.494806
     59          1           0       -3.780907   -5.641785   -0.611536
     60          1           0       -7.562046   -2.241804   -0.156771
     61          1           0       -6.498328   -1.171841   -1.072224
     62          1           0       -6.334015   -1.426462    0.755879
     63          1           0       -4.761401    2.575281    0.951196
     64          1           0       -3.144713    4.350758   -0.967594
     65          1           0       -6.382903    2.531697   -0.737366
     66          1           0       -5.206725    2.482607   -2.090562
     67          1           0       -5.533628    4.019229   -1.305437
     68          1           0       -2.487575    4.642515    1.928250
     69          1           0       -4.193955    4.960588    1.578981
     70          1           0       -1.763958    6.613042    1.161783
     71          1           0       -3.422636    7.063926    0.745017
     72          1           0       -2.271959    6.378309   -0.408823
     73          1           0        1.804932    5.515775    0.584739
     74          1           0        1.915073    5.298004   -1.168411
     75          1           0        3.368925    5.171665   -0.121347
     76          1           0        4.950658    0.177777    1.027928
     77          1           0        3.933007   -1.868109   -3.576552
     78          1           0        5.515506   -2.053547   -2.656222
     79          1           0        5.160015   -0.726888   -3.754839
 ---------------------------------------------------------------------

 SCF Done:  E(RwB97XD) =  -2035.30184827     A.U. after   17 cycles

 Excitation energies and oscillator strengths:

 Excited State   1:      Singlet-A      1.6941 eV  731.87 nm  f=0.3567  <S**2>=0.000
     155 ->158         0.19930
     156 ->157         0.67861
     155 <-158         0.11864
 This state for optimization and/or second-order correction.
 Total Energy, E(TD-HF/TD-DFT) =  -2035.23959247
 Copying the excited state density for this state as the 1-particle RhoCI density.

 Excited State   2:      Singlet-A      2.1842 eV  567.65 nm  f=0.1016  <S**2>=0.000
     155 ->157         0.63333
     156 ->158        -0.30090

 Excited State   3:      Singlet-A      3.4916 eV  355.09 nm  f=0.1758  <S**2>=0.000
     154 ->157         0.53067
     154 ->159         0.10509
     155 ->157         0.15486
     156 ->158         0.39341

 Excited State   4:      Singlet-A      3.5638 eV  347.90 nm  f=0.2695  <S**2>=0.000
     151 ->157        -0.13386
     153 ->157         0.44255
     154 ->157        -0.29568
     155 ->157         0.17040
     156 ->158         0.38660

 Excited State   5:      Singlet-A      3.6768 eV  337.20 nm  f=0.0895  <S**2>=0.000
     151 ->157         0.39473
     151 ->158        -0.11881
     151 ->159        -0.26333
     151 ->161         0.19247
     153 ->157         0.30857
     153 ->159        -0.13597
     154 ->157         0.13570
     156 ->158        -0.14143

 The electronic state is 1-A.
 Alpha  occ. eigenvalues --  -46.96743 -19.31250 -19.24989 -19.24571 -19.24078
 Alpha  occ. eigenvalues --  -14.46843 -14.46412 -14.45133 -14.44051 -10.43852
 Alpha  occ. eigenvalues --  -10.39809 -10.39290 -10.36956 -10.35952 -10.35707
 Alpha  occ. eigenvalues --  -10.35184 -10.34962 -10.34562 -10.34199 -10.33959
 Alpha  occ. eigenvalues --  -10.33803 -10.33561 -10.33253 -10.33021 -10.32592
 Alpha  occ. eigenvalues --  -10.32505 -10.32484 -10.32450 -10.32168 -10.32144
 Alpha  occ. eigenvalues --  -10.32040 -10.31907 -10.31818 -10.31734 -10.31628
 Alpha  occ. eigenvalues --  -10.30819 -10.30331 -10.30282 -10.30155 -10.30119
 Alpha  occ. eigenvalues --  -10.30116 -10.29935 -10.29787  -3.22588  -1.96131
 Alpha  occ. eigenvalues --   -1.95721  -1.95539  -1.18631  -1.13753  -1.12885
 Alpha  occ. eigenvalues --   -1.09250  -1.06799  -1.05964  -1.04954  -1.03909
 Alpha  occ. eigenvalues --   -0.94469  -0.90897  -0.90300  -0.89590  -0.89266
 Alpha  occ. eigenvalues --   -0.87982  -0.87671  -0.86763  -0.85251  -0.84617
 Alpha  occ. eigenvalues --   -0.83808  -0.82754  -0.82346  -0.79498  -0.79224
 Alpha  occ. eigenvalues --   -0.78635  -0.78326  -0.77283  -0.74795  -0.74042
 Alpha  occ. eigenvalues --   -0.71862  -0.71337  -0.70225  -0.69209  -0.67829
 Alpha  occ. eigenvalues --   -0.66855  -0.66846  -0.66623  -0.65696  -0.62082
 Alpha  occ. eigenvalues --   -0.61271  -0.60944  -0.60157  -0.59717  -0.59338
 Alpha  occ. eigenvalues --   -0.58269  -0.58023  -0.57480  -0.57007  -0.56213
 Alpha  occ. eigenvalues --   -0.55656  -0.55140  -0.55021  -0.54764  -0.53851
 Alpha  occ. eigenvalues --   -0.53626  -0.53356  -0.53031  -0.52649  -0.52481
 Alpha  occ. eigenvalues --   -0.52013  -0.51909  -0.51682  -0.51501  -0.50888
 Alpha  occ. eigenvalues --   -0.50597  -0.50301  -0.49510  -0.49272  -0.49177
 Alpha  occ. eigenvalues --   -0.48885  -0.48632  -0.48261  -0.48008  -0.47624
 Alpha  occ. eigenvalues --   -0.47455  -0.47251  -0.47117  -0.46832  -0.46180
 Alpha  occ. eigenvalues --   -0.45898  -0.45811  -0.45603  -0.45393  -0.45235
 Alpha  occ. eigenvalues --   -0.44933  -0.44702  -0.44246  -0.44172  -0.43929
 Alpha  occ. eigenvalues --   -0.43636  -0.43127  -0.42265  -0.41823  -0.41009
 Alpha  occ. eigenvalues --   -0.40855  -0.40082  -0.39354  -0.39231  -0.38794
 Alpha  occ. eigenvalues --   -0.38247  -0.36678  -0.36406  -0.35389  -0.33560
 Alpha  occ. eigenvalues --   -0.33229  -0.32930  -0.32818  -0.31862  -0.25959
 Alpha  occ. eigenvalues --   -0.23216
 Alpha virt. eigenvalues --   -0.06989  -0.00179   0.02181   0.03925   0.04143
 Alpha virt. eigenvalues --    0.06656   0.07898   0.08646   0.09654   0.10881
 Alpha virt. eigenvalues --    0.11229   0.11697   0.12433   0.12602   0.13713

 Mulliken charges:
               1
     1  Mg   0.954830
     2  C    0.126905
     3  C   -0.086820
     4  C   -0.102770
     5  C   -0.086784
     6  N   -0.280306
     7  C   -0.106377
     8  C    0.024725
     9  C   -0.115280
    10  C    0.019699
    11  C    0.017968
    12  C    0.021100
    13  C   -0.133105
    14  H    0.032699
    15  N   -0.458767
    16  C    0.175389
    17  C   -0.148396
    18  C   -0.099958
    19  C    0.211641
    20  C    0.047953
    21  C    0.038191
    22  O   -0.200623
    23  C   -0.012805
    24  N   -0.367968
    25  C    0.007692
    26  C   -0.062967
    27  C   -0.084124
    28  C    0.069573
    29  C    0.005019
    30  C   -0.009881
    31  C   -0.094195
    32  N   -0.439989
    33  C    0.139002
    34  C   -0.213570
    35  C   -0.016300
    36  C    0.079053
    37  C    0.071707
    38  C    0.139962
    39  O   -0.173439
    40  C   -0.211066
    41  C    0.295871
    42  O   -0.266929
    43  O   -0.352082
    44  C    0.141297
    45  H    0.007228
    46  H   -0.025086
    47  H   -0.020852
    48  H    0.029500
    49  H    0.028316
    50  H    0.024564
    51  H    0.050169
    52  H    0.027470
    53  H    0.036961
    54  H    0.046189
    55  H    0.070671
    56  H    0.060469
    57  H    0.063269
    58  H    0.025794
    59  H    0.056049
    60  H    0.046988
    61  H    0.080156
    62  H    0.053728
    63  H    0.053697
    64  H    0.040268
    65  H    0.049435
    66  H    0.047509
    67  H    0.050478
    68  H    0.049745
    69  H    0.043980
    70  H    0.038462
    71  H    0.044462
    72  H    0.040088
    73  H    0.037445
    74  H    0.051955
    75  H    0.058886
    76  H    0.085123
    77  H    0.049525
    78  H    0.054972
    79  H    0.046610
 Sum of Mulliken charges =  -0.00000

 Dipole moment (field-independent basis, Debye):
    X=             -4.9762    Y=              0.2658    Z=             -1.9007  Tot=              5.3334
 Quadrupole moment (field-independent basis, Debye-Ang):
   XX=           -293.6589   YY=           -243.7661   ZZ=           -250.0818
   XY=            -47.5679   XZ=             -3.4771   YZ=             -0.9794

 Normal termination of Gaussian 16 at Sun Sep 19 21:09:45 2021.
