 Gaussian 16, Revision A.03,
 Gaussian 16:  ES64L-G16RevA.03 25-Dec-2016

 --------------------------------
 #p wB97XD/Def2SVP td=(nstates=5)
 --------------------------------

 --------------------------------
 TDDFT excited states in gaussian
 --------------------------------
 Symbolic Z-matrix:
 Charge =  0 Multiplicity = 1

                         Standard orientation:
 ---------------------------------------------------------------------
 Center     Atomic      Atomic             Coordinates (Angstroms)
 Number     Number       Type             X           Y           Z
 ---------------------------------------------------------------------
      1         12           0       -0.798222    0.035863   -0.679268
      2          6           0        2.737155   -0.145256   -0.420888
      3          6           0       -0.841340   -3.446337   -0.480393
      4          6           0       -3.939835    0.317126    0.262700
      5          6           0       -0.391861    3.671631   -0.537753
      6          7           0        0.828091   -1.615308   -0.216069
      7          6           0        2.155486   -1.438026   -0.429861
      8          6           0        2.832796   -2.792708   -0.534499
      9          6           0        1.752138   -3.703791   -1.117017
     10          6           0        0.477871   -2.909363   -0.526992
     11          6           0        1.629771   -3.811876   -2.638098
     12          6           0        3.436491   -3.198049    0.880453
     13          6           0        4.807438   -3.740110    0.772732
     14          1           0        5.161726   -4.962603    1.641617
     15          7           0       -2.254890   -1.378033   -0.112342
     16          6           0       -2.087938   -2.783638   -0.178616
     17          6           0       -3.360349   -3.360929    0.174761
     18          6           0       -4.333644   -2.336654    0.317548
     19          6           0       -3.556247   -1.053060    0.187520
     20          6           0       -3.524342   -4.873469    0.285499
     21          6           0       -5.755329   -2.525260    0.673632
     22          8           0       -6.171840   -3.662409    0.856769
     23          6           0       -6.767335   -1.458485    0.935133
     24          7           0       -1.979382    1.845072   -0.100053
     25          6           0       -3.298704    1.604744    0.035585
     26          6           0       -4.088486    2.924713    0.096980
     27          6           0       -2.977319    4.044628   -0.316873
     28          6           0       -1.701099    3.165518   -0.371199
     29          6           0       -5.448281    2.923056   -0.736402
     30          6           0       -2.880114    5.279079    0.633269
     31          6           0       -1.746802    5.279227    1.715146
     32          7           0        0.745178    1.448101   -0.526472
     33          6           0        0.741227    2.871934   -0.549832
     34          6           0        2.179913    3.358037   -0.716148
     35          6           0        2.923763    2.193296   -0.614677
     36          6           0        2.012419    1.081129   -0.521542
     37          6           0        2.793017    4.761489   -0.885419
     38          6           0        4.250735    1.665744   -0.652506
     39          8           0        5.328258    2.229195   -0.851404
     40          6           0        4.110684    0.211360   -0.376110
     41          6           0        4.669637    0.075729    1.058731
     42          8           0        4.096281    0.352316    2.110270
     43          8           0        6.017777   -0.363534    0.943650
     44          6           0        6.792302   -0.449830    2.114549
     45          1           0       -0.923397   -4.534765   -0.516562
     46          1           0       -5.022131    0.299183    0.405311
     47          1           0       -0.172699    4.734960   -0.648995
     48          1           0        3.632243   -2.819164   -1.274810
     49          1           0        1.711548   -4.757562   -0.843696
     50          1           0        2.523461   -3.495114   -3.174987
     51          1           0        0.680892   -3.410206   -2.994456
     52          1           0        1.575506   -4.891020   -2.786264
     53          1           0        2.817029   -3.986177    1.308633
     54          1           0        3.338114   -2.428540    1.646215
     55          1           0        5.407114   -2.867044    1.027610
     56          1           0        4.980864   -4.024465   -0.265026
     57          1           0       -4.060824   -5.305371   -0.559113
     58          1           0       -3.981790   -5.104757    1.246338
     59          1           0       -2.548596   -5.359363    0.297213
     60          1           0       -6.973859   -0.948364   -0.006052
     61          1           0       -6.494588   -0.717526    1.687590
     62          1           0       -7.754648   -1.879548    1.120995
     63          1           0       -4.286458    3.038417    1.162591
     64          1           0       -3.158041    4.345233   -1.348347
     65          1           0       -5.825418    1.909213   -0.869825
     66          1           0       -5.497002    3.479364   -1.673235
     67          1           0       -6.081506    3.589370   -0.148521
     68          1           0       -3.820213    5.484721    1.144511
     69          1           0       -2.659835    6.085211   -0.066118
     70          1           0       -2.308199    5.847824    2.456887
     71          1           0       -0.817792    5.801867    1.486308
     72          1           0       -1.600268    4.248060    2.037238
     73          1           0        3.366399    4.828670   -1.809325
     74          1           0        3.534954    4.670261   -0.092702
     75          1           0        2.012743    5.489254   -0.663707
     76          1           0        4.748217   -0.350956   -1.058446
     77          1           0        7.819714   -0.780367    1.957011
     78          1           0        6.307941   -1.171241    2.771413
     79          1           0        6.787787    0.559217    2.527718
 ---------------------------------------------------------------------

 SCF Done:  E(RwB97XD) =  -2035.25962450     A.U. after   20 cycles

 Excitation energies and oscillator strengths:

 Excited State   1:      Singlet-A      1.6240 eV  763.45 nm  f=0.3523  <S**2>=0.000
     155 ->158         0.20443
     156 ->157         0.67800
     155 <-158         0.12291
 This state for optimization and/or second-order correction.
 Total Energy, E(TD-HF/TD-DFT) =  -2035.19994347
 Copying the excited state density for this state as the 1-particle RhoCI density.

 Excited State   2:      Singlet-A      2.1336 eV  581.10 nm  f=0.0542  <S**2>=0.000
     155 ->157         0.61273
     156 ->158        -0.34222

 Excited State   3:      Singlet-A      3.3538 eV  369.68 nm  f=0.4740  <S**2>=0.000
     154 ->157         0.33273
     155 ->157         0.26908
     156 ->158         0.53304
     155 <-157        -0.10369

 Excited State   4:      Singlet-A      3.4402 eV  360.40 nm  f=0.1078  <S**2>=0.000
     150 ->157        -0.16244
     150 ->159        -0.15586
     152 ->157        -0.28966
     152 ->159        -0.13764
     153 ->159         0.10254
     153 ->161        -0.10368
     154 ->157         0.46457
     155 ->157        -0.12379
     156 ->158        -0.19062

 Excited State   5:      Singlet-A      3.4875 eV  355.51 nm  f=0.0194  <S**2>=0.000
     150 ->157        -0.10313
     152 ->159        -0.10237
     153 ->157         0.51212
     153 ->158         0.12190
     153 ->159        -0.20716
     153 ->161         0.28354

 The electronic state is 1-A.
 Alpha  occ. eigenvalues --  -46.97669 -19.29960 -19.26353 -19.24001 -19.22576
 Alpha  occ. eigenvalues --  -14.46997 -14.46523 -14.44845 -14.44351 -10.44511
 Alpha  occ. eigenvalues --  -10.38592 -10.38066 -10.35858 -10.35467 -10.35466
 Alpha  occ. eigenvalues --  -10.35366 -10.35055 -10.34872 -10.34781 -10.34124
 Alpha  occ. eigenvalues --  -10.33580 -10.33499 -10.32842 -10.32580 -10.32464
 Alpha  occ. eigenvalues --  -10.32450 -10.32268 -10.32176 -10.31950 -10.31787
 Alpha  occ. eigenvalues --  -10.31652 -10.31621 -10.31465 -10.31182 -10.31078
 Alpha  occ. eigenvalues --  -10.31047 -10.30674 -10.30230 -10.30176 -10.29631
 Alpha  occ. eigenvalues --  -10.29518 -10.29188 -10.29049  -3.23373  -1.96887
 Alpha  occ. eigenvalues --   -1.96535  -1.96285  -1.17997  -1.11857  -1.11551
 Alpha  occ. eigenvalues --   -1.10866  -1.06216  -1.05450  -1.04874  -1.03302
 Alpha  occ. eigenvalues --   -0.96412  -0.91038  -0.90630  -0.89688  -0.89213
 Alpha  occ. eigenvalues --   -0.88795  -0.87512  -0.86700  -0.85577  -0.84618
 Alpha  occ. eigenvalues --   -0.83562  -0.82814  -0.82243  -0.79992  -0.79200
 Alpha  occ. eigenvalues --   -0.78808  -0.77970  -0.77157  -0.74750  -0.73834
 Alpha  occ. eigenvalues --   -0.71843  -0.70725  -0.69259  -0.68826  -0.67314
 Alpha  occ. eigenvalues --   -0.66921  -0.66701  -0.66556  -0.64225  -0.61930
 Alpha  occ. eigenvalues --   -0.61771  -0.61276  -0.60868  -0.60275  -0.59017
 Alpha  occ. eigenvalues --   -0.58102  -0.57942  -0.57624  -0.56858  -0.56515
 Alpha  occ. eigenvalues --   -0.55643  -0.55304  -0.54980  -0.54575  -0.54097
 Alpha  occ. eigenvalues --   -0.53896  -0.53614  -0.53338  -0.53253  -0.52485
 Alpha  occ. eigenvalues --   -0.52092  -0.51906  -0.51404  -0.51171  -0.50910
 Alpha  occ. eigenvalues --   -0.50429  -0.50183  -0.49708  -0.49405  -0.49119
 Alpha  occ. eigenvalues --   -0.48779  -0.48016  -0.47905  -0.47833  -0.47802
 Alpha  occ. eigenvalues --   -0.47367  -0.47236  -0.47066  -0.46492  -0.46372
 Alpha  occ. eigenvalues --   -0.46029  -0.45804  -0.45447  -0.45216  -0.44994
 Alpha  occ. eigenvalues --   -0.44350  -0.43974  -0.43497  -0.43311  -0.42967
 Alpha  occ. eigenvalues --   -0.42878  -0.42332  -0.41957  -0.41067  -0.40505
 Alpha  occ. eigenvalues --   -0.40181  -0.39886  -0.39632  -0.38602  -0.38320
 Alpha  occ. eigenvalues --   -0.37726  -0.37185  -0.36230  -0.35618  -0.33537
 Alpha  occ. eigenvalues --   -0.32987  -0.32717  -0.32145  -0.31634  -0.25968
 Alpha  occ. eigenvalues --   -0.22836
 Alpha virt. eigenvalues --   -0.06885  -0.00733   0.01849   0.02923   0.04312
 Alpha virt. eigenvalues --    0.06847   0.07566   0.08407   0.09651   0.10949
 Alpha virt. eigenvalues --    0.11643   0.11810   0.12285   0.13061   0.13556

 Mulliken charges:
               1
     1  Mg   0.936576
     2  C    0.010997
     3  C   -0.075350
     4  C   -0.029807
     5  C   -0.064589
     6  N   -0.298206
     7  C   -0.021825
     8  C   -0.051804
     9  C   -0.134237
    10  C    0.044024
    11  C    0.038294
    12  C    0.033729
    13  C   -0.117038
    14  H    0.034891
    15  N   -0.490201
    16  C    0.145798
    17  C   -0.165467
    18  C   -0.024997
    19  C    0.111711
    20  C    0.096075
    21  C   -0.007049
    22  O   -0.246414
    23  C    0.014050
    24  N   -0.325799
    25  C    0.062930
    26  C   -0.098254
    27  C   -0.020524
    28  C    0.007707
    29  C    0.005949
    30  C   -0.047048
    31  C   -0.048138
    32  N   -0.422837
    33  C    0.106778
    34  C   -0.210776
    35  C   -0.023439
    36  C    0.161834
    37  C    0.090951
    38  C    0.075717
    39  O   -0.216275
    40  C   -0.054938
    41  C    0.276383
    42  O   -0.229426
    43  O   -0.374816
    44  C    0.144820
    45  H    0.004595
    46  H   -0.047423
    47  H   -0.000887
    48  H    0.012682
    49  H    0.029577
    50  H    0.042138
    51  H    0.047019
    52  H    0.028400
    53  H    0.032666
    54  H    0.056468
    55  H    0.045301
    56  H    0.046267
    57  H    0.058371
    58  H    0.061427
    59  H    0.009470
    60  H    0.040875
    61  H    0.071640
    62  H    0.046908
    63  H    0.050770
    64  H    0.037821
    65  H    0.052409
    66  H    0.033870
    67  H    0.031529
    68  H    0.040217
    69  H    0.030984
    70  H    0.035610
    71  H    0.046458
    72  H    0.060496
    73  H    0.072928
    74  H    0.067992
    75  H    0.038973
    76  H    0.061013
    77  H    0.058031
    78  H    0.041810
    79  H    0.053635
 Sum of Mulliken charges =  -0.00000

 Dipole moment (field-independent basis, Debye):
    X=             -1.2262    Y=              2.1537    Z=             -3.1482  Tot=              4.0066
 Quadrupole moment (field-independent basis, Debye-Ang):
   XX=           -269.7917   YY=           -240.6497   ZZ=           -255.7333
   XY=            -41.2382   XZ=              8.4858   YZ=              6.3552

 Normal termination of Gaussian 16 at Sun Sep 19 12:42:16 2021.
