 Gaussian 16, Revision A.03,
 Gaussian 16:  ES64L-G16RevA.03 25-Dec-2016

 --------------------------------
 #p wB97XD/Def2SVP td=(nstates=5)
 --------------------------------

 --------------------------------
 TDDFT excited states in gaussian
 --------------------------------
 Symbolic Z-matrix:
 Charge =  0 Multiplicity = 1

                         Standard orientation:
 ---------------------------------------------------------------------
 Center     Atomic      Atomic             Coordinates (Angstroms)
 Number     Number       Type             X           Y           Z
 ---------------------------------------------------------------------
      1         12           0       14.378098   -0.138602   -0.012667
      2          6           0       11.148873   -1.164269   -0.715267
      3          6           0       14.109421    2.293445   -2.457400
      4          6           0       17.183511    1.274206    1.223647
      5          6           0       14.313130   -2.450140    2.650079
      6          7           0       12.686080    0.673588   -1.235657
      7          6           0       11.581266   -0.043963   -1.457751
      8          6           0       10.653212    0.702017   -2.465679
      9          6           0       11.712055    1.639590   -3.216848
     10          6           0       12.979350    1.491861   -2.290679
     11          6           0       11.883500    1.278008   -4.711964
     12          6           0        9.639581    1.544621   -1.725420
     13          6           0        8.234953    1.542613   -2.308196
     14          1           0        7.318181    2.823320   -2.329356
     15          7           0       15.575711    1.489493   -0.700987
     16          6           0       15.290535    2.404447   -1.643482
     17          6           0       16.404102    3.292390   -1.731154
     18          6           0       17.405109    2.913955   -0.785821
     19          6           0       16.775046    1.819383   -0.037235
     20          6           0       16.515179    4.296057   -2.818643
     21          6           0       18.659258    3.677137   -0.546902
     22          8           0       18.936527    4.636100   -1.247926
     23          6           0       19.661629    3.252619    0.519689
     24          7           0       15.660983   -0.624799    1.726389
     25          6           0       16.711016    0.197364    2.005203
     26          6           0       17.268614   -0.099923    3.359201
     27          6           0       16.318993   -1.307852    3.811405
     28          6           0       15.382337   -1.569452    2.658138
     29          6           0       18.780343   -0.393345    3.385250
     30          6           0       15.551081   -1.111846    5.193010
     31          6           0       15.626010   -2.195168    6.294563
     32          7           0       13.072431   -1.523867    0.797896
     33          6           0       13.209259   -2.421074    1.810095
     34          6           0       12.209139   -3.391003    1.729284
     35          6           0       11.343087   -2.983205    0.724259
     36          6           0       11.868126   -1.810801    0.241373
     37          6           0       12.065488   -4.594501    2.706394
     38          6           0       10.186415   -3.277931    0.016652
     39          8           0        9.374237   -4.170201    0.234306
     40          6           0        9.900981   -2.068801   -0.998548
     41          6           0        9.970627   -2.485083   -2.352715
     42          8           0       10.940649   -2.737436   -3.071375
     43          8           0        8.654549   -2.558010   -2.798675
     44          6           0        8.351893   -2.961377   -4.161226
     45          1           0       14.093083    2.955860   -3.325117
     46          1           0       18.086899    1.616955    1.733343
     47          1           0       14.439980   -3.184313    3.448559
     48          1           0       10.155654   -0.048879   -3.078804
     49          1           0       11.505697    2.705356   -3.124068
     50          1           0       11.332029    0.375846   -4.975967
     51          1           0       12.942547    1.143548   -4.934357
     52          1           0       11.553573    2.137119   -5.295615
     53          1           0        9.890882    2.588675   -1.537506
     54          1           0        9.673743    1.169482   -0.702594
     55          1           0        7.708598    0.712437   -1.837484
     56          1           0        8.436875    1.242501   -3.336414
     57          1           0       17.158174    3.793713   -3.541112
     58          1           0       16.946523    5.230413   -2.458938
     59          1           0       15.556226    4.544704   -3.273397
     60          1           0       19.259425    3.621467    1.463359
     61          1           0       20.549111    3.860372    0.344992
     62          1           0       19.814641    2.173677    0.499528
     63          1           0       17.029909    0.833231    3.868415
     64          1           0       16.893941   -2.205110    4.040527
     65          1           0       19.246790    0.490643    3.821354
     66          1           0       19.186491   -0.620686    2.399081
     67          1           0       18.974714   -1.222389    4.065262
     68          1           0       14.489565   -0.990925    4.977473
     69          1           0       15.887924   -0.233369    5.743828
     70          1           0       14.766458   -2.800781    6.007620
     71          1           0       15.433702   -1.755312    7.272300
     72          1           0       16.424087   -2.937327    6.280508
     73          1           0       11.697040   -4.220381    3.660726
     74          1           0       12.988911   -5.108129    2.974632
     75          1           0       11.351374   -5.323901    2.323136
     76          1           0        8.936403   -1.656778   -0.701620
     77          1           0        7.388294   -3.469248   -4.134819
     78          1           0        9.138107   -3.524460   -4.664828
     79          1           0        8.152329   -2.055053   -4.733110
     80         12           0      -13.608992    0.962614    0.203697
     81          6           0      -13.742742   -2.527872   -0.133479
     82          6           0      -10.274950    0.900781    0.246776
     83          6           0      -13.689505    4.174300    0.593839
     84          6           0      -17.091080    0.745374    1.161061
     85          7           0      -12.215867   -0.680718    0.172861
     86          6           0      -12.428138   -1.967439   -0.130617
     87          6           0      -11.151077   -2.767339   -0.120251
     88          6           0      -10.097016   -1.716283    0.413603
     89          6           0      -10.879279   -0.426184    0.260939
     90          6           0       -9.516506   -1.908135    1.852267
     91          6           0      -10.758073   -3.224894   -1.616787
     92          6           0      -10.376508   -4.737667   -1.724836
     93          1           0      -10.294352   -5.223629   -3.271924
     94          7           0      -12.227324    2.328757    0.141787
     95          6           0      -10.856623    2.135995    0.113813
     96          6           0      -10.224890    3.397860   -0.157607
     97          6           0      -11.213420    4.463899   -0.102884
     98          6           0      -12.493854    3.686111    0.108979
     99          6           0       -8.674526    3.452372   -0.274822
    100          6           0      -11.192982    5.981903   -0.241307
    101          8           0      -12.182821    6.735797   -0.252441
    102          6           0       -9.825863    6.514011   -0.488623
    103          7           0      -15.162499    2.174979    0.944621
    104          6           0      -14.860223    3.513457    0.993074
    105          6           0      -16.015296    4.313635    1.596146
    106          6           0      -17.182751    3.299025    1.477749
    107          6           0      -16.458085    1.972410    1.241826
    108          6           0      -15.614237    4.845414    3.029153
    109          6           0      -18.259592    3.602525    0.351308
    110          6           0      -19.661320    3.005692    0.555151
    111          7           0      -15.158012   -0.545931    0.438372
    112          6           0      -16.462883   -0.451517    0.817053
    113          6           0      -17.136997   -1.724429    0.692291
    114          6           0      -16.085496   -2.545641    0.245771
    115          6           0      -14.894188   -1.810284    0.166743
    116          6           0      -18.599222   -2.153583    0.952895
    117          6           0      -15.791157   -3.889667   -0.166453
    118          8           0      -16.476044   -4.844690   -0.424229
    119          6           0      -14.179558   -3.951377   -0.269355
    120          6           0      -14.015205   -4.700185   -1.518094
    121          8           0      -14.050555   -4.281569   -2.702813
    122          8           0      -13.827289   -5.974927   -1.135244
    123          6           0      -13.667748   -6.993933   -2.173621
    124          1           0       -9.185520    0.898525    0.170071
    125          1           0      -13.737524    5.263841    0.652539
    126          1           0      -18.163533    0.754680    1.366514
    127          1           0      -11.180566   -3.681576    0.473191
    128          1           0       -9.215723   -1.563110   -0.209551
    129          1           0       -9.916674   -1.111357    2.479228
    130          1           0       -8.439055   -1.789168    1.739388
    131          1           0       -9.730333   -2.835214    2.382997
    132          1           0       -9.981234   -2.636188   -2.106116
    133          1           0      -11.606760   -2.957226   -2.246317
    134          1           0      -11.113869   -5.355554   -1.212792
    135          1           0       -9.388027   -4.995339   -1.345319
    136          1           0       -8.412895    3.295743   -1.320394
    137          1           0       -8.172735    2.578629    0.142779
    138          1           0       -8.164364    4.253395    0.259643
    139          1           0       -9.357208    6.154734   -1.404119
    140          1           0       -9.302200    6.219476    0.421661
    141          1           0       -9.776718    7.603055   -0.510235
    142          1           0      -16.143111    5.171356    0.935651
    143          1           0      -17.749242    3.294971    2.408924
    144          1           0      -16.144674    4.286938    3.800309
    145          1           0      -15.811677    5.888626    3.274421
    146          1           0      -14.581598    4.685707    3.340099
    147          1           0      -17.864808    3.057894   -0.506805
    148          1           0      -18.423327    4.644807    0.076711
    149          1           0      -19.899194    2.250197   -0.194802
    150          1           0      -20.525931    3.669695    0.563393
    151          1           0      -19.597885    2.437475    1.482102
    152          1           0      -18.991338   -1.438101    1.675691
    153          1           0      -18.646307   -3.170587    1.344479
    154          1           0      -19.122757   -2.044181    0.003194
    155          1           0      -13.784694   -4.559489    0.544707
    156          1           0      -12.636335   -7.345593   -2.155828
    157          1           0      -14.032921   -6.656264   -3.142949
    158          1           0      -14.249390   -7.868452   -1.882321
 ---------------------------------------------------------------------

 SCF Done:  E(RwB97XD) =  -4070.57921567     A.U. after   20 cycles

 Excitation energies and oscillator strengths:

 Excited State   1:      Singlet-A      1.6375 eV  757.13 nm  f=0.4129  <S**2>=0.000
     309 -> 315        0.19102
     311 -> 313        0.68249
     309 <- 315        0.11969
 This state for optimization and/or second-order correction.
 Total Energy, E(TD-HF/TD-DFT) =  -4070.51903684
 Copying the excited state density for this state as the 1-particle RhoCI density.

 Excited State   2:      Singlet-A      1.6707 eV  742.13 nm  f=0.3678  <S**2>=0.000
     310 -> 316       -0.20298
     312 -> 314        0.67871
     310 <- 316       -0.12000

 Excited State   3:      Singlet-A      2.1723 eV  570.74 nm  f=0.0982  <S**2>=0.000
     309 -> 313        0.63446
     311 -> 315       -0.29680

 Excited State   4:      Singlet-A      2.1930 eV  565.35 nm  f=0.0605  <S**2>=0.000
     310 -> 314        0.61590
     312 -> 316        0.33603

 Excited State   5:      Singlet-A      3.2587 eV  380.47 nm  f=0.0048  <S**2>=0.000
     308 -> 313        0.67189
     311 -> 315        0.12857

 The electronic state is 1-A.
 Alpha  occ. eigenvalues --  -46.96121 -46.93906 -19.30060 -19.29985 -19.25233
 Alpha  occ. eigenvalues --  -19.24719 -19.24417 -19.24050 -19.23447 -19.23381
 Alpha  occ. eigenvalues --  -14.47162 -14.47015 -14.46700 -14.46296 -14.44510
 Alpha  occ. eigenvalues --  -14.44077 -14.43905 -14.42980 -10.43552 -10.42401
 Alpha  occ. eigenvalues --  -10.39976 -10.39350 -10.38655 -10.38642 -10.35738
 Alpha  occ. eigenvalues --  -10.35658 -10.35533 -10.35478 -10.35419 -10.35240
 Alpha  occ. eigenvalues --  -10.35179 -10.34974 -10.34807 -10.34717 -10.34654
 Alpha  occ. eigenvalues --  -10.34239 -10.34234 -10.34134 -10.33898 -10.33519
 Alpha  occ. eigenvalues --  -10.33429 -10.33207 -10.32928 -10.32859 -10.32767
 Alpha  occ. eigenvalues --  -10.32676 -10.32579 -10.32564 -10.32473 -10.32430
 Alpha  occ. eigenvalues --  -10.32389 -10.32343 -10.32324 -10.32007 -10.31998
 Alpha  occ. eigenvalues --  -10.31979 -10.31974 -10.31865 -10.31776 -10.31761
 Alpha  occ. eigenvalues --  -10.31742 -10.31662 -10.31635 -10.31522 -10.31314
 Alpha  occ. eigenvalues --  -10.31162 -10.30821 -10.30806 -10.30793 -10.30738
 Alpha  occ. eigenvalues --  -10.30532 -10.30504 -10.30342 -10.30325 -10.30246
 Alpha  occ. eigenvalues --  -10.30097 -10.29983 -10.29921 -10.29851 -10.29805
 Alpha  occ. eigenvalues --  -10.29791 -10.29716 -10.29175 -10.28957 -10.28910
 Alpha  occ. eigenvalues --  -10.28462  -3.21911  -3.20149  -1.95508  -1.95022
 Alpha  occ. eigenvalues --   -1.94868  -1.93732  -1.93294  -1.93139  -1.18094
 Alpha  occ. eigenvalues --   -1.18011  -1.12985  -1.12381  -1.12273  -1.11616
 Alpha  occ. eigenvalues --   -1.09814  -1.07697  -1.07652  -1.07180  -1.06294
 Alpha  occ. eigenvalues --   -1.06179  -1.05959  -1.05596  -1.04757  -1.04452
 Alpha  occ. eigenvalues --   -0.95996  -0.94673  -0.91496  -0.91110  -0.91040
 Alpha  occ. eigenvalues --   -0.90348  -0.90098  -0.89924  -0.89881  -0.89357
 Alpha  occ. eigenvalues --   -0.88939  -0.88915  -0.88260  -0.88197  -0.87467
 Alpha  occ. eigenvalues --   -0.86621  -0.86432  -0.85714  -0.85041  -0.84376
 Alpha  occ. eigenvalues --   -0.84254  -0.84147  -0.83544  -0.83212  -0.82836
 Alpha  occ. eigenvalues --   -0.82225  -0.80222  -0.80169  -0.79645  -0.79219
 Alpha  occ. eigenvalues --   -0.78804  -0.78600  -0.78522  -0.77827  -0.77302
 Alpha  occ. eigenvalues --   -0.77217  -0.75593  -0.74756  -0.74475  -0.74095
 Alpha  occ. eigenvalues --   -0.71929  -0.71286  -0.71205  -0.70701  -0.70190
 Alpha  occ. eigenvalues --   -0.69825  -0.69457  -0.69180  -0.68185  -0.67966
 Alpha  occ. eigenvalues --   -0.67940  -0.67581  -0.67448  -0.66958  -0.66861
 Alpha  occ. eigenvalues --   -0.66419  -0.64809  -0.63734  -0.62579  -0.62246
 Alpha  occ. eigenvalues --   -0.62017  -0.61772  -0.61188  -0.61162  -0.61126
 Alpha  occ. eigenvalues --   -0.60600  -0.60261  -0.60094  -0.59971  -0.59088
 Alpha  occ. eigenvalues --   -0.58425  -0.58305  -0.58200  -0.57827  -0.57553
 Alpha  occ. eigenvalues --   -0.57423  -0.56879  -0.56412  -0.56266  -0.55825
 Alpha  occ. eigenvalues --   -0.55609  -0.55429  -0.55361  -0.55156  -0.54737
 Alpha  occ. eigenvalues --   -0.54676  -0.54473  -0.54344  -0.54140  -0.54129
 Alpha  occ. eigenvalues --   -0.54094  -0.53899  -0.53541  -0.53507  -0.53324
 Alpha  occ. eigenvalues --   -0.53317  -0.52960  -0.52662  -0.52382  -0.52293
 Alpha  occ. eigenvalues --   -0.52172  -0.52108  -0.52025  -0.51934  -0.51614
 Alpha  occ. eigenvalues --   -0.51513  -0.51337  -0.51067  -0.51008  -0.50996
 Alpha  occ. eigenvalues --   -0.50819  -0.50421  -0.50378  -0.50295  -0.50065
 Alpha  occ. eigenvalues --   -0.49906  -0.49519  -0.49299  -0.49171  -0.48922
 Alpha  occ. eigenvalues --   -0.48797  -0.48794  -0.48737  -0.48621  -0.48395
 Alpha  occ. eigenvalues --   -0.48236  -0.48166  -0.47991  -0.47846  -0.47824
 Alpha  occ. eigenvalues --   -0.47632  -0.47519  -0.47438  -0.47348  -0.47188
 Alpha  occ. eigenvalues --   -0.47049  -0.46829  -0.46760  -0.46583  -0.45943
 Alpha  occ. eigenvalues --   -0.45922  -0.45669  -0.45652  -0.45484  -0.45466
 Alpha  occ. eigenvalues --   -0.45399  -0.45182  -0.44993  -0.44915  -0.44793
 Alpha  occ. eigenvalues --   -0.44759  -0.44568  -0.44240  -0.44139  -0.44095
 Alpha  occ. eigenvalues --   -0.44006  -0.43948  -0.43895  -0.43853  -0.43413
 Alpha  occ. eigenvalues --   -0.43239  -0.43129  -0.43009  -0.42687  -0.42447
 Alpha  occ. eigenvalues --   -0.42286  -0.42181  -0.41728  -0.41483  -0.40710
 Alpha  occ. eigenvalues --   -0.40407  -0.40233  -0.39995  -0.39752  -0.39506
 Alpha  occ. eigenvalues --   -0.39443  -0.39343  -0.38926  -0.38385  -0.37680
 Alpha  occ. eigenvalues --   -0.37491  -0.37192  -0.36932  -0.36588  -0.36135
 Alpha  occ. eigenvalues --   -0.35956  -0.35855  -0.34937  -0.34127  -0.33706
 Alpha  occ. eigenvalues --   -0.33486  -0.33365  -0.32764  -0.32707  -0.32601
 Alpha  occ. eigenvalues --   -0.32444  -0.31755  -0.31733  -0.26572  -0.26100
 Alpha  occ. eigenvalues --   -0.23439  -0.22913
 Alpha virt. eigenvalues --   -0.07640  -0.06769  -0.00465  -0.00377   0.01768
 Alpha virt. eigenvalues --    0.01801   0.04358   0.04579   0.05591   0.06126
 Alpha virt. eigenvalues --    0.06236   0.07067   0.07399   0.07621   0.08027

 Mulliken charges:
               1
     1  Mg   0.939630
     2  C   -0.063534
     3  C   -0.088140
     4  C   -0.039671
     5  C   -0.124218
     6  N   -0.332319
     7  C    0.013090
     8  C   -0.124668
     9  C   -0.103069
    10  C    0.083984
    11  C    0.035823
    12  C    0.029679
    13  C   -0.116455
    14  H    0.044284
    15  N   -0.456014
    16  C    0.158271
    17  C   -0.182091
    18  C   -0.057261
    19  C    0.198551
    20  C    0.076084
    21  C    0.004804
    22  O   -0.235905
    23  C    0.002782
    24  N   -0.354257
    25  C   -0.009561
    26  C   -0.086573
    27  C   -0.051273
    28  C    0.062341
    29  C    0.022903
    30  C   -0.053288
    31  C   -0.067769
    32  N   -0.434205
    33  C    0.194370
    34  C   -0.187349
    35  C    0.053512
    36  C    0.162129
    37  C    0.075189
    38  C    0.056225
    39  O   -0.207234
    40  C   -0.077475
    41  C    0.295403
    42  O   -0.257173
    43  O   -0.389017
    44  C    0.139804
    45  H   -0.000066
    46  H   -0.029962
    47  H   -0.003564
    48  H    0.037059
    49  H    0.045687
    50  H    0.048936
    51  H    0.034144
    52  H    0.036045
    53  H    0.037198
    54  H    0.027112
    55  H    0.055597
    56  H    0.044592
    57  H    0.060831
    58  H    0.065675
    59  H    0.024436
    60  H    0.059372
    61  H    0.052134
    62  H    0.063699
    63  H    0.053049
    64  H    0.024183
    65  H    0.042441
    66  H    0.053218
    67  H    0.040526
    68  H    0.043525
    69  H    0.030951
    70  H    0.022261
    71  H    0.048008
    72  H    0.040250
    73  H    0.047386
    74  H    0.037947
    75  H    0.062187
    76  H    0.082730
    77  H    0.056676
    78  H    0.069026
    79  H    0.036370
    80  Mg   0.994441
    81  C    0.048609
    82  C   -0.082816
    83  C   -0.068726
    84  C   -0.108800
    85  N   -0.341658
    86  C    0.045950
    87  C   -0.121753
    88  C   -0.075716
    89  C    0.029408
    90  C    0.026843
    91  C    0.023955
    92  C   -0.140412
    93  H    0.018693
    94  N   -0.559176
    95  C    0.189683
    96  C   -0.126418
    97  C   -0.130665
    98  C    0.181113
    99  C    0.043833
   100  C    0.089240
   101  O   -0.240746
   102  C   -0.020785
   103  N   -0.364072
   104  C    0.073136
   105  C   -0.083687
   106  C   -0.059657
   107  C    0.063341
   108  C    0.017243
   109  C   -0.011369
   110  C   -0.064717
   111  N   -0.360592
   112  C    0.130519
   113  C   -0.202800
   114  C   -0.017908
   115  C    0.092405
   116  C    0.097862
   117  C    0.101716
   118  O   -0.185113
   119  C   -0.133404
   120  C    0.263658
   121  O   -0.285062
   122  O   -0.350108
   123  C    0.138302
   124  H   -0.014395
   125  H    0.026551
   126  H   -0.019360
   127  H    0.037230
   128  H    0.028974
   129  H    0.042153
   130  H    0.037728
   131  H    0.043057
   132  H    0.031559
   133  H    0.058097
   134  H    0.053257
   135  H    0.056750
   136  H    0.054067
   137  H    0.028219
   138  H    0.054118
   139  H    0.074544
   140  H    0.050236
   141  H    0.047429
   142  H    0.043255
   143  H    0.027309
   144  H    0.021167
   145  H    0.043944
   146  H    0.041031
   147  H    0.036399
   148  H    0.043259
   149  H    0.035185
   150  H    0.044587
   151  H    0.027506
   152  H    0.034181
   153  H    0.066262
   154  H    0.064415
   155  H    0.073517
   156  H    0.048624
   157  H    0.075934
   158  H    0.049418
 Sum of Mulliken charges =  -0.00000

 Dipole moment (field-independent basis, Debye):
    X=              5.0178    Y=              1.2065    Z=              4.9172  Tot=              7.1283
 Quadrupole moment (field-independent basis, Debye-Ang):
   XX=           -559.5517   YY=           -545.2675   ZZ=           -489.3572
   XY=            -54.8333   XZ=             15.2391   YZ=             -4.0500

 Normal termination of Gaussian 16 at Sun Sep 19 03:46:43 2021.
