 Gaussian 16, Revision A.03,
 Gaussian 16:  ES64L-G16RevA.03 25-Dec-2016

 --------------------------------
 #p wB97XD/Def2SVP td=(nstates=5)
 --------------------------------

 --------------------------------
 TDDFT excited states in gaussian
 --------------------------------
 Symbolic Z-matrix:
 Charge =  0 Multiplicity = 1

                         Standard orientation:
 ---------------------------------------------------------------------
 Center     Atomic      Atomic             Coordinates (Angstroms)
 Number     Number       Type             X           Y           Z
 ---------------------------------------------------------------------
      1         12           0       16.313751    0.621978   -0.063308
      2          6           0       15.176962   -2.331623    1.421985
      3          6           0       13.706614    2.271891    1.481799
      4          6           0       16.935972    3.355286   -2.010852
      5          6           0       18.440769   -1.274681   -2.030910
      6          7           0       14.744768    0.012559    1.334451
      7          6           0       14.620147   -1.170442    1.949506
      8          6           0       13.660627   -1.172255    3.148550
      9          6           0       13.039807    0.273964    3.051386
     10          6           0       13.954362    0.993031    1.910484
     11          6           0       11.532152    0.376154    2.734799
     12          6           0       14.319951   -1.483187    4.492403
     13          6           0       13.350946   -2.100768    5.516952
     14          1           0       11.881284   -2.313430    5.127381
     15          7           0       15.537642    2.576970   -0.180644
     16          6           0       14.482740    3.100281    0.602106
     17          6           0       14.309806    4.497029    0.256835
     18          6           0       15.211892    4.823113   -0.823548
     19          6           0       15.969992    3.590108   -1.030009
     20          6           0       13.376872    5.379011    1.040171
     21          6           0       15.507622    6.216279   -1.540474
     22          8           0       16.395132    6.384382   -2.341199
     23          6           0       14.588982    7.363625   -1.180263
     24          7           0       17.431510    0.961974   -1.816385
     25          6           0       17.577890    2.174345   -2.424514
     26          6           0       18.589047    2.119628   -3.628367
     27          6           0       19.075094    0.673757   -3.542422
     28          6           0       18.261622    0.092986   -2.401114
     29          6           0       18.177616    2.605059   -5.076569
     30          6           0       20.596522    0.609242   -3.271485
     31          6           0       21.103454    0.761495   -1.820194
     32          7           0       16.895511   -1.383961   -0.223305
     33          6           0       17.771574   -2.017309   -1.066248
     34          6           0       17.829724   -3.414772   -0.795980
     35          6           0       16.784203   -3.615069    0.213460
     36          6           0       16.276865   -2.401919    0.473760
     37          6           0       18.657120   -4.482529   -1.361805
     38          6           0       16.016575   -4.602572    0.959494
     39          8           0       16.185380   -5.821639    1.069917
     40          6           0       14.941116   -3.840649    1.788630
     41          6           0       13.594040   -4.306148    1.475068
     42          8           0       12.938297   -4.004536    0.483466
     43          8           0       13.253520   -5.313977    2.342041
     44          6           0       12.147900   -6.230074    2.000798
     45          1           0       12.842347    2.703317    1.991489
     46          1           0       17.271829    4.264886   -2.513070
     47          1           0       19.179076   -1.861389   -2.581414
     48          1           0       12.809120   -1.831085    2.979826
     49          1           0       13.271096    0.902669    3.910490
     50          1           0       11.205389    1.014474    3.555505
     51          1           0       11.059399   -0.604138    2.790162
     52          1           0       11.377820    0.800225    1.742531
     53          1           0       14.791559   -0.604276    4.930288
     54          1           0       15.136407   -2.192584    4.354653
     55          1           0       13.441897   -1.383185    6.332630
     56          1           0       13.746115   -3.022353    5.946683
     57          1           0       12.807962    4.703737    1.679374
     58          1           0       12.734258    5.921238    0.346203
     59          1           0       13.898526    6.126259    1.640048
     60          1           0       13.585766    7.350137   -1.607506
     61          1           0       15.106580    8.290816   -1.426228
     62          1           0       14.537338    7.273354   -0.095291
     63          1           0       19.341263    2.832345   -3.291041
     64          1           0       18.831660    0.212137   -4.498687
     65          1           0       18.428924    1.911143   -5.877841
     66          1           0       18.737684    3.512822   -5.298788
     67          1           0       17.118340    2.862310   -5.049289
     68          1           0       21.032735    1.379384   -3.906493
     69          1           0       20.906817   -0.353624   -3.678389
     70          1           0       21.984486    1.396948   -1.906412
     71          1           0       21.433806   -0.177773   -1.377231
     72          1           0       20.357901    1.137668   -1.120548
     73          1           0       18.970942   -5.125873   -0.540521
     74          1           0       19.535750   -4.154147   -1.917114
     75          1           0       18.037098   -5.160722   -1.948367
     76          1           0       15.222460   -4.034463    2.823598
     77          1           0       11.656804   -5.953270    1.067248
     78          1           0       11.403943   -6.159850    2.794713
     79          1           0       12.680536   -7.178476    1.940012
     80         12           0      -16.070157    0.465568    0.352040
     81          6           0      -15.271637   -2.618503   -1.042334
     82          6           0      -12.891543    0.539373    1.735749
     83          6           0      -16.484151    3.613705    1.270218
     84          6           0      -19.005952    0.504371   -1.480480
     85          7           0      -14.240967   -0.790173    0.219833
     86          6           0      -14.193938   -2.071327   -0.290390
     87          6           0      -12.913536   -2.781518    0.035959
     88          6           0      -12.351288   -1.893714    1.232192
     89          6           0      -13.160532   -0.616007    1.053739
     90          6           0      -12.203721   -2.467621    2.720799
     91          6           0      -11.921411   -3.006682   -1.197329
     92          6           0      -11.910011   -1.930983   -2.323909
     93          1           0      -10.533739   -1.589547   -2.842462
     94          7           0      -14.815433    1.936619    1.264839
     95          6           0      -13.526083    1.753260    1.779789
     96          6           0      -12.987470    2.979083    2.302181
     97          6           0      -14.027356    3.928337    2.158535
     98          6           0      -15.175167    3.214994    1.523219
     99          6           0      -11.675454    2.971569    3.088307
    100          6           0      -13.872609    5.385717    2.649685
    101          8           0      -12.806116    5.815775    3.100691
    102          6           0      -15.087029    6.213900    2.600382
    103          7           0      -17.505505    1.853490   -0.183569
    104          6           0      -17.582760    3.011109    0.572362
    105          6           0      -18.890156    3.798903    0.336130
    106          6           0      -19.540852    2.841464   -0.744652
    107          6           0      -18.632899    1.698745   -0.857893
    108          6           0      -19.797796    4.081100    1.491550
    109          6           0      -19.699037    3.540198   -2.188666
    110          6           0      -21.067743    3.289149   -2.765813
    111          7           0      -17.110261   -0.868640   -0.864649
    112          6           0      -18.303704   -0.707726   -1.543842
    113          6           0      -18.604910   -1.926486   -2.329151
    114          6           0      -17.418682   -2.720867   -2.154147
    115          6           0      -16.578411   -2.024608   -1.277525
    116          6           0      -19.669308   -2.191324   -3.314934
    117          6           0      -16.673550   -3.936857   -2.543907
    118          8           0      -16.964192   -4.787409   -3.352903
    119          6           0      -15.290974   -3.935527   -1.815678
    120          6           0      -15.129555   -5.159364   -1.029753
    121          8           0      -14.296847   -6.060798   -1.129893
    122          8           0      -16.311627   -5.309395   -0.258122
    123          6           0      -16.327128   -6.468283    0.660053
    124          1           0      -11.999115    0.412017    2.352868
    125          1           0      -16.813616    4.570121    1.681240
    126          1           0      -19.985303    0.585831   -1.955350
    127          1           0      -13.121384   -3.794745    0.379687
    128          1           0      -11.343385   -1.693528    0.867787
    129          1           0      -12.422175   -3.528185    2.844361
    130          1           0      -12.881676   -2.006242    3.438739
    131          1           0      -11.152867   -2.444500    3.010672
    132          1           0      -12.062394   -3.998371   -1.625929
    133          1           0      -10.921359   -3.071929   -0.768747
    134          1           0      -12.413445   -1.021898   -1.993528
    135          1           0      -12.468096   -2.294842   -3.186167
    136          1           0      -11.105938    3.897593    3.003265
    137          1           0      -11.007385    2.224728    2.660140
    138          1           0      -11.957051    2.817016    4.130168
    139          1           0      -15.782307    5.853008    3.357719
    140          1           0      -15.511131    6.186030    1.596168
    141          1           0      -14.750996    7.219288    2.853945
    142          1           0      -18.632311    4.691189   -0.234823
    143          1           0      -20.417223    2.461136   -0.219878
    144          1           0      -20.727330    4.446594    1.054798
    145          1           0      -19.378072    4.934284    2.024510
    146          1           0      -19.903337    3.195966    2.119966
    147          1           0      -18.893097    3.147360   -2.808402
    148          1           0      -19.475185    4.605838   -2.251953
    149          1           0      -20.951877    2.620367   -3.618356
    150          1           0      -21.468187    4.163326   -3.280270
    151          1           0      -21.681488    2.754308   -2.041280
    152          1           0      -20.385474   -1.383058   -3.470259
    153          1           0      -20.244346   -3.025184   -2.913807
    154          1           0      -19.078642   -2.236614   -4.229680
    155          1           0      -14.559819   -3.881474   -2.621931
    156          1           0      -16.715720   -6.022512    1.576404
    157          1           0      -15.410160   -7.003993    0.905743
    158          1           0      -17.162977   -7.075441    0.311972
 ---------------------------------------------------------------------

 SCF Done:  E(RwB97XD) =  -4070.62424563     A.U. after   20 cycles

 Excitation energies and oscillator strengths:

 Excited State   1:      Singlet-A      1.6567 eV  748.38 nm  f=0.3342  <S**2>=0.000
     310 -> 316       -0.18233
     311 -> 313        0.66362
     312 -> 314       -0.15642
     310 <- 316       -0.11324
 This state for optimization and/or second-order correction.
 Total Energy, E(TD-HF/TD-DFT) =  -4070.56336273
 Copying the excited state density for this state as the 1-particle RhoCI density.

 Excited State   2:      Singlet-A      1.6616 eV  746.17 nm  f=0.4446  <S**2>=0.000
     309 -> 315       -0.18281
     311 -> 313        0.15630
     312 -> 314        0.66332
     309 <- 315       -0.11172

 Excited State   3:      Singlet-A      2.0777 eV  596.74 nm  f=0.1520  <S**2>=0.000
     310 -> 313        0.65641
     311 -> 316        0.23990

 Excited State   4:      Singlet-A      2.1478 eV  577.26 nm  f=0.0863  <S**2>=0.000
     309 -> 314        0.62840
     312 -> 315        0.30681

 Excited State   5:      Singlet-A      3.1039 eV  399.44 nm  f=0.0053  <S**2>=0.000
     307 -> 313       -0.12886
     308 -> 313        0.67532

 The electronic state is 1-A.
 Alpha  occ. eigenvalues --  -46.95459 -46.94564 -19.29581 -19.29085 -19.25490
 Alpha  occ. eigenvalues --  -19.24931 -19.24072 -19.23895 -19.23879 -19.23736
 Alpha  occ. eigenvalues --  -14.46851 -14.46851 -14.46793 -14.46434 -14.44266
 Alpha  occ. eigenvalues --  -14.44032 -14.43779 -14.42749 -10.43601 -10.42479
 Alpha  occ. eigenvalues --  -10.40133 -10.39147 -10.39088 -10.39080 -10.35694
 Alpha  occ. eigenvalues --  -10.35218 -10.35025 -10.34892 -10.34883 -10.34859
 Alpha  occ. eigenvalues --  -10.34738 -10.34684 -10.34672 -10.34631 -10.34352
 Alpha  occ. eigenvalues --  -10.34147 -10.34091 -10.33870 -10.33402 -10.32952
 Alpha  occ. eigenvalues --  -10.32816 -10.32804 -10.32802 -10.32686 -10.32621
 Alpha  occ. eigenvalues --  -10.32575 -10.32380 -10.32378 -10.32324 -10.32281
 Alpha  occ. eigenvalues --  -10.32266 -10.32239 -10.32121 -10.32120 -10.31780
 Alpha  occ. eigenvalues --  -10.31727 -10.31681 -10.31667 -10.31664 -10.31433
 Alpha  occ. eigenvalues --  -10.31431 -10.31214 -10.31128 -10.31099 -10.31019
 Alpha  occ. eigenvalues --  -10.30904 -10.30898 -10.30871 -10.30848 -10.30834
 Alpha  occ. eigenvalues --  -10.30748 -10.30614 -10.30251 -10.30160 -10.30085
 Alpha  occ. eigenvalues --  -10.30070 -10.29943 -10.29917 -10.29910 -10.29806
 Alpha  occ. eigenvalues --  -10.29667 -10.29634 -10.29572 -10.29450 -10.29269
 Alpha  occ. eigenvalues --  -10.28769  -3.21428  -3.20526  -1.95000  -1.94567
 Alpha  occ. eigenvalues --   -1.94391  -1.94116  -1.93646  -1.93504  -1.17224
 Alpha  occ. eigenvalues --   -1.16973  -1.13773  -1.12612  -1.11605  -1.11074
 Alpha  occ. eigenvalues --   -1.09112  -1.08803  -1.07068  -1.06416  -1.05729
 Alpha  occ. eigenvalues --   -1.05297  -1.05224  -1.04447  -1.04398  -1.03030
 Alpha  occ. eigenvalues --   -0.94436  -0.94024  -0.91514  -0.91173  -0.91005
 Alpha  occ. eigenvalues --   -0.90618  -0.90045  -0.89890  -0.89566  -0.88989
 Alpha  occ. eigenvalues --   -0.88821  -0.88362  -0.88166  -0.87999  -0.86738
 Alpha  occ. eigenvalues --   -0.86369  -0.86094  -0.85297  -0.84669  -0.84281
 Alpha  occ. eigenvalues --   -0.84193  -0.83843  -0.82922  -0.82801  -0.82111
 Alpha  occ. eigenvalues --   -0.82103  -0.80243  -0.80064  -0.79464  -0.79015
 Alpha  occ. eigenvalues --   -0.78767  -0.78721  -0.78146  -0.77795  -0.77712
 Alpha  occ. eigenvalues --   -0.76933  -0.74637  -0.74392  -0.74130  -0.73040
 Alpha  occ. eigenvalues --   -0.71702  -0.71362  -0.71247  -0.70384  -0.70087
 Alpha  occ. eigenvalues --   -0.69623  -0.68832  -0.68351  -0.68037  -0.66907
 Alpha  occ. eigenvalues --   -0.66682  -0.66596  -0.66518  -0.66413  -0.65994
 Alpha  occ. eigenvalues --   -0.65702  -0.64533  -0.63364  -0.62259  -0.61748
 Alpha  occ. eigenvalues --   -0.61407  -0.61046  -0.61004  -0.60943  -0.60279
 Alpha  occ. eigenvalues --   -0.60249  -0.59629  -0.59516  -0.59370  -0.59201
 Alpha  occ. eigenvalues --   -0.58304  -0.57788  -0.57773  -0.57351  -0.57351
 Alpha  occ. eigenvalues --   -0.57086  -0.57050  -0.56581  -0.56552  -0.55797
 Alpha  occ. eigenvalues --   -0.55590  -0.55243  -0.54868  -0.54759  -0.54661
 Alpha  occ. eigenvalues --   -0.54585  -0.54564  -0.54218  -0.54115  -0.54026
 Alpha  occ. eigenvalues --   -0.53922  -0.53863  -0.53548  -0.53517  -0.53049
 Alpha  occ. eigenvalues --   -0.52755  -0.52705  -0.52550  -0.52374  -0.52240
 Alpha  occ. eigenvalues --   -0.52144  -0.51590  -0.51557  -0.51501  -0.51486
 Alpha  occ. eigenvalues --   -0.51280  -0.51262  -0.50939  -0.50880  -0.50762
 Alpha  occ. eigenvalues --   -0.50505  -0.50416  -0.50193  -0.50116  -0.50103
 Alpha  occ. eigenvalues --   -0.50000  -0.49687  -0.49520  -0.49209  -0.49019
 Alpha  occ. eigenvalues --   -0.48878  -0.48644  -0.48469  -0.48221  -0.48160
 Alpha  occ. eigenvalues --   -0.48148  -0.48007  -0.47753  -0.47664  -0.47531
 Alpha  occ. eigenvalues --   -0.47326  -0.47163  -0.47064  -0.46915  -0.46908
 Alpha  occ. eigenvalues --   -0.46863  -0.46637  -0.46579  -0.46535  -0.46209
 Alpha  occ. eigenvalues --   -0.45866  -0.45850  -0.45563  -0.45362  -0.45293
 Alpha  occ. eigenvalues --   -0.45171  -0.45121  -0.45049  -0.44952  -0.44754
 Alpha  occ. eigenvalues --   -0.44710  -0.44628  -0.44453  -0.44241  -0.44069
 Alpha  occ. eigenvalues --   -0.43968  -0.43891  -0.43680  -0.43586  -0.43379
 Alpha  occ. eigenvalues --   -0.43127  -0.42983  -0.42766  -0.42486  -0.42375
 Alpha  occ. eigenvalues --   -0.42126  -0.41884  -0.41789  -0.41018  -0.40438
 Alpha  occ. eigenvalues --   -0.40403  -0.40275  -0.39967  -0.39719  -0.39569
 Alpha  occ. eigenvalues --   -0.39407  -0.38911  -0.38745  -0.38551  -0.38018
 Alpha  occ. eigenvalues --   -0.37659  -0.37658  -0.37151  -0.36774  -0.36281
 Alpha  occ. eigenvalues --   -0.35711  -0.35576  -0.35475  -0.33532  -0.33506
 Alpha  occ. eigenvalues --   -0.33152  -0.33071  -0.32799  -0.32766  -0.32177
 Alpha  occ. eigenvalues --   -0.31837  -0.31761  -0.30808  -0.26024  -0.25392
 Alpha  occ. eigenvalues --   -0.23078  -0.23028
 Alpha virt. eigenvalues --   -0.07243  -0.07015  -0.00321   0.00649   0.02679
 Alpha virt. eigenvalues --    0.02715   0.04555   0.04625   0.04850   0.05712
 Alpha virt. eigenvalues --    0.06207   0.07456   0.07477   0.07804   0.08500

 Mulliken charges:
               1
     1  Mg   0.960031
     2  C   -0.000890
     3  C   -0.090247
     4  C   -0.074003
     5  C   -0.086999
     6  N   -0.357086
     7  C   -0.011485
     8  C   -0.047788
     9  C   -0.148997
    10  C    0.067883
    11  C    0.032188
    12  C    0.017158
    13  C   -0.110750
    14  H    0.046870
    15  N   -0.477813
    16  C    0.165656
    17  C   -0.178416
    18  C   -0.089940
    19  C    0.129329
    20  C    0.057050
    21  C    0.082224
    22  O   -0.208430
    23  C   -0.022412
    24  N   -0.337998
    25  C    0.039926
    26  C   -0.081611
    27  C   -0.049236
    28  C    0.050988
    29  C    0.022585
    30  C   -0.042502
    31  C   -0.033335
    32  N   -0.450010
    33  C    0.142096
    34  C   -0.165046
    35  C   -0.034685
    36  C    0.132479
    37  C    0.085500
    38  C    0.094061
    39  O   -0.220707
    40  C   -0.058917
    41  C    0.274314
    42  O   -0.254724
    43  O   -0.379433
    44  C    0.128351
    45  H    0.001363
    46  H    0.020129
    47  H   -0.015929
    48  H    0.038862
    49  H    0.031162
    50  H    0.040090
    51  H    0.043119
    52  H    0.055481
    53  H    0.031038
    54  H    0.031031
    55  H    0.040466
    56  H    0.054330
    57  H    0.029133
    58  H    0.047991
    59  H    0.067777
    60  H    0.082082
    61  H    0.053770
    62  H    0.031750
    63  H    0.039725
    64  H    0.036132
    65  H    0.039828
    66  H    0.035643
    67  H    0.051012
    68  H    0.030119
    69  H    0.031093
    70  H    0.040328
    71  H    0.037198
    72  H    0.046602
    73  H    0.052905
    74  H    0.034574
    75  H    0.057862
    76  H    0.073237
    77  H    0.066947
    78  H    0.054404
    79  H    0.073517
    80  Mg   0.956427
    81  C   -0.040864
    82  C   -0.109688
    83  C   -0.099661
    84  C   -0.098532
    85  N   -0.351170
    86  C    0.005701
    87  C   -0.079460
    88  C   -0.050033
    89  C    0.025477
    90  C    0.014885
    91  C   -0.014113
    92  C   -0.131276
    93  H    0.040726
    94  N   -0.438241
    95  C    0.180421
    96  C   -0.147189
    97  C   -0.107038
    98  C    0.207068
    99  C    0.079845
   100  C    0.051187
   101  O   -0.236402
   102  C   -0.010269
   103  N   -0.368931
   104  C    0.022367
   105  C   -0.081677
   106  C   -0.120611
   107  C    0.043086
   108  C    0.052819
   109  C   -0.004593
   110  C   -0.029221
   111  N   -0.430890
   112  C    0.160631
   113  C   -0.200479
   114  C   -0.051262
   115  C    0.127554
   116  C    0.085784
   117  C    0.113381
   118  O   -0.186332
   119  C   -0.040769
   120  C    0.283550
   121  O   -0.239867
   122  O   -0.406711
   123  C    0.140526
   124  H   -0.005379
   125  H   -0.020540
   126  H   -0.017648
   127  H    0.039148
   128  H    0.033403
   129  H    0.033407
   130  H    0.047788
   131  H    0.043609
   132  H    0.053380
   133  H    0.034524
   134  H    0.067838
   135  H    0.053360
   136  H    0.060194
   137  H    0.036781
   138  H    0.064810
   139  H    0.070821
   140  H    0.065199
   141  H    0.051281
   142  H    0.031693
   143  H    0.032439
   144  H    0.042844
   145  H    0.037318
   146  H    0.047643
   147  H    0.039954
   148  H    0.030703
   149  H    0.027401
   150  H    0.038734
   151  H    0.043355
   152  H    0.019174
   153  H    0.066808
   154  H    0.074786
   155  H    0.069301
   156  H    0.037366
   157  H    0.075545
   158  H    0.056805
 Sum of Mulliken charges =  -0.00000

 Dipole moment (field-independent basis, Debye):
    X=             -3.7732    Y=              5.6727    Z=              5.5617  Tot=              8.7949
 Quadrupole moment (field-independent basis, Debye-Ang):
   XX=           -354.6116   YY=           -548.0070   ZZ=           -498.2043
   XY=            -26.6862   XZ=            -33.8998   YZ=            -26.0156

 Normal termination of Gaussian 16 at Sun Sep 19 15:45:44 2021.
