 Gaussian 16, Revision A.03,
 Gaussian 16:  ES64L-G16RevA.03 25-Dec-2016

 --------------------------------
 #p wB97XD/Def2SVP td=(nstates=5)
 --------------------------------

 --------------------------------
 TDDFT excited states in gaussian
 --------------------------------
 Symbolic Z-matrix:
 Charge =  0 Multiplicity = 1

                         Standard orientation:
 ---------------------------------------------------------------------
 Center     Atomic      Atomic             Coordinates (Angstroms)
 Number     Number       Type             X           Y           Z
 ---------------------------------------------------------------------
      1         12           0       11.786534    0.460104    0.225167
      2          6           0        9.987900   -2.513198    0.725843
      3          6           0       14.594513   -1.411591   -0.167698
      4          6           0       13.234268    3.258121   -0.653214
      5          6           0        8.558358    2.010343   -0.151721
      6          7           0       12.212305   -1.679194    0.345591
      7          6           0       11.339679   -2.712873    0.537595
      8          6           0       12.066604   -4.023374    0.200676
      9          6           0       13.519107   -3.657253    0.485073
     10          6           0       13.445602   -2.166305    0.103487
     11          6           0       13.909132   -3.850298    1.968735
     12          6           0       11.836227   -4.439064   -1.299324
     13          6           0       10.990365   -5.771846   -1.601654
     14          1           0        9.682443   -5.660984   -2.403600
     15          7           0       13.640971    0.862889   -0.389339
     16          6           0       14.675598   -0.040952   -0.466355
     17          6           0       15.875680    0.679736   -0.755920
     18          6           0       15.584170    2.083381   -0.795708
     19          6           0       14.104456    2.144962   -0.617572
     20          6           0       17.269843   -0.010666   -0.944500
     21          6           0       16.656165    3.220039   -0.967250
     22          8           0       17.817430    2.949164   -0.980910
     23          6           0       16.222869    4.604713   -0.824975
     24          7           0       10.985828    2.294040   -0.635440
     25          6           0       11.835034    3.343062   -0.524133
     26          6           0       11.124362    4.669010   -0.310284
     27          6           0        9.660524    4.316155   -0.525438
     28          6           0        9.715540    2.751158   -0.440581
     29          6           0       11.384830    5.282171    1.115218
     30          6           0        8.909491    4.828771   -1.843136
     31          6           0        7.874365    5.920555   -1.797369
     32          7           0        9.728339   -0.031811    0.465507
     33          6           0        8.538393    0.684608    0.283761
     34          6           0        7.375266   -0.154119    0.476878
     35          6           0        7.907624   -1.403729    0.678989
     36          6           0        9.339027   -1.327613    0.645949
     37          6           0        5.974926    0.287648    0.372940
     38          6           0        7.561835   -2.795744    0.922754
     39          8           0        6.453740   -3.310116    1.118415
     40          6           0        8.873051   -3.538564    1.070212
     41          6           0        8.913433   -4.108458    2.483943
     42          8           0        8.827495   -3.371480    3.463565
     43          8           0        8.921894   -5.511956    2.475634
     44          6           0        8.925394   -6.118042    3.780228
     45          1           0       15.496766   -2.025177   -0.131963
     46          1           0       13.794099    4.194222   -0.625240
     47          1           0        7.588092    2.511754   -0.157776
     48          1           0       11.589011   -4.806140    0.790516
     49          1           0       14.152087   -4.260324   -0.164689
     50          1           0       14.821711   -4.426943    1.821895
     51          1           0       13.087052   -4.424613    2.396797
     52          1           0       14.077073   -2.947222    2.555671
     53          1           0       12.817636   -4.622631   -1.736463
     54          1           0       11.433101   -3.572709   -1.823147
     55          1           0       10.674686   -6.137086   -0.624095
     56          1           0       11.563994   -6.582581   -2.049243
     57          1           0       17.854172    0.248993   -1.826703
     58          1           0       17.063272   -1.080919   -0.976869
     59          1           0       17.938207    0.153691   -0.099102
     60          1           0       15.446332    4.907894   -1.527574
     61          1           0       17.090586    5.250741   -0.958176
     62          1           0       15.994367    4.820706    0.217788
     63          1           0       11.475703    5.447063   -0.988820
     64          1           0        9.066227    4.631400    0.332209
     65          1           0       12.157796    6.050488    1.119704
     66          1           0       11.536004    4.478022    1.835335
     67          1           0       10.462631    5.778554    1.420698
     68          1           0        8.552320    4.082907   -2.552402
     69          1           0        9.800930    5.251587   -2.307219
     70          1           0        8.183952    6.834652   -2.303020
     71          1           0        7.666725    6.182734   -0.759664
     72          1           0        6.998132    5.479923   -2.272379
     73          1           0        5.950438    1.160208   -0.280420
     74          1           0        5.698233    0.614225    1.375782
     75          1           0        5.320756   -0.528423    0.069462
     76          1           0        8.766175   -4.346636    0.347809
     77          1           0        9.890391   -6.098534    4.287393
     78          1           0        8.617637   -7.162437    3.737433
     79          1           0        8.219210   -5.676538    4.482898
     80         12           0      -11.005036    0.759440    0.510224
     81          6           0      -11.938880   -2.619128   -0.478796
     82          6           0       -7.943097    0.174358   -0.929144
     83          6           0      -10.681522    4.054663    0.041972
     84          6           0      -14.035707    1.111280    2.006080
     85          7           0      -10.139151   -0.995164   -0.762024
     86          6           0      -10.691700   -2.311307   -0.962986
     87          6           0       -9.620676   -3.225286   -1.564923
     88          6           0       -8.286605   -2.450357   -1.353767
     89          6           0       -8.754857   -0.977077   -0.974191
     90          6           0       -7.366361   -3.060413   -0.193305
     91          6           0       -9.879113   -3.775767   -2.936983
     92          6           0      -10.964284   -3.080693   -3.792766
     93          1           0      -11.352551   -3.420478   -5.243369
     94          7           0       -9.433193    1.978516   -0.214034
     95          6           0       -8.261446    1.531246   -0.783367
     96          6           0       -7.397801    2.720658   -1.062883
     97          6           0       -8.252433    3.805342   -0.883339
     98          6           0       -9.545546    3.344646   -0.383144
     99          6           0       -6.003215    2.554787   -1.553579
    100          6           0       -7.874613    5.283744   -1.190344
    101          8           0       -6.789560    5.499102   -1.700603
    102          6           0       -8.802076    6.444301   -1.044233
    103          7           0      -12.309832    2.309121    0.843417
    104          6           0      -11.839020    3.611990    0.684465
    105          6           0      -12.837820    4.627130    1.240141
    106          6           0      -13.770268    3.734680    2.136991
    107          6           0      -13.340674    2.335754    1.689342
    108          6           0      -12.292168    5.853774    2.015575
    109          6           0      -15.305067    3.997230    2.008433
    110          6           0      -15.991858    4.743976    3.241724
    111          7           0      -12.655286   -0.492439    0.820480
    112          6           0      -13.807561   -0.210083    1.539580
    113          6           0      -14.574229   -1.421812    1.694814
    114          6           0      -13.898380   -2.318162    0.855795
    115          6           0      -12.723836   -1.687783    0.375849
    116          6           0      -15.903025   -1.498973    2.466414
    117          6           0      -13.868033   -3.659778    0.359452
    118          8           0      -14.689723   -4.552230    0.650599
    119          6           0      -12.523416   -3.996305   -0.425348
    120          6           0      -12.981207   -4.586668   -1.698936
    121          8           0      -13.841759   -4.128932   -2.458170
    122          8           0      -12.185448   -5.658499   -1.934354
    123          6           0      -12.579154   -6.538152   -3.079295
    124          1           0       -6.976495   -0.007656   -1.402495
    125          1           0      -10.555177    5.129562   -0.105015
    126          1           0      -14.944785    1.222780    2.600100
    127          1           0       -9.688698   -4.021751   -0.823859
    128          1           0       -7.737389   -2.287757   -2.281310
    129          1           0       -6.502703   -3.440548   -0.737476
    130          1           0       -7.928179   -3.817233    0.354655
    131          1           0       -7.073382   -2.209994    0.423394
    132          1           0      -10.052877   -4.843433   -2.804069
    133          1           0       -8.892202   -3.665660   -3.387658
    134          1           0      -10.686741   -2.026187   -3.783659
    135          1           0      -11.933456   -3.181703   -3.303886
    136          1           0       -6.007417    2.904982   -2.585371
    137          1           0       -5.739077    1.500648   -1.474762
    138          1           0       -5.323270    3.103547   -0.900994
    139          1           0       -9.681288    6.484964   -1.686095
    140          1           0       -8.338081    7.390367   -1.321555
    141          1           0       -8.988483    6.412574    0.029150
    142          1           0      -13.273524    4.920479    0.284342
    143          1           0      -13.403670    3.893882    3.151315
    144          1           0      -12.255294    6.765200    1.418020
    145          1           0      -11.258961    5.669101    2.307752
    146          1           0      -12.893962    5.962049    2.918578
    147          1           0      -15.898035    3.102913    1.814868
    148          1           0      -15.393590    4.578096    1.090274
    149          1           0      -16.630147    5.468254    2.736274
    150          1           0      -15.300826    5.245889    3.919136
    151          1           0      -16.475018    3.974681    3.843034
    152          1           0      -16.125521   -2.467266    2.915295
    153          1           0      -16.613838   -1.312593    1.662092
    154          1           0      -15.869956   -0.846817    3.338893
    155          1           0      -11.919519   -4.679124    0.174094
    156          1           0      -11.861280   -7.354267   -3.168256
    157          1           0      -12.570266   -5.988227   -4.020552
    158          1           0      -13.570570   -6.871101   -2.775379
 ---------------------------------------------------------------------

 SCF Done:  E(RwB97XD) =  -4070.58033174     A.U. after   19 cycles

 Excitation energies and oscillator strengths:

 Excited State   1:      Singlet-A      1.6100 eV  770.09 nm  f=0.4186  <S**2>=0.000
     310 -> 316       -0.16080
     312 -> 313        0.68643
     310 <- 316       -0.10956
 This state for optimization and/or second-order correction.
 Total Energy, E(TD-HF/TD-DFT) =  -4070.52116557
 Copying the excited state density for this state as the 1-particle RhoCI density.

 Excited State   2:      Singlet-A      1.6667 eV  743.87 nm  f=0.3140  <S**2>=0.000
     309 -> 315       -0.19699
     311 -> 314        0.67879
     309 <- 315       -0.12031

 Excited State   3:      Singlet-A      2.2260 eV  556.99 nm  f=0.0271  <S**2>=0.000
     309 -> 314        0.58481
     310 -> 313       -0.15388
     311 -> 315        0.34537

 Excited State   4:      Singlet-A      2.2273 eV  556.64 nm  f=0.0986  <S**2>=0.000
     309 -> 314        0.14974
     310 -> 313        0.59872
     312 -> 316        0.31493

 Excited State   5:      Singlet-A      3.6701 eV  337.83 nm  f=0.0000  <S**2>=0.000
     312 -> 314        0.70685

 The electronic state is 1-A.
 Alpha  occ. eigenvalues --  -46.95606 -46.95076 -19.31350 -19.30502 -19.25616
 Alpha  occ. eigenvalues --  -19.24291 -19.24116 -19.24107 -19.23915 -19.22041
 Alpha  occ. eigenvalues --  -14.47020 -14.46771 -14.46724 -14.46137 -14.44316
 Alpha  occ. eigenvalues --  -14.44037 -14.44025 -14.43214 -10.44213 -10.42904
 Alpha  occ. eigenvalues --  -10.39498 -10.39019 -10.38672 -10.37471 -10.36001
 Alpha  occ. eigenvalues --  -10.35803 -10.35701 -10.35320 -10.35213 -10.35185
 Alpha  occ. eigenvalues --  -10.34963 -10.34918 -10.34913 -10.34902 -10.34742
 Alpha  occ. eigenvalues --  -10.34619 -10.34468 -10.33881 -10.33593 -10.33334
 Alpha  occ. eigenvalues --  -10.33020 -10.32902 -10.32726 -10.32674 -10.32547
 Alpha  occ. eigenvalues --  -10.32518 -10.32413 -10.32344 -10.32235 -10.32181
 Alpha  occ. eigenvalues --  -10.31994 -10.31992 -10.31991 -10.31966 -10.31909
 Alpha  occ. eigenvalues --  -10.31823 -10.31811 -10.31705 -10.31619 -10.31612
 Alpha  occ. eigenvalues --  -10.31491 -10.31345 -10.31263 -10.31227 -10.31169
 Alpha  occ. eigenvalues --  -10.31077 -10.31071 -10.30985 -10.30980 -10.30952
 Alpha  occ. eigenvalues --  -10.30792 -10.30769 -10.30694 -10.30684 -10.30392
 Alpha  occ. eigenvalues --  -10.30189 -10.30189 -10.30185 -10.30132 -10.29896
 Alpha  occ. eigenvalues --  -10.29822 -10.29820 -10.29519 -10.29466 -10.29253
 Alpha  occ. eigenvalues --  -10.27892  -3.21545  -3.21122  -1.95102  -1.94689
 Alpha  occ. eigenvalues --   -1.94687  -1.94495  -1.94260  -1.94090  -1.18231
 Alpha  occ. eigenvalues --   -1.18168  -1.14142  -1.12927  -1.11417  -1.10526
 Alpha  occ. eigenvalues --   -1.09580  -1.08799  -1.06828  -1.06779  -1.06322
 Alpha  occ. eigenvalues --   -1.05982  -1.04960  -1.04877  -1.04158  -1.02292
 Alpha  occ. eigenvalues --   -0.95108  -0.93823  -0.91219  -0.91049  -0.90893
 Alpha  occ. eigenvalues --   -0.90835  -0.90502  -0.90438  -0.89623  -0.89098
 Alpha  occ. eigenvalues --   -0.88753  -0.88592  -0.87949  -0.86979  -0.86546
 Alpha  occ. eigenvalues --   -0.86238  -0.86182  -0.85549  -0.84628  -0.84513
 Alpha  occ. eigenvalues --   -0.84486  -0.84207  -0.83061  -0.82876  -0.82861
 Alpha  occ. eigenvalues --   -0.82061  -0.79993  -0.79978  -0.79618  -0.79227
 Alpha  occ. eigenvalues --   -0.78386  -0.78364  -0.78268  -0.77869  -0.77124
 Alpha  occ. eigenvalues --   -0.77089  -0.74950  -0.74927  -0.74158  -0.73630
 Alpha  occ. eigenvalues --   -0.71521  -0.70986  -0.70906  -0.70646  -0.70154
 Alpha  occ. eigenvalues --   -0.69508  -0.68875  -0.68800  -0.68101  -0.67833
 Alpha  occ. eigenvalues --   -0.67608  -0.67319  -0.66911  -0.66629  -0.66525
 Alpha  occ. eigenvalues --   -0.65457  -0.64780  -0.64054  -0.62257  -0.62098
 Alpha  occ. eigenvalues --   -0.61623  -0.61149  -0.61070  -0.60977  -0.60930
 Alpha  occ. eigenvalues --   -0.60538  -0.59877  -0.59757  -0.59479  -0.59139
 Alpha  occ. eigenvalues --   -0.58710  -0.58262  -0.58113  -0.58102  -0.57306
 Alpha  occ. eigenvalues --   -0.57046  -0.56948  -0.56480  -0.56114  -0.55967
 Alpha  occ. eigenvalues --   -0.55571  -0.55521  -0.55410  -0.55142  -0.54987
 Alpha  occ. eigenvalues --   -0.54760  -0.54708  -0.54662  -0.54469  -0.54196
 Alpha  occ. eigenvalues --   -0.54174  -0.53781  -0.53676  -0.53334  -0.53097
 Alpha  occ. eigenvalues --   -0.53003  -0.52933  -0.52859  -0.52526  -0.52426
 Alpha  occ. eigenvalues --   -0.52134  -0.51859  -0.51784  -0.51638  -0.51511
 Alpha  occ. eigenvalues --   -0.51487  -0.51301  -0.51097  -0.50797  -0.50662
 Alpha  occ. eigenvalues --   -0.50638  -0.50305  -0.50194  -0.50064  -0.50020
 Alpha  occ. eigenvalues --   -0.49651  -0.49517  -0.49486  -0.49073  -0.49070
 Alpha  occ. eigenvalues --   -0.48803  -0.48740  -0.48570  -0.48429  -0.48361
 Alpha  occ. eigenvalues --   -0.48259  -0.48093  -0.48086  -0.47940  -0.47614
 Alpha  occ. eigenvalues --   -0.47418  -0.47363  -0.47337  -0.47062  -0.46827
 Alpha  occ. eigenvalues --   -0.46435  -0.46288  -0.46287  -0.46137  -0.45873
 Alpha  occ. eigenvalues --   -0.45847  -0.45791  -0.45579  -0.45354  -0.45306
 Alpha  occ. eigenvalues --   -0.45260  -0.45084  -0.44836  -0.44597  -0.44590
 Alpha  occ. eigenvalues --   -0.44441  -0.44424  -0.44190  -0.44138  -0.44015
 Alpha  occ. eigenvalues --   -0.43933  -0.43856  -0.43696  -0.43627  -0.43573
 Alpha  occ. eigenvalues --   -0.43047  -0.42917  -0.42805  -0.42724  -0.42649
 Alpha  occ. eigenvalues --   -0.42329  -0.41999  -0.41776  -0.41183  -0.40953
 Alpha  occ. eigenvalues --   -0.40931  -0.40383  -0.39989  -0.39520  -0.39308
 Alpha  occ. eigenvalues --   -0.39229  -0.39183  -0.38664  -0.38635  -0.38503
 Alpha  occ. eigenvalues --   -0.38231  -0.37739  -0.36890  -0.36763  -0.36259
 Alpha  occ. eigenvalues --   -0.35787  -0.35757  -0.34871  -0.33697  -0.33599
 Alpha  occ. eigenvalues --   -0.33238  -0.33138  -0.33008  -0.32377  -0.32276
 Alpha  occ. eigenvalues --   -0.31865  -0.31493  -0.31096  -0.26368  -0.26345
 Alpha  occ. eigenvalues --   -0.22849  -0.22529
 Alpha virt. eigenvalues --   -0.06872  -0.06705  -0.00378   0.00178   0.02538
 Alpha virt. eigenvalues --    0.03192   0.04525   0.04556   0.04688   0.05145
 Alpha virt. eigenvalues --    0.06305   0.07137   0.07430   0.07827   0.08448

 Mulliken charges:
               1
     1  Mg   0.957087
     2  C   -0.054773
     3  C   -0.098087
     4  C   -0.052952
     5  C   -0.094210
     6  N   -0.331823
     7  C   -0.023713
     8  C   -0.115086
     9  C   -0.115622
    10  C    0.039082
    11  C    0.060816
    12  C    0.025457
    13  C   -0.134566
    14  H    0.044698
    15  N   -0.518666
    16  C    0.210588
    17  C   -0.172898
    18  C   -0.106128
    19  C    0.151646
    20  C    0.083395
    21  C    0.062135
    22  O   -0.196798
    23  C   -0.021551
    24  N   -0.326770
    25  C    0.062421
    26  C   -0.102083
    27  C   -0.070026
    28  C    0.069636
    29  C    0.021061
    30  C   -0.022433
    31  C   -0.034775
    32  N   -0.429178
    33  C    0.127751
    34  C   -0.206790
    35  C   -0.016913
    36  C    0.192824
    37  C    0.097447
    38  C    0.099108
    39  O   -0.221304
    40  C   -0.022000
    41  C    0.288707
    42  O   -0.244394
    43  O   -0.362530
    44  C    0.139851
    45  H    0.001671
    46  H   -0.029181
    47  H   -0.001513
    48  H    0.017244
    49  H    0.023724
    50  H    0.042973
    51  H    0.038746
    52  H    0.055145
    53  H    0.032757
    54  H    0.055679
    55  H    0.047901
    56  H    0.058829
    57  H    0.056117
    58  H    0.011847
    59  H    0.051609
    60  H    0.070975
    61  H    0.042109
    62  H    0.069569
    63  H    0.033535
    64  H    0.024290
    65  H    0.046181
    66  H    0.041512
    67  H    0.029703
    68  H    0.043989
    69  H    0.016368
    70  H    0.044165
    71  H    0.026312
    72  H    0.041714
    73  H    0.036842
    74  H    0.058147
    75  H    0.065680
    76  H    0.060992
    77  H    0.042421
    78  H    0.050398
    79  H    0.053905
    80  Mg   0.954278
    81  C   -0.033183
    82  C   -0.082693
    83  C   -0.079906
    84  C   -0.082984
    85  N   -0.368378
    86  C   -0.053335
    87  C   -0.004807
    88  C   -0.142428
    89  C    0.044430
    90  C    0.037117
    91  C    0.030464
    92  C   -0.102130
    93  H    0.037146
    94  N   -0.470896
    95  C    0.144855
    96  C   -0.159744
    97  C   -0.079614
    98  C    0.169634
    99  C    0.104686
   100  C    0.036050
   101  O   -0.227843
   102  C    0.002057
   103  N   -0.386314
   104  C    0.091546
   105  C   -0.126882
   106  C   -0.015448
   107  C    0.025744
   108  C    0.031724
   109  C   -0.022240
   110  C   -0.061821
   111  N   -0.378303
   112  C    0.092369
   113  C   -0.180466
   114  C   -0.010854
   115  C    0.119186
   116  C    0.073206
   117  C    0.083768
   118  O   -0.250587
   119  C   -0.041250
   120  C    0.265233
   121  O   -0.260872
   122  O   -0.368505
   123  C    0.138612
   124  H    0.004394
   125  H   -0.041989
   126  H   -0.009122
   127  H    0.025856
   128  H    0.040084
   129  H    0.049284
   130  H    0.050535
   131  H    0.040946
   132  H    0.031624
   133  H    0.017867
   134  H    0.047027
   135  H    0.071954
   136  H    0.073374
   137  H    0.022680
   138  H    0.060803
   139  H    0.076657
   140  H    0.048574
   141  H    0.056642
   142  H    0.052113
   143  H    0.031476
   144  H    0.041333
   145  H    0.036502
   146  H    0.042312
   147  H    0.044483
   148  H    0.024462
   149  H    0.051071
   150  H    0.034897
   151  H    0.047448
   152  H    0.051622
   153  H    0.071672
   154  H    0.038725
   155  H    0.074481
   156  H    0.059834
   157  H    0.067109
   158  H    0.072646
 Sum of Mulliken charges =  -0.00000

 Dipole moment (field-independent basis, Debye):
    X=              3.3591    Y=              4.8498    Z=              3.1041  Tot=              6.6663
 Quadrupole moment (field-independent basis, Debye-Ang):
   XX=           -597.9384   YY=           -453.0328   ZZ=           -510.1402
   XY=            -80.1100   XZ=            -16.5511   YZ=             16.3668

 Normal termination of Gaussian 16 at Mon Sep 20 15:36:09 2021.
