 Gaussian 16, Revision A.03,
 Gaussian 16:  ES64L-G16RevA.03 25-Dec-2016

 --------------------------------
 #p wB97XD/Def2SVP td=(nstates=5)
 --------------------------------

 --------------------------------
 TDDFT excited states in gaussian
 --------------------------------
 Symbolic Z-matrix:
 Charge =  0 Multiplicity = 1

                         Standard orientation:
 ---------------------------------------------------------------------
 Center     Atomic      Atomic             Coordinates (Angstroms)
 Number     Number       Type             X           Y           Z
 ---------------------------------------------------------------------
      1         12           0      -30.246372   -0.394681    0.009498
      2          6           0      -27.276345    1.519365   -0.277027
      3          6           0      -28.671809   -2.261761    2.367968
      4          6           0      -33.294719   -1.647140    0.845149
      5          6           0      -31.820721    1.936090   -2.015762
      6          7           0      -28.219088   -0.174332    0.983217
      7          6           0      -27.120939    0.583301    0.673145
      8          6           0      -25.930095    0.188262    1.464842
      9          6           0      -26.341596   -1.244155    2.049248
     10          6           0      -27.813156   -1.237215    1.812030
     11          6           0      -25.604053   -2.374829    1.350254
     12          6           0      -25.660661    1.313442    2.476275
     13          6           0      -24.208442    1.952701    2.494245
     14          1           0      -23.366173    2.013327    3.804059
     15          7           0      -30.947513   -1.786716    1.359014
     16          6           0      -30.091513   -2.517719    2.194427
     17          6           0      -30.866551   -3.550514    2.813780
     18          6           0      -32.240858   -3.397930    2.426972
     19          6           0      -32.192137   -2.282945    1.443622
     20          6           0      -30.206085   -4.591911    3.708025
     21          6           0      -33.446869   -4.197910    2.866092
     22          8           0      -33.154322   -5.193821    3.589317
     23          6           0      -34.953896   -3.892342    2.635201
     24          7           0      -32.314400    0.061586   -0.513101
     25          6           0      -33.385341   -0.624646   -0.056941
     26          6           0      -34.735524   -0.072978   -0.586455
     27          6           0      -34.240346    1.015661   -1.600032
     28          6           0      -32.665274    1.040151   -1.314653
     29          6           0      -35.533777   -1.198330   -1.219951
     30          6           0      -34.834325    2.379260   -1.419597
     31          6           0      -35.744321    2.800002   -2.541563
     32          7           0      -29.722045    1.228354   -1.087192
     33          6           0      -30.424286    2.095644   -1.933615
     34          6           0      -29.583330    2.922702   -2.637064
     35          6           0      -28.320503    2.709275   -2.047711
     36          6           0      -28.476686    1.733689   -1.065741
     37          6           0      -30.012387    3.723852   -3.848023
     38          6           0      -26.882703    3.074795   -2.150985
     39          8           0      -26.346225    3.820852   -2.909979
     40          6           0      -26.240233    2.336189   -0.916494
     41          6           0      -24.905574    1.790322   -1.375139
     42          8           0      -23.813383    2.282179   -1.091164
     43          8           0      -25.091284    0.607172   -2.130730
     44          6           0      -23.824506   -0.028842   -2.491274
     45          1           0      -28.123516   -3.001261    2.955739
     46          1           0      -34.282473   -2.084749    1.007900
     47          1           0      -32.274767    2.817174   -2.472608
     48          1           0      -25.068382    0.099107    0.803205
     49          1           0      -26.073866   -1.268541    3.105239
     50          1           0      -25.465306   -2.203042    0.283738
     51          1           0      -26.223643   -3.270651    1.403403
     52          1           0      -24.656124   -2.637979    1.819541
     53          1           0      -25.873559    0.909482    3.465912
     54          1           0      -26.381425    2.129798    2.429718
     55          1           0      -24.451629    2.972813    2.195908
     56          1           0      -23.623773    1.604729    1.643485
     57          1           0      -29.582616   -4.118713    4.466639
     58          1           0      -29.557087   -5.178602    3.057986
     59          1           0      -30.857843   -5.217847    4.319092
     60          1           0      -35.077699   -4.055991    1.565166
     61          1           0      -35.140471   -2.851020    2.898016
     62          1           0      -35.606490   -4.519143    3.243520
     63          1           0      -35.372343    0.359629    0.184761
     64          1           0      -34.317168    0.636155   -2.618616
     65          1           0      -35.573098   -2.018956   -0.503423
     66          1           0      -35.010961   -1.518219   -2.121874
     67          1           0      -36.525720   -0.991579   -1.619920
     68          1           0      -34.092673    3.176687   -1.373006
     69          1           0      -35.403181    2.549643   -0.505766
     70          1           0      -36.701772    3.083524   -2.106266
     71          1           0      -35.983272    1.982046   -3.221234
     72          1           0      -35.337474    3.588048   -3.176147
     73          1           0      -29.093398    3.993730   -4.369332
     74          1           0      -30.555078    4.628489   -3.574800
     75          1           0      -30.650825    3.046230   -4.414441
     76          1           0      -25.959868    3.174448   -0.277623
     77          1           0      -23.960996   -1.101741   -2.627437
     78          1           0      -23.114399    0.003648   -1.666178
     79          1           0      -23.351136    0.424350   -3.362707
     80         12           0       29.330159    0.446958    0.570681
     81          6           0       29.919638   -2.522394   -1.250127
     82          6           0       27.719733    1.735964   -2.002145
     83          6           0       29.631814    3.497169    2.080001
     84          6           0       31.992958   -0.717054    2.857551
     85          7           0       28.941449   -0.333789   -1.424244
     86          6           0       29.050484   -1.609102   -1.849654
     87          6           0       28.225677   -1.783220   -3.139983
     88          6           0       27.529325   -0.477671   -3.354406
     89          6           0       28.111310    0.413995   -2.216038
     90          6           0       27.630046    0.037794   -4.848204
     91          6           0       27.277831   -3.023331   -3.258610
     92          6           0       25.880053   -2.959231   -4.011017
     93          1           0       25.508661   -4.104430   -4.964434
     94          7           0       28.528637    2.295701    0.195495
     95          6           0       27.867363    2.629436   -0.964849
     96          6           0       27.419607    3.986978   -0.835671
     97          6           0       27.992544    4.588260    0.352052
     98          6           0       28.795655    3.472903    0.899874
     99          6           0       26.638148    4.568191   -1.943488
    100          6           0       27.791659    5.992611    0.973245
    101          8           0       28.396770    6.308425    1.944122
    102          6           0       26.667004    6.865348    0.519776
    103          7           0       30.694634    1.259751    2.212107
    104          6           0       30.450722    2.511109    2.662023
    105          6           0       31.331879    2.871700    3.900578
    106          6           0       32.065604    1.526850    4.191321
    107          6           0       31.596516    0.612978    3.032184
    108          6           0       32.292445    4.014705    3.706444
    109          6           0       31.824384    0.837252    5.579579
    110          6           0       30.557569    0.084337    5.808440
    111          7           0       30.712982   -1.221794    0.870878
    112          6           0       31.632149   -1.536895    1.830212
    113          6           0       32.114883   -2.877798    1.606585
    114          6           0       31.495673   -3.337890    0.414699
    115          6           0       30.685741   -2.267677   -0.016433
    116          6           0       33.195843   -3.591653    2.338780
    117          6           0       31.398162   -4.410776   -0.533357
    118          8           0       31.891436   -5.531350   -0.590472
    119          6           0       30.335303   -3.954655   -1.630921
    120          6           0       30.832782   -4.144498   -3.053943
    121          8           0       31.763018   -3.543182   -3.525769
    122          8           0       30.023816   -5.065380   -3.700486
    123          6           0       30.447301   -5.342924   -5.073434
    124          1           0       27.008831    2.166815   -2.710816
    125          1           0       29.634657    4.489999    2.534091
    126          1           0       32.701758   -1.106769    3.591028
    127          1           0       29.051440   -1.970686   -3.826346
    128          1           0       26.461534   -0.651590   -3.218641
    129          1           0       28.077223   -0.738418   -5.468980
    130          1           0       28.123262    1.009571   -4.827911
    131          1           0       26.642695    0.136633   -5.299662
    132          1           0       27.051915   -3.338253   -2.239547
    133          1           0       27.787567   -3.883768   -3.692896
    134          1           0       25.913346   -2.016664   -4.557789
    135          1           0       25.084326   -2.869319   -3.271437
    136          1           0       26.955915    5.608520   -2.009329
    137          1           0       25.593596    4.559844   -1.634391
    138          1           0       26.661646    4.148871   -2.949467
    139          1           0       27.137444    7.457017   -0.264449
    140          1           0       26.256067    7.392138    1.381552
    141          1           0       25.855258    6.346333    0.009601
    142          1           0       30.728559    3.039384    4.792985
    143          1           0       33.145340    1.462884    4.060186
    144          1           0       32.089392    4.553515    2.780031
    145          1           0       33.325495    3.675975    3.623545
    146          1           0       32.146493    4.666750    4.567268
    147          1           0       31.889215    1.581223    6.373633
    148          1           0       32.705235    0.235545    5.804659
    149          1           0       29.788193    0.442360    5.124077
    150          1           0       30.034745    0.137757    6.763635
    151          1           0       30.831389   -0.964599    5.690687
    152          1           0       34.167011   -3.098050    2.317350
    153          1           0       33.446086   -4.449412    1.713998
    154          1           0       32.893495   -3.854821    3.352779
    155          1           0       29.450586   -4.566723   -1.454416
    156          1           0       29.551604   -4.851761   -5.452416
    157          1           0       30.411725   -6.430632   -5.129730
    158          1           0       31.402415   -4.884161   -5.330063
 ---------------------------------------------------------------------

 SCF Done:  E(RwB97XD) =  -4070.59369316     A.U. after   20 cycles

 Excitation energies and oscillator strengths:

 Excited State   1:      Singlet-A      1.6248 eV  763.06 nm  f=0.3557  <S**2>=0.000
     309 -> 315        0.17974
     311 -> 313        0.68477
     309 <- 315        0.11750
 This state for optimization and/or second-order correction.
 Total Energy, E(TD-HF/TD-DFT) =  -4070.53398218
 Copying the excited state density for this state as the 1-particle RhoCI density.

 Excited State   2:      Singlet-A      1.6417 eV  755.22 nm  f=0.3890  <S**2>=0.000
     310 -> 316        0.19306
     312 -> 314        0.68162
     310 <- 316        0.12003

 Excited State   3:      Singlet-A      2.1319 eV  581.56 nm  f=0.1061  <S**2>=0.000
     310 -> 314        0.64029
     312 -> 316       -0.28528

 Excited State   4:      Singlet-A      2.1634 eV  573.10 nm  f=0.1554  <S**2>=0.000
     309 -> 313        0.64647
     311 -> 315       -0.27022

 Excited State   5:      Singlet-A      3.2312 eV  383.71 nm  f=0.0021  <S**2>=0.000
     305 -> 313        0.25084
     305 -> 317       -0.10061
     307 -> 313        0.63468

 The electronic state is 1-A.
 Alpha  occ. eigenvalues --  -46.96323 -46.95401 -19.30893 -19.29972 -19.26000
 Alpha  occ. eigenvalues --  -19.24944 -19.24914 -19.24590 -19.23669 -19.23394
 Alpha  occ. eigenvalues --  -14.47019 -14.46854 -14.46787 -14.46366 -14.44730
 Alpha  occ. eigenvalues --  -14.44098 -14.43646 -14.43381 -10.44283 -10.42955
 Alpha  occ. eigenvalues --  -10.39707 -10.39679 -10.39524 -10.38804 -10.36093
 Alpha  occ. eigenvalues --  -10.35669 -10.35438 -10.35153 -10.35134 -10.34983
 Alpha  occ. eigenvalues --  -10.34958 -10.34918 -10.34769 -10.34743 -10.34734
 Alpha  occ. eigenvalues --  -10.34585 -10.34341 -10.33599 -10.33473 -10.33096
 Alpha  occ. eigenvalues --  -10.33020 -10.32900 -10.32820 -10.32741 -10.32622
 Alpha  occ. eigenvalues --  -10.32613 -10.32546 -10.32473 -10.32461 -10.32400
 Alpha  occ. eigenvalues --  -10.32309 -10.32303 -10.32073 -10.32066 -10.32059
 Alpha  occ. eigenvalues --  -10.31891 -10.31868 -10.31687 -10.31661 -10.31597
 Alpha  occ. eigenvalues --  -10.31426 -10.31392 -10.31306 -10.31286 -10.31119
 Alpha  occ. eigenvalues --  -10.30962 -10.30956 -10.30844 -10.30749 -10.30743
 Alpha  occ. eigenvalues --  -10.30493 -10.30437 -10.30424 -10.30409 -10.30404
 Alpha  occ. eigenvalues --  -10.30247 -10.30210 -10.30040 -10.29902 -10.29349
 Alpha  occ. eigenvalues --  -10.29256 -10.29165 -10.29034 -10.28937 -10.28903
 Alpha  occ. eigenvalues --  -10.28764  -3.22117  -3.21406  -1.95670  -1.95240
 Alpha  occ. eigenvalues --   -1.95067  -1.94974  -1.94534  -1.94381  -1.18446
 Alpha  occ. eigenvalues --   -1.17788  -1.15117  -1.14313  -1.11431  -1.10732
 Alpha  occ. eigenvalues --   -1.10205  -1.09886  -1.07291  -1.06329  -1.06206
 Alpha  occ. eigenvalues --   -1.05429  -1.05124  -1.04840  -1.04505  -1.03862
 Alpha  occ. eigenvalues --   -0.95323  -0.93563  -0.91811  -0.91293  -0.91150
 Alpha  occ. eigenvalues --   -0.90985  -0.90727  -0.90179  -0.89831  -0.89295
 Alpha  occ. eigenvalues --   -0.89104  -0.89001  -0.88023  -0.87943  -0.86808
 Alpha  occ. eigenvalues --   -0.86238  -0.85869  -0.85584  -0.84601  -0.84441
 Alpha  occ. eigenvalues --   -0.83899  -0.83893  -0.82771  -0.82697  -0.82487
 Alpha  occ. eigenvalues --   -0.82354  -0.80254  -0.79807  -0.79412  -0.79049
 Alpha  occ. eigenvalues --   -0.79001  -0.78861  -0.78459  -0.77794  -0.77498
 Alpha  occ. eigenvalues --   -0.76588  -0.75557  -0.74308  -0.74247  -0.73420
 Alpha  occ. eigenvalues --   -0.71716  -0.71412  -0.71179  -0.70954  -0.70199
 Alpha  occ. eigenvalues --   -0.69700  -0.69289  -0.68923  -0.68277  -0.67709
 Alpha  occ. eigenvalues --   -0.67415  -0.66981  -0.66918  -0.66219  -0.66077
 Alpha  occ. eigenvalues --   -0.65994  -0.65149  -0.63676  -0.62563  -0.62102
 Alpha  occ. eigenvalues --   -0.62033  -0.61642  -0.61497  -0.61003  -0.60792
 Alpha  occ. eigenvalues --   -0.60306  -0.60121  -0.59967  -0.59376  -0.58859
 Alpha  occ. eigenvalues --   -0.58265  -0.58037  -0.57835  -0.57824  -0.57666
 Alpha  occ. eigenvalues --   -0.57321  -0.56980  -0.56891  -0.56517  -0.56353
 Alpha  occ. eigenvalues --   -0.55986  -0.55871  -0.55662  -0.55557  -0.55284
 Alpha  occ. eigenvalues --   -0.55204  -0.54699  -0.54669  -0.54282  -0.54276
 Alpha  occ. eigenvalues --   -0.54042  -0.53709  -0.53664  -0.53130  -0.53084
 Alpha  occ. eigenvalues --   -0.52865  -0.52855  -0.52749  -0.52507  -0.52505
 Alpha  occ. eigenvalues --   -0.52282  -0.52223  -0.52033  -0.51942  -0.51865
 Alpha  occ. eigenvalues --   -0.51639  -0.51419  -0.51096  -0.50924  -0.50889
 Alpha  occ. eigenvalues --   -0.50655  -0.50600  -0.50510  -0.50302  -0.50282
 Alpha  occ. eigenvalues --   -0.49970  -0.49706  -0.49635  -0.49197  -0.49166
 Alpha  occ. eigenvalues --   -0.49060  -0.48879  -0.48716  -0.48588  -0.48461
 Alpha  occ. eigenvalues --   -0.47991  -0.47956  -0.47870  -0.47743  -0.47726
 Alpha  occ. eigenvalues --   -0.47474  -0.47451  -0.47359  -0.47289  -0.47165
 Alpha  occ. eigenvalues --   -0.46854  -0.46546  -0.46499  -0.46237  -0.46023
 Alpha  occ. eigenvalues --   -0.45995  -0.45924  -0.45690  -0.45634  -0.45560
 Alpha  occ. eigenvalues --   -0.45237  -0.45210  -0.44968  -0.44896  -0.44664
 Alpha  occ. eigenvalues --   -0.44508  -0.44459  -0.44409  -0.44357  -0.44321
 Alpha  occ. eigenvalues --   -0.44017  -0.43954  -0.43759  -0.43691  -0.43510
 Alpha  occ. eigenvalues --   -0.43446  -0.43407  -0.43073  -0.42796  -0.42472
 Alpha  occ. eigenvalues --   -0.42073  -0.42011  -0.41090  -0.41000  -0.40833
 Alpha  occ. eigenvalues --   -0.40716  -0.40189  -0.40030  -0.39834  -0.39783
 Alpha  occ. eigenvalues --   -0.39534  -0.39325  -0.39307  -0.38988  -0.38410
 Alpha  occ. eigenvalues --   -0.37908  -0.37656  -0.37416  -0.36718  -0.36587
 Alpha  occ. eigenvalues --   -0.35551  -0.35514  -0.35362  -0.34017  -0.33743
 Alpha  occ. eigenvalues --   -0.33154  -0.33022  -0.32620  -0.32585  -0.32201
 Alpha  occ. eigenvalues --   -0.32005  -0.31991  -0.31497  -0.26359  -0.25728
 Alpha  occ. eigenvalues --   -0.23497  -0.22841
 Alpha virt. eigenvalues --   -0.07728  -0.06990   0.00044   0.00303   0.02282
 Alpha virt. eigenvalues --    0.02479   0.04258   0.04401   0.04647   0.04965
 Alpha virt. eigenvalues --    0.06240   0.07019   0.07406   0.07806   0.08121

 Mulliken charges:
               1
     1  Mg   0.972209
     2  C    0.037706
     3  C   -0.077570
     4  C   -0.047403
     5  C   -0.093054
     6  N   -0.359309
     7  C   -0.051862
     8  C   -0.053977
     9  C   -0.081796
    10  C    0.068419
    11  C    0.030572
    12  C    0.005116
    13  C   -0.116284
    14  H    0.047934
    15  N   -0.473495
    16  C    0.150672
    17  C   -0.148718
    18  C   -0.063188
    19  C    0.180335
    20  C    0.070535
    21  C    0.021584
    22  O   -0.276252
    23  C    0.023647
    24  N   -0.303522
    25  C    0.005228
    26  C   -0.045732
    27  C   -0.064926
    28  C    0.055506
    29  C    0.009316
    30  C   -0.003000
    31  C   -0.061510
    32  N   -0.466696
    33  C    0.108583
    34  C   -0.190742
    35  C   -0.079749
    36  C    0.147893
    37  C    0.086705
    38  C    0.122382
    39  O   -0.159460
    40  C   -0.057476
    41  C    0.245520
    42  O   -0.241457
    43  O   -0.390694
    44  C    0.140131
    45  H    0.005742
    46  H   -0.060468
    47  H    0.006960
    48  H    0.035213
    49  H    0.038492
    50  H    0.038022
    51  H    0.024526
    52  H    0.047529
    53  H    0.031358
    54  H    0.047675
    55  H    0.050621
    56  H    0.054825
    57  H    0.034269
    58  H    0.046788
    59  H    0.065071
    60  H    0.062884
    61  H    0.064255
    62  H    0.063555
    63  H    0.043494
    64  H    0.043091
    65  H    0.033501
    66  H    0.024399
    67  H    0.040215
    68  H    0.031012
    69  H    0.026675
    70  H    0.031361
    71  H    0.020877
    72  H    0.039956
    73  H    0.062292
    74  H    0.052058
    75  H    0.046485
    76  H    0.069825
    77  H    0.047270
    78  H    0.043938
    79  H    0.064116
    80  Mg   0.948408
    81  C   -0.025541
    82  C   -0.065342
    83  C   -0.063801
    84  C   -0.102319
    85  N   -0.370951
    86  C   -0.015802
    87  C   -0.028326
    88  C   -0.134479
    89  C    0.098486
    90  C    0.020627
    91  C   -0.030164
    92  C   -0.123661
    93  H    0.053528
    94  N   -0.508229
    95  C    0.144428
    96  C   -0.142132
    97  C   -0.082475
    98  C    0.112891
    99  C    0.033192
   100  C    0.056551
   101  O   -0.199127
   102  C   -0.018038
   103  N   -0.306629
   104  C    0.065577
   105  C   -0.068790
   106  C   -0.047994
   107  C    0.007229
   108  C    0.036417
   109  C   -0.047568
   110  C   -0.031034
   111  N   -0.393479
   112  C    0.166352
   113  C   -0.184905
   114  C   -0.031408
   115  C    0.105793
   116  C    0.061931
   117  C    0.130837
   118  O   -0.210247
   119  C   -0.060492
   120  C    0.252614
   121  O   -0.228670
   122  O   -0.379394
   123  C    0.117896
   124  H   -0.017320
   125  H    0.026222
   126  H   -0.005182
   127  H    0.048801
   128  H    0.042199
   129  H    0.042693
   130  H    0.050115
   131  H    0.032132
   132  H    0.030222
   133  H    0.046399
   134  H    0.034905
   135  H    0.055842
   136  H    0.037141
   137  H    0.055354
   138  H    0.058273
   139  H    0.064566
   140  H    0.073690
   141  H    0.037400
   142  H    0.039939
   143  H    0.035217
   144  H    0.044170
   145  H    0.034851
   146  H    0.041325
   147  H    0.023716
   148  H    0.022406
   149  H    0.035747
   150  H    0.033342
   151  H    0.037183
   152  H    0.045451
   153  H    0.051358
   154  H    0.052631
   155  H    0.070881
   156  H    0.051492
   157  H    0.068778
   158  H    0.086300
 Sum of Mulliken charges =  -0.00000

 Dipole moment (field-independent basis, Debye):
    X=             -8.1802    Y=              0.9103    Z=             -1.1607  Tot=              8.3122
 Quadrupole moment (field-independent basis, Debye-Ang):
   XX=           -564.8360   YY=           -556.6714   ZZ=           -491.4381
   XY=            100.6653   XZ=             57.8688   YZ=             13.8846

 Normal termination of Gaussian 16 at Sun Sep 19 18:42:30 2021.
