 Gaussian 16, Revision A.03,
 Gaussian 16:  ES64L-G16RevA.03 25-Dec-2016

 --------------------------------
 #p wB97XD/Def2SVP td=(nstates=5)
 --------------------------------

 --------------------------------
 TDDFT excited states in gaussian
 --------------------------------
 Symbolic Z-matrix:
 Charge =  0 Multiplicity = 1

                         Standard orientation:
 ---------------------------------------------------------------------
 Center     Atomic      Atomic             Coordinates (Angstroms)
 Number     Number       Type             X           Y           Z
 ---------------------------------------------------------------------
      1         12           0      -29.869589   -0.224139    0.119180
      2          6           0      -26.539875    0.067088   -0.919795
      3          6           0      -28.614465   -1.802751    2.928686
      4          6           0      -32.968580   -0.239855    1.359344
      5          6           0      -30.811522    2.092726   -2.323213
      6          7           0      -27.644138   -0.629144    0.997397
      7          6           0      -26.489408   -0.521378    0.312665
      8          6           0      -25.283240   -1.002698    1.082806
      9          6           0      -26.077080   -1.845087    2.152727
     10          6           0      -27.534432   -1.398304    2.099391
     11          6           0      -26.012927   -3.353470    1.792921
     12          6           0      -24.397628    0.169592    1.523719
     13          6           0      -25.047240    1.476238    2.024881
     14          1           0      -24.502279    2.031633    3.335391
     15          7           0      -30.677891   -0.921079    1.864367
     16          6           0      -30.003947   -1.638390    2.816933
     17          6           0      -30.976709   -2.379710    3.630138
     18          6           0      -32.283368   -1.831911    3.311680
     19          6           0      -31.997400   -0.969704    2.124562
     20          6           0      -30.557247   -3.272893    4.859763
     21          6           0      -33.599276   -2.107903    4.043312
     22          8           0      -33.657829   -2.945790    4.899626
     23          6           0      -34.843451   -1.360244    3.659243
     24          7           0      -31.608741    1.000734   -0.328686
     25          6           0      -32.859611    0.735073    0.258760
     26          6           0      -34.034827    1.596676   -0.370367
     27          6           0      -33.286048    2.289672   -1.606360
     28          6           0      -31.798342    1.731130   -1.446082
     29          6           0      -35.431205    0.900978   -0.767787
     30          6           0      -33.360980    3.880789   -1.714608
     31          6           0      -33.386106    4.342167   -3.254901
     32          7           0      -28.930181    0.860459   -1.400233
     33          6           0      -29.463725    1.689504   -2.365949
     34          6           0      -28.411961    2.075225   -3.298841
     35          6           0      -27.225916    1.434051   -2.857086
     36          6           0      -27.581482    0.758791   -1.634082
     37          6           0      -28.588678    2.839931   -4.584483
     38          6           0      -25.749053    1.233389   -3.019661
     39          8           0      -24.971094    1.742955   -3.795047
     40          6           0      -25.320418    0.307875   -1.802862
     41          6           0      -24.775607   -0.960442   -2.400033
     42          8           0      -23.632947   -1.061235   -2.912840
     43          8           0      -25.657780   -2.004007   -2.160225
     44          6           0      -25.166185   -3.305496   -2.467593
     45          1           0      -28.230062   -2.381665    3.771134
     46          1           0      -34.040707   -0.330202    1.547203
     47          1           0      -31.158371    2.653057   -3.194094
     48          1           0      -24.705950   -1.731727    0.514476
     49          1           0      -25.765984   -1.770481    3.193841
     50          1           0      -26.963888   -3.776527    2.117553
     51          1           0      -25.121114   -3.811018    2.218862
     52          1           0      -26.033858   -3.651225    0.744116
     53          1           0      -23.858229    0.479883    0.629336
     54          1           0      -23.697369   -0.199719    2.273047
     55          1           0      -26.106488    1.295665    2.206210
     56          1           0      -24.869742    2.249254    1.277745
     57          1           0      -30.294583   -2.721735    5.763130
     58          1           0      -29.720332   -3.911421    4.576800
     59          1           0      -31.277136   -4.029629    5.169421
     60          1           0      -35.660938   -1.542264    4.357635
     61          1           0      -35.196324   -1.600562    2.656134
     62          1           0      -34.541831   -0.326838    3.832169
     63          1           0      -34.189299    2.303742    0.443810
     64          1           0      -33.649831    1.894506   -2.554398
     65          1           0      -36.078033    0.961567    0.106677
     66          1           0      -35.289112   -0.135415   -1.072804
     67          1           0      -35.851424    1.435962   -1.619684
     68          1           0      -32.444947    4.341883   -1.345489
     69          1           0      -34.202749    4.274386   -1.144328
     70          1           0      -32.520712    4.961420   -3.491300
     71          1           0      -34.288327    4.923272   -3.443476
     72          1           0      -33.292897    3.587306   -4.034909
     73          1           0      -29.026285    3.809530   -4.349251
     74          1           0      -29.272250    2.299748   -5.239840
     75          1           0      -27.640578    3.034485   -5.085570
     76          1           0      -24.463372    0.825420   -1.372484
     77          1           0      -25.897972   -4.048701   -2.151826
     78          1           0      -24.159539   -3.450646   -2.075169
     79          1           0      -25.129480   -3.485844   -3.541910
     80         12           0       29.297155    0.735582    0.535136
     81          6           0       29.588552   -2.629966   -0.888091
     82          6           0       26.954030    1.371156   -1.991076
     83          6           0       29.240312    3.844693    1.513797
     84          6           0       31.474702   -0.167611    3.026011
     85          7           0       28.545166   -0.401616   -1.331653
     86          6           0       28.688772   -1.814503   -1.660332
     87          6           0       27.911700   -2.242188   -2.923843
     88          6           0       27.247137   -0.800534   -3.324456
     89          6           0       27.591779    0.160266   -2.169619
     90          6           0       27.684778   -0.280852   -4.680078
     91          6           0       26.939108   -3.416174   -2.599270
     92          6           0       25.922949   -3.720007   -3.658794
     93          1           0       25.642194   -5.156419   -4.040326
     94          7           0       28.256209    2.433180   -0.147419
     95          6           0       27.328560    2.503629   -1.192929
     96          6           0       26.793961    3.860925   -1.285868
     97          6           0       27.456313    4.627133   -0.241287
     98          6           0       28.380076    3.658872    0.457451
     99          6           0       25.656621    4.316548   -2.271948
    100          6           0       27.375755    6.065277    0.125103
    101          8           0       27.970861    6.585797    1.059263
    102          6           0       26.440601    6.955237   -0.583295
    103          7           0       30.124284    1.657166    2.061426
    104          6           0       30.067903    2.981665    2.212497
    105          6           0       30.867560    3.477587    3.440068
    106          6           0       31.180869    2.166304    4.130296
    107          6           0       30.976866    1.114262    2.972187
    108          6           0       32.115643    4.268789    3.066145
    109          6           0       30.474808    1.710066    5.380796
    110          6           0       28.990097    1.472045    5.206137
    111          7           0       30.410820   -0.973061    0.957085
    112          6           0       31.194831   -1.211426    2.100309
    113          6           0       31.717844   -2.553844    2.035279
    114          6           0       31.027422   -3.098935    0.922286
    115          6           0       30.254946   -2.110976    0.282395
    116          6           0       32.592715   -3.267973    3.023797
    117          6           0       30.841103   -4.401764    0.211629
    118          8           0       31.238831   -5.552260    0.493962
    119          6           0       29.936558   -4.095985   -0.980102
    120          6           0       30.618504   -4.528626   -2.279750
    121          8           0       31.678142   -4.103944   -2.828103
    122          8           0       29.781028   -5.415598   -2.889074
    123          6           0       30.216298   -5.901316   -4.218162
    124          1           0       26.087622    1.500712   -2.641505
    125          1           0       29.285638    4.892380    1.818190
    126          1           0       32.191864   -0.516829    3.771940
    127          1           0       28.667301   -2.650523   -3.594920
    128          1           0       26.162581   -0.881985   -3.252029
    129          1           0       26.798305   -0.143167   -5.299858
    130          1           0       28.311277   -1.057589   -5.117136
    131          1           0       28.419683    0.523638   -4.698651
    132          1           0       26.540083   -3.196859   -1.608319
    133          1           0       27.528884   -4.319991   -2.445874
    134          1           0       26.108030   -3.314190   -4.653092
    135          1           0       24.941260   -3.395335   -3.315066
    136          1           0       24.837338    4.625872   -1.622307
    137          1           0       25.302448    3.518861   -2.924732
    138          1           0       26.068761    5.147224   -2.844993
    139          1           0       26.435266    6.818579   -1.664879
    140          1           0       26.808060    7.952215   -0.342723
    141          1           0       25.459751    6.607227   -0.260810
    142          1           0       30.204884    4.131128    4.007495
    143          1           0       32.216238    2.118826    4.468896
    144          1           0       32.207416    5.111070    3.750914
    145          1           0       32.048572    4.655242    2.049719
    146          1           0       33.010367    3.680127    3.271915
    147          1           0       30.710935    2.419034    6.174815
    148          1           0       30.805713    0.713961    5.674228
    149          1           0       28.407558    1.915635    6.012755
    150          1           0       28.725674    0.414971    5.241866
    151          1           0       28.574118    1.882791    4.286079
    152          1           0       32.134941   -4.218472    3.296734
    153          1           0       32.866396   -2.797073    3.967934
    154          1           0       33.537450   -3.470346    2.518764
    155          1           0       29.049058   -4.724428   -0.900611
    156          1           0       29.681462   -5.362420   -4.999962
    157          1           0       29.981555   -6.958220   -4.091786
    158          1           0       31.299757   -5.868467   -4.339759
 ---------------------------------------------------------------------

 SCF Done:  E(RwB97XD) =  -4070.61700336     A.U. after   20 cycles

 Excitation energies and oscillator strengths:

 Excited State   1:      Singlet-A      1.6110 eV  769.61 nm  f=0.3981  <S**2>=0.000
     309 -> 316        0.17050
     311 -> 313        0.68653
     309 <- 316        0.11383
 This state for optimization and/or second-order correction.
 Total Energy, E(TD-HF/TD-DFT) =  -4070.55780039
 Copying the excited state density for this state as the 1-particle RhoCI density.

 Excited State   2:      Singlet-A      1.6941 eV  731.88 nm  f=0.3575  <S**2>=0.000
     310 -> 315        0.19919
     312 -> 314        0.67863
     310 <- 315        0.11862

 Excited State   3:      Singlet-A      2.1163 eV  585.86 nm  f=0.1337  <S**2>=0.000
     309 -> 313        0.64977
     311 -> 316       -0.25754

 Excited State   4:      Singlet-A      2.1842 eV  567.65 nm  f=0.1018  <S**2>=0.000
     310 -> 314        0.63342
     312 -> 315       -0.30081

 Excited State   5:      Singlet-A      3.2647 eV  379.78 nm  f=0.0056  <S**2>=0.000
     305 -> 313       -0.31885
     308 -> 313        0.60940

 The electronic state is 1-A.
 Alpha  occ. eigenvalues --  -46.96756 -46.94094 -19.31265 -19.30970 -19.25005
 Alpha  occ. eigenvalues --  -19.24595 -19.24587 -19.24091 -19.23843 -19.23480
 Alpha  occ. eigenvalues --  -14.47134 -14.46859 -14.46765 -14.46430 -14.45147
 Alpha  occ. eigenvalues --  -14.44604 -14.44061 -14.43418 -10.43867 -10.43811
 Alpha  occ. eigenvalues --  -10.39825 -10.39303 -10.38728 -10.38633 -10.36972
 Alpha  occ. eigenvalues --  -10.36003 -10.35967 -10.35723 -10.35632 -10.35565
 Alpha  occ. eigenvalues --  -10.35506 -10.35200 -10.35144 -10.34976 -10.34791
 Alpha  occ. eigenvalues --  -10.34734 -10.34586 -10.34576 -10.34214 -10.33973
 Alpha  occ. eigenvalues --  -10.33816 -10.33574 -10.33267 -10.33203 -10.33035
 Alpha  occ. eigenvalues --  -10.33021 -10.32982 -10.32900 -10.32868 -10.32611
 Alpha  occ. eigenvalues --  -10.32607 -10.32588 -10.32583 -10.32520 -10.32501
 Alpha  occ. eigenvalues --  -10.32465 -10.32437 -10.32182 -10.32159 -10.32054
 Alpha  occ. eigenvalues --  -10.31922 -10.31832 -10.31748 -10.31641 -10.31605
 Alpha  occ. eigenvalues --  -10.31553 -10.31409 -10.30998 -10.30982 -10.30835
 Alpha  occ. eigenvalues --  -10.30777 -10.30346 -10.30296 -10.30168 -10.30132
 Alpha  occ. eigenvalues --  -10.30132 -10.30130 -10.29949 -10.29802 -10.29788
 Alpha  occ. eigenvalues --  -10.29782 -10.29724 -10.29546 -10.29477 -10.28687
 Alpha  occ. eigenvalues --  -10.28353  -3.22601  -3.20250  -1.96144  -1.95734
 Alpha  occ. eigenvalues --   -1.95552  -1.93850  -1.93388  -1.93228  -1.18647
 Alpha  occ. eigenvalues --   -1.18168  -1.13766  -1.12901  -1.12640  -1.09982
 Alpha  occ. eigenvalues --   -1.09266  -1.07938  -1.07044  -1.06814  -1.05978
 Alpha  occ. eigenvalues --   -1.04968  -1.04796  -1.04346  -1.03923  -1.02603
 Alpha  occ. eigenvalues --   -0.94483  -0.94240  -0.91542  -0.90912  -0.90811
 Alpha  occ. eigenvalues --   -0.90548  -0.90315  -0.89604  -0.89280  -0.89254
 Alpha  occ. eigenvalues --   -0.88985  -0.87996  -0.87785  -0.87685  -0.86778
 Alpha  occ. eigenvalues --   -0.86666  -0.85919  -0.85265  -0.84851  -0.84631
 Alpha  occ. eigenvalues --   -0.84269  -0.83822  -0.83357  -0.82769  -0.82360
 Alpha  occ. eigenvalues --   -0.82033  -0.80517  -0.79512  -0.79239  -0.79177
 Alpha  occ. eigenvalues --   -0.78698  -0.78650  -0.78340  -0.77878  -0.77439
 Alpha  occ. eigenvalues --   -0.77298  -0.74809  -0.74725  -0.74057  -0.73909
 Alpha  occ. eigenvalues --   -0.72202  -0.71877  -0.71396  -0.71352  -0.70240
 Alpha  occ. eigenvalues --   -0.69616  -0.69223  -0.69157  -0.67843  -0.67032
 Alpha  occ. eigenvalues --   -0.66870  -0.66861  -0.66651  -0.66638  -0.66266
 Alpha  occ. eigenvalues --   -0.65795  -0.65710  -0.63905  -0.62239  -0.62096
 Alpha  occ. eigenvalues --   -0.61286  -0.61138  -0.61069  -0.60959  -0.60282
 Alpha  occ. eigenvalues --   -0.60172  -0.59732  -0.59662  -0.59380  -0.59353
 Alpha  occ. eigenvalues --   -0.58291  -0.58283  -0.58038  -0.57859  -0.57495
 Alpha  occ. eigenvalues --   -0.57450  -0.57210  -0.57022  -0.56705  -0.56228
 Alpha  occ. eigenvalues --   -0.56222  -0.55671  -0.55422  -0.55155  -0.55034
 Alpha  occ. eigenvalues --   -0.55030  -0.54779  -0.54693  -0.54389  -0.54081
 Alpha  occ. eigenvalues --   -0.53867  -0.53640  -0.53370  -0.53069  -0.53046
 Alpha  occ. eigenvalues --   -0.52788  -0.52693  -0.52663  -0.52495  -0.52286
 Alpha  occ. eigenvalues --   -0.52091  -0.52028  -0.51923  -0.51697  -0.51686
 Alpha  occ. eigenvalues --   -0.51515  -0.51515  -0.50903  -0.50739  -0.50714
 Alpha  occ. eigenvalues --   -0.50611  -0.50531  -0.50412  -0.50315  -0.50022
 Alpha  occ. eigenvalues --   -0.49654  -0.49531  -0.49525  -0.49287  -0.49191
 Alpha  occ. eigenvalues --   -0.48913  -0.48899  -0.48686  -0.48646  -0.48425
 Alpha  occ. eigenvalues --   -0.48276  -0.48080  -0.48023  -0.47921  -0.47639
 Alpha  occ. eigenvalues --   -0.47577  -0.47470  -0.47373  -0.47265  -0.47131
 Alpha  occ. eigenvalues --   -0.46847  -0.46816  -0.46463  -0.46259  -0.46195
 Alpha  occ. eigenvalues --   -0.46098  -0.45913  -0.45845  -0.45827  -0.45618
 Alpha  occ. eigenvalues --   -0.45407  -0.45372  -0.45249  -0.45146  -0.44948
 Alpha  occ. eigenvalues --   -0.44717  -0.44589  -0.44453  -0.44260  -0.44186
 Alpha  occ. eigenvalues --   -0.44115  -0.43944  -0.43835  -0.43714  -0.43650
 Alpha  occ. eigenvalues --   -0.43219  -0.43142  -0.42815  -0.42388  -0.42280
 Alpha  occ. eigenvalues --   -0.41867  -0.41838  -0.41143  -0.41023  -0.40988
 Alpha  occ. eigenvalues --   -0.40871  -0.40785  -0.40095  -0.39369  -0.39300
 Alpha  occ. eigenvalues --   -0.39248  -0.39131  -0.38809  -0.38781  -0.38467
 Alpha  occ. eigenvalues --   -0.38263  -0.38098  -0.36693  -0.36421  -0.36292
 Alpha  occ. eigenvalues --   -0.36051  -0.35404  -0.35289  -0.33716  -0.33575
 Alpha  occ. eigenvalues --   -0.33248  -0.33242  -0.32945  -0.32832  -0.32578
 Alpha  occ. eigenvalues --   -0.32282  -0.31876  -0.31282  -0.26170  -0.25974
 Alpha  occ. eigenvalues --   -0.23272  -0.23231
 Alpha virt. eigenvalues --   -0.07641  -0.07004  -0.00193   0.00266   0.02166
 Alpha virt. eigenvalues --    0.02382   0.03910   0.04129   0.04309   0.06266
 Alpha virt. eigenvalues --    0.06641   0.06695   0.07705   0.07884   0.08622

 Mulliken charges:
               1
     1  Mg   0.954696
     2  C    0.126712
     3  C   -0.086916
     4  C   -0.102797
     5  C   -0.086852
     6  N   -0.280321
     7  C   -0.106033
     8  C    0.024610
     9  C   -0.115352
    10  C    0.019713
    11  C    0.018001
    12  C    0.021185
    13  C   -0.133153
    14  H    0.032702
    15  N   -0.458894
    16  C    0.175561
    17  C   -0.148326
    18  C   -0.100011
    19  C    0.211746
    20  C    0.047886
    21  C    0.038192
    22  O   -0.200595
    23  C   -0.012837
    24  N   -0.368105
    25  C    0.007584
    26  C   -0.062960
    27  C   -0.084149
    28  C    0.069798
    29  C    0.005018
    30  C   -0.009870
    31  C   -0.094211
    32  N   -0.439697
    33  C    0.138948
    34  C   -0.213561
    35  C   -0.016267
    36  C    0.078916
    37  C    0.071694
    38  C    0.139953
    39  O   -0.173453
    40  C   -0.211040
    41  C    0.295905
    42  O   -0.266952
    43  O   -0.352060
    44  C    0.141289
    45  H    0.007230
    46  H   -0.025080
    47  H   -0.020835
    48  H    0.029479
    49  H    0.028325
    50  H    0.024571
    51  H    0.050162
    52  H    0.027461
    53  H    0.036945
    54  H    0.046175
    55  H    0.070692
    56  H    0.060463
    57  H    0.063278
    58  H    0.025798
    59  H    0.056087
    60  H    0.047006
    61  H    0.080156
    62  H    0.053740
    63  H    0.053706
    64  H    0.040270
    65  H    0.049447
    66  H    0.047511
    67  H    0.050487
    68  H    0.049740
    69  H    0.043994
    70  H    0.038455
    71  H    0.044477
    72  H    0.040093
    73  H    0.037448
    74  H    0.051963
    75  H    0.058867
    76  H    0.085101
    77  H    0.049536
    78  H    0.054951
    79  H    0.046605
    80  Mg   0.974873
    81  C   -0.025688
    82  C   -0.091632
    83  C   -0.091498
    84  C   -0.077733
    85  N   -0.366113
    86  C   -0.005834
    87  C   -0.064766
    88  C   -0.111849
    89  C    0.088813
    90  C    0.051893
    91  C   -0.006004
    92  C   -0.128119
    93  H    0.029143
    94  N   -0.467462
    95  C    0.163206
    96  C   -0.170438
    97  C   -0.057349
    98  C    0.152433
    99  C    0.067316
   100  C    0.021994
   101  O   -0.243504
   102  C    0.001912
   103  N   -0.422439
   104  C    0.103908
   105  C   -0.088048
   106  C   -0.066244
   107  C    0.109902
   108  C    0.042975
   109  C    0.010285
   110  C   -0.067774
   111  N   -0.449638
   112  C    0.078929
   113  C   -0.151470
   114  C   -0.101727
   115  C    0.167082
   116  C    0.064790
   117  C    0.158579
   118  O   -0.236426
   119  C   -0.063505
   120  C    0.279033
   121  O   -0.286790
   122  O   -0.366310
   123  C    0.125349
   124  H   -0.007256
   125  H    0.021595
   126  H    0.001309
   127  H    0.051998
   128  H    0.035114
   129  H    0.045609
   130  H    0.021894
   131  H    0.048109
   132  H    0.034834
   133  H    0.058214
   134  H    0.052521
   135  H    0.055244
   136  H    0.061419
   137  H    0.044207
   138  H    0.067017
   139  H    0.027195
   140  H    0.066567
   141  H    0.059756
   142  H    0.041422
   143  H    0.013859
   144  H    0.035648
   145  H    0.048284
   146  H    0.036541
   147  H    0.035152
   148  H    0.029055
   149  H    0.029066
   150  H    0.034945
   151  H    0.040785
   152  H    0.061480
   153  H    0.026459
   154  H    0.055482
   155  H    0.079580
   156  H    0.065872
   157  H    0.060828
   158  H    0.076148
 Sum of Mulliken charges =  -0.00000

 Dipole moment (field-independent basis, Debye):
    X=             -9.6483    Y=              1.3914    Z=             -1.2555  Tot=              9.8286
 Quadrupole moment (field-independent basis, Debye-Ang):
   XX=           -474.5812   YY=           -528.2440   ZZ=           -501.1055
   XY=             95.0912   XZ=             -5.3893   YZ=             12.4573

 Normal termination of Gaussian 16 at Sun Sep 19 18:37:06 2021.
