 Gaussian 16, Revision A.03,
 Gaussian 16:  ES64L-G16RevA.03 25-Dec-2016

 --------------------------------
 #p wB97XD/Def2SVP td=(nstates=5)
 --------------------------------

 --------------------------------
 TDDFT excited states in gaussian
 --------------------------------
 Symbolic Z-matrix:
 Charge =  0 Multiplicity = 1

                         Standard orientation:
 ---------------------------------------------------------------------
 Center     Atomic      Atomic             Coordinates (Angstroms)
 Number     Number       Type             X           Y           Z
 ---------------------------------------------------------------------
      1         12           0       22.152643   -0.728773    0.444688
      2          6           0       21.994892    2.325687   -1.341200
      3          6           0       23.119715    1.205127    3.191213
      4          6           0       22.242342   -3.450743    2.278363
      5          6           0       21.983869   -2.465581   -2.562793
      6          7           0       22.468097    1.500575    0.833943
      7          6           0       22.206625    2.558351    0.016708
      8          6           0       22.468118    3.951745    0.613764
      9          6           0       22.955771    3.476664    2.075017
     10          6           0       22.847074    1.982698    1.994781
     11          6           0       24.439327    3.886830    2.431373
     12          6           0       21.187514    4.847573    0.660347
     13          6           0       20.981173    6.104509   -0.175908
     14          1           0       20.227398    7.306892    0.376901
     15          7           0       22.539879   -1.100637    2.482042
     16          6           0       22.992535   -0.184260    3.442211
     17          6           0       23.283855   -0.929865    4.646275
     18          6           0       22.887211   -2.252313    4.463438
     19          6           0       22.477952   -2.304841    3.046368
     20          6           0       23.695473   -0.177385    5.865418
     21          6           0       22.946167   -3.464557    5.392240
     22          8           0       22.585126   -4.604209    5.083196
     23          6           0       23.331361   -3.215294    6.797216
     24          7           0       22.224359   -2.697616   -0.041956
     25          6           0       22.043554   -3.684180    0.887426
     26          6           0       21.607355   -5.026100    0.207436
     27          6           0       21.642213   -4.684408   -1.276509
     28          6           0       22.048468   -3.185246   -1.325477
     29          6           0       22.464546   -6.257747    0.647277
     30          6           0       20.269862   -4.970730   -1.904852
     31          6           0       20.224667   -5.661059   -3.219396
     32          7           0       22.118446   -0.240053   -1.570122
     33          6           0       22.020395   -1.038209   -2.681714
     34          6           0       21.942889   -0.257830   -3.880335
     35          6           0       21.822726    1.150697   -3.440720
     36          6           0       21.933393    1.069503   -1.996788
     37          6           0       21.923907   -0.811126   -5.315551
     38          6           0       21.663833    2.572421   -3.837806
     39          8           0       21.406428    3.071624   -4.946365
     40          6           0       21.766493    3.369896   -2.472877
     41          6           0       22.937367    4.251411   -2.776765
     42          8           0       24.130351    4.009958   -2.637979
     43          8           0       22.540913    5.445748   -3.122088
     44          6           0       23.528054    6.432182   -3.624181
     45          1           0       23.257552    1.937301    3.989162
     46          1           0       22.283233   -4.431300    2.756524
     47          1           0       21.860056   -3.028887   -3.489659
     48          1           0       23.297796    4.396112    0.062545
     49          1           0       22.348998    3.753834    2.937608
     50          1           0       25.079199    4.201961    1.607595
     51          1           0       24.954248    3.045404    2.893684
     52          1           0       24.404236    4.699150    3.157554
     53          1           0       21.092946    5.190270    1.690872
     54          1           0       20.306903    4.258951    0.406314
     55          1           0       20.311302    5.718308   -0.944307
     56          1           0       22.001285    6.329413   -0.487344
     57          1           0       22.979912   -0.296352    6.677834
     58          1           0       23.783761    0.889276    5.657622
     59          1           0       24.653709   -0.502593    6.269405
     60          1           0       22.740321   -2.390219    7.194942
     61          1           0       24.340010   -2.811835    6.887520
     62          1           0       23.158115   -4.056402    7.467742
     63          1           0       20.597605   -5.148389    0.598951
     64          1           0       22.330323   -5.336257   -1.814489
     65          1           0       23.138813   -6.059677    1.480355
     66          1           0       23.097525   -6.658163   -0.143757
     67          1           0       21.813282   -7.112725    0.828252
     68          1           0       19.847533   -3.971700   -2.005113
     69          1           0       19.613564   -5.595947   -1.299982
     70          1           0       19.639859   -4.997141   -3.855606
     71          1           0       19.844515   -6.675555   -3.099866
     72          1           0       21.181103   -5.723245   -3.738943
     73          1           0       22.947232   -0.875352   -5.683547
     74          1           0       21.309424   -0.150440   -5.926922
     75          1           0       21.527297   -1.825641   -5.360700
     76          1           0       20.851203    3.954888   -2.384577
     77          1           0       24.308510    6.683242   -2.906714
     78          1           0       23.086728    7.362558   -3.981038
     79          1           0       24.084323    6.158262   -4.520115
     80         12           0      -22.073913   -0.800972   -0.339428
     81          6           0      -23.818137    1.894515    1.429592
     82          6           0      -19.701983    1.614127   -1.243406
     83          6           0      -20.655138   -3.050414   -2.224812
     84          6           0      -24.414500   -3.025687    0.815659
     85          7           0      -21.905836    1.495065   -0.130693
     86          6           0      -22.655850    2.390685    0.741228
     87          6           0      -22.151210    3.849461    0.718229
     88          6           0      -20.924005    3.686366   -0.353157
     89          6           0      -20.806845    2.175841   -0.636271
     90          6           0      -21.096372    4.514833   -1.611426
     91          6           0      -21.789989    4.328334    2.156882
     92          6           0      -21.015147    5.609546    2.231732
     93          1           0      -21.394320    6.657974    3.253835
     94          7           0      -20.397642   -0.752924   -1.611864
     95          6           0      -19.538228    0.325034   -1.852695
     96          6           0      -18.463267   -0.093643   -2.750388
     97          6           0      -18.717513   -1.492767   -3.058196
     98          6           0      -19.968699   -1.861367   -2.298083
     99          6           0      -17.246256    0.804927   -3.180440
    100          6           0      -18.012907   -2.446708   -3.954028
    101          8           0      -18.314955   -3.623298   -4.102870
    102          6           0      -16.785853   -2.031425   -4.654205
    103          7           0      -22.405742   -2.722807   -0.583276
    104          6           0      -21.773759   -3.445178   -1.510140
    105          6           0      -22.268969   -4.909378   -1.566763
    106          6           0      -23.121868   -4.974915   -0.316840
    107          6           0      -23.405444   -3.451897   -0.017461
    108          6           0      -23.045831   -5.233602   -2.837547
    109          6           0      -22.680962   -5.680881    0.939201
    110          6           0      -21.451699   -5.083907    1.590400
    111          7           0      -23.821694   -0.636451    0.781262
    112          6           0      -24.625114   -1.688987    1.255747
    113          6           0      -25.683933   -1.138644    2.065614
    114          6           0      -25.307881    0.224640    2.177872
    115          6           0      -24.183744    0.499195    1.375888
    116          6           0      -26.778329   -1.861415    2.795301
    117          6           0      -25.715032    1.473511    2.893176
    118          8           0      -26.575378    1.665993    3.778781
    119          6           0      -24.773969    2.564388    2.386902
    120          6           0      -25.583058    3.724330    1.802760
    121          8           0      -26.352071    3.760492    0.797181
    122          8           0      -25.222159    4.844267    2.491857
    123          6           0      -25.832947    6.109940    2.026166
    124          1           0      -18.869725    2.311429   -1.351213
    125          1           0      -20.235132   -3.801265   -2.897252
    126          1           0      -25.208417   -3.670736    1.198140
    127          1           0      -23.012695    4.441061    0.408605
    128          1           0      -19.984537    3.908231    0.153121
    129          1           0      -20.242362    5.186636   -1.702360
    130          1           0      -22.002122    5.102974   -1.468080
    131          1           0      -21.404381    3.995829   -2.518839
    132          1           0      -21.330243    3.466899    2.642545
    133          1           0      -22.715472    4.475222    2.713798
    134          1           0      -21.008608    6.236873    1.340672
    135          1           0      -19.988765    5.389116    2.523666
    136          1           0      -16.371040    0.291505   -2.781275
    137          1           0      -17.280837    1.811396   -2.763674
    138          1           0      -17.255465    0.824190   -4.270305
    139          1           0      -16.846381   -1.037779   -5.098647
    140          1           0      -16.677929   -2.777565   -5.440649
    141          1           0      -16.055179   -1.926357   -3.852798
    142          1           0      -21.384047   -5.545076   -1.534648
    143          1           0      -24.071577   -5.480074   -0.495055
    144          1           0      -22.755698   -6.228214   -3.174206
    145          1           0      -22.821256   -4.520992   -3.630465
    146          1           0      -24.107004   -5.345203   -2.612039
    147          1           0      -22.578460   -6.741367    0.707426
    148          1           0      -23.413520   -5.553286    1.736010
    149          1           0      -20.729631   -5.847563    1.877111
    150          1           0      -21.677188   -4.571332    2.525826
    151          1           0      -20.902391   -4.385824    0.958577
    152          1           0      -26.782130   -1.557486    3.841778
    153          1           0      -26.813178   -2.950727    2.810359
    154          1           0      -27.718700   -1.549770    2.340199
    155          1           0      -24.251336    2.985298    3.246323
    156          1           0      -25.119946    6.657638    1.410271
    157          1           0      -26.084583    6.537739    2.996624
    158          1           0      -26.792978    5.952814    1.532811
 ---------------------------------------------------------------------

 SCF Done:  E(RwB97XD) =  -4070.61431444     A.U. after   19 cycles

 Excitation energies and oscillator strengths:

 Excited State   1:      Singlet-A      1.6110 eV  769.61 nm  f=0.3977  <S**2>=0.000
     309 -> 316       -0.17050
     311 -> 313        0.68652
     309 <- 316       -0.11383
 This state for optimization and/or second-order correction.
 Total Energy, E(TD-HF/TD-DFT) =  -4070.55511141
 Copying the excited state density for this state as the 1-particle RhoCI density.

 Excited State   2:      Singlet-A      1.7238 eV  719.26 nm  f=0.3812  <S**2>=0.000
     310 -> 315        0.18635
     312 -> 314        0.68177
     310 <- 315        0.11196

 Excited State   3:      Singlet-A      2.1162 eV  585.87 nm  f=0.1329  <S**2>=0.000
     309 -> 313        0.64977
     311 -> 316        0.25754

 Excited State   4:      Singlet-A      2.1685 eV  571.75 nm  f=0.1030  <S**2>=0.000
     310 -> 314        0.63396
     312 -> 315       -0.29506

 Excited State   5:      Singlet-A      3.2646 eV  379.78 nm  f=0.0056  <S**2>=0.000
     304 -> 313       -0.31870
     307 -> 313        0.60948

 The electronic state is 1-A.
 Alpha  occ. eigenvalues --  -46.94904 -46.94109 -19.30987 -19.30496 -19.24715
 Alpha  occ. eigenvalues --  -19.24610 -19.23912 -19.23859 -19.23496 -19.23138
 Alpha  occ. eigenvalues --  -14.47209 -14.47149 -14.46781 -14.46519 -14.44620
 Alpha  occ. eigenvalues --  -14.44497 -14.43585 -14.43432 -10.43827 -10.42484
 Alpha  occ. eigenvalues --  -10.40041 -10.39468 -10.38743 -10.38649 -10.36018
 Alpha  occ. eigenvalues --  -10.35786 -10.35709 -10.35648 -10.35580 -10.35522
 Alpha  occ. eigenvalues --  -10.35504 -10.35318 -10.35160 -10.34928 -10.34903
 Alpha  occ. eigenvalues --  -10.34807 -10.34750 -10.34601 -10.34529 -10.33699
 Alpha  occ. eigenvalues --  -10.33219 -10.33150 -10.33037 -10.32998 -10.32918
 Alpha  occ. eigenvalues --  -10.32884 -10.32849 -10.32811 -10.32748 -10.32685
 Alpha  occ. eigenvalues --  -10.32628 -10.32606 -10.32599 -10.32453 -10.32401
 Alpha  occ. eigenvalues --  -10.32253 -10.32178 -10.32058 -10.32042 -10.31786
 Alpha  occ. eigenvalues --  -10.31621 -10.31569 -10.31564 -10.31425 -10.31096
 Alpha  occ. eigenvalues --  -10.31030 -10.31014 -10.30998 -10.30794 -10.30462
 Alpha  occ. eigenvalues --  -10.30460 -10.30350 -10.30148 -10.29935 -10.29804
 Alpha  occ. eigenvalues --  -10.29797 -10.29763 -10.29740 -10.29736 -10.29562
 Alpha  occ. eigenvalues --  -10.29491 -10.29483 -10.29151 -10.28703 -10.28678
 Alpha  occ. eigenvalues --  -10.28370  -3.20933  -3.20265  -1.94524  -1.94058
 Alpha  occ. eigenvalues --   -1.93909  -1.93866  -1.93403  -1.93243  -1.19982
 Alpha  occ. eigenvalues --   -1.18185  -1.12656  -1.12395  -1.10607  -1.09998
 Alpha  occ. eigenvalues --   -1.08667  -1.07954  -1.07526  -1.07060  -1.06150
 Alpha  occ. eigenvalues --   -1.04812  -1.04812  -1.04362  -1.03366  -1.02619
 Alpha  occ. eigenvalues --   -0.94256  -0.93805  -0.91558  -0.91518  -0.90992
 Alpha  occ. eigenvalues --   -0.90827  -0.90724  -0.90565  -0.89738  -0.89270
 Alpha  occ. eigenvalues --   -0.89002  -0.88712  -0.87801  -0.87075  -0.86683
 Alpha  occ. eigenvalues --   -0.86240  -0.85935  -0.85389  -0.84867  -0.84804
 Alpha  occ. eigenvalues --   -0.84699  -0.84285  -0.83374  -0.82793  -0.82529
 Alpha  occ. eigenvalues --   -0.82049  -0.80824  -0.80533  -0.79440  -0.79193
 Alpha  occ. eigenvalues --   -0.78805  -0.78714  -0.78117  -0.77894  -0.77455
 Alpha  occ. eigenvalues --   -0.77157  -0.74741  -0.74223  -0.73925  -0.73836
 Alpha  occ. eigenvalues --   -0.72218  -0.71413  -0.71258  -0.70145  -0.69633
 Alpha  occ. eigenvalues --   -0.69625  -0.69173  -0.69000  -0.67803  -0.67225
 Alpha  occ. eigenvalues --   -0.67048  -0.66905  -0.66667  -0.66282  -0.66225
 Alpha  occ. eigenvalues --   -0.65811  -0.64397  -0.63921  -0.63046  -0.62254
 Alpha  occ. eigenvalues --   -0.61517  -0.61154  -0.61085  -0.60970  -0.60494
 Alpha  occ. eigenvalues --   -0.60298  -0.59806  -0.59678  -0.59674  -0.59396
 Alpha  occ. eigenvalues --   -0.58777  -0.58307  -0.57875  -0.57573  -0.57466
 Alpha  occ. eigenvalues --   -0.57226  -0.56961  -0.56721  -0.56245  -0.56239
 Alpha  occ. eigenvalues --   -0.56153  -0.55797  -0.55581  -0.55438  -0.55047
 Alpha  occ. eigenvalues --   -0.54936  -0.54709  -0.54618  -0.54522  -0.54405
 Alpha  occ. eigenvalues --   -0.54097  -0.54083  -0.53382  -0.53085  -0.52805
 Alpha  occ. eigenvalues --   -0.52710  -0.52585  -0.52442  -0.52302  -0.52106
 Alpha  occ. eigenvalues --   -0.52003  -0.51892  -0.51703  -0.51701  -0.51531
 Alpha  occ. eigenvalues --   -0.51421  -0.51075  -0.50755  -0.50730  -0.50627
 Alpha  occ. eigenvalues --   -0.50547  -0.50489  -0.50428  -0.50153  -0.50044
 Alpha  occ. eigenvalues --   -0.50038  -0.49761  -0.49670  -0.49547  -0.49362
 Alpha  occ. eigenvalues --   -0.48930  -0.48702  -0.48596  -0.48441  -0.48293
 Alpha  occ. eigenvalues --   -0.48095  -0.48039  -0.47938  -0.47798  -0.47593
 Alpha  occ. eigenvalues --   -0.47558  -0.47425  -0.47389  -0.47094  -0.47001
 Alpha  occ. eigenvalues --   -0.46832  -0.46583  -0.46479  -0.46332  -0.46275
 Alpha  occ. eigenvalues --   -0.46233  -0.46114  -0.45963  -0.45861  -0.45388
 Alpha  occ. eigenvalues --   -0.45203  -0.45162  -0.45036  -0.44780  -0.44604
 Alpha  occ. eigenvalues --   -0.44469  -0.44312  -0.44131  -0.44001  -0.43851
 Alpha  occ. eigenvalues --   -0.43730  -0.43658  -0.43332  -0.43235  -0.43180
 Alpha  occ. eigenvalues --   -0.42831  -0.42730  -0.42405  -0.42351  -0.42005
 Alpha  occ. eigenvalues --   -0.41884  -0.41760  -0.41439  -0.41159  -0.41004
 Alpha  occ. eigenvalues --   -0.40802  -0.40382  -0.39905  -0.39316  -0.39310
 Alpha  occ. eigenvalues --   -0.39147  -0.38797  -0.38736  -0.38483  -0.38397
 Alpha  occ. eigenvalues --   -0.38115  -0.37807  -0.36448  -0.36308  -0.36066
 Alpha  occ. eigenvalues --   -0.35555  -0.35305  -0.35177  -0.34160  -0.33853
 Alpha  occ. eigenvalues --   -0.33732  -0.33263  -0.32639  -0.32594  -0.32520
 Alpha  occ. eigenvalues --   -0.32298  -0.31298  -0.30858  -0.26186  -0.25894
 Alpha  occ. eigenvalues --   -0.23288  -0.23043
 Alpha virt. eigenvalues --   -0.07657  -0.06893   0.00025   0.00251   0.01822
 Alpha virt. eigenvalues --    0.02366   0.04136   0.04293   0.05745   0.06249
 Alpha virt. eigenvalues --    0.06679   0.07666   0.07689   0.08306   0.08507

 Mulliken charges:
               1
     1  Mg   0.972476
     2  C    0.039394
     3  C   -0.094967
     4  C   -0.084772
     5  C   -0.088994
     6  N   -0.280045
     7  C   -0.033578
     8  C   -0.039442
     9  C   -0.125436
    10  C    0.009729
    11  C    0.001854
    12  C   -0.006421
    13  C   -0.125650
    14  H    0.045827
    15  N   -0.445399
    16  C    0.189163
    17  C   -0.135125
    18  C   -0.078178
    19  C    0.174239
    20  C    0.050298
    21  C    0.084144
    22  O   -0.232465
    23  C   -0.006614
    24  N   -0.424616
    25  C    0.030524
    26  C   -0.065371
    27  C   -0.064826
    28  C    0.113726
    29  C    0.012630
    30  C   -0.040691
    31  C   -0.047840
    32  N   -0.454789
    33  C    0.145737
    34  C   -0.198932
    35  C   -0.045525
    36  C    0.123238
    37  C    0.077678
    38  C    0.112859
    39  O   -0.226561
    40  C   -0.112959
    41  C    0.233222
    42  O   -0.268664
    43  O   -0.310212
    44  C    0.148246
    45  H    0.001888
    46  H    0.016071
    47  H   -0.006159
    48  H    0.060648
    49  H    0.045605
    50  H    0.052710
    51  H    0.037800
    52  H    0.037502
    53  H    0.038500
    54  H    0.032693
    55  H    0.062061
    56  H    0.051866
    57  H    0.054695
    58  H    0.035508
    59  H    0.048478
    60  H    0.039567
    61  H    0.049785
    62  H    0.061290
    63  H    0.053958
    64  H    0.031699
    65  H    0.057309
    66  H    0.025295
    67  H    0.035174
    68  H    0.036506
    69  H    0.031228
    70  H    0.037238
    71  H    0.043615
    72  H    0.025500
    73  H    0.056382
    74  H    0.061386
    75  H    0.025341
    76  H    0.075605
    77  H    0.050779
    78  H    0.052445
    79  H    0.053119
    80  Mg   0.975047
    81  C   -0.025536
    82  C   -0.091701
    83  C   -0.091440
    84  C   -0.077699
    85  N   -0.366135
    86  C   -0.005972
    87  C   -0.064645
    88  C   -0.111929
    89  C    0.089016
    90  C    0.051913
    91  C   -0.006016
    92  C   -0.128074
    93  H    0.029110
    94  N   -0.467365
    95  C    0.163115
    96  C   -0.170370
    97  C   -0.057391
    98  C    0.152370
    99  C    0.067178
   100  C    0.022005
   101  O   -0.243516
   102  C    0.001973
   103  N   -0.422467
   104  C    0.103767
   105  C   -0.088093
   106  C   -0.066240
   107  C    0.109965
   108  C    0.042968
   109  C    0.010344
   110  C   -0.067867
   111  N   -0.449733
   112  C    0.078780
   113  C   -0.151465
   114  C   -0.101702
   115  C    0.167191
   116  C    0.064790
   117  C    0.158631
   118  O   -0.236426
   119  C   -0.063717
   120  C    0.279017
   121  O   -0.286757
   122  O   -0.366304
   123  C    0.125349
   124  H   -0.007294
   125  H    0.021604
   126  H    0.001305
   127  H    0.052007
   128  H    0.035091
   129  H    0.045591
   130  H    0.021898
   131  H    0.048120
   132  H    0.034803
   133  H    0.058230
   134  H    0.052516
   135  H    0.055212
   136  H    0.061429
   137  H    0.044218
   138  H    0.067075
   139  H    0.027189
   140  H    0.066580
   141  H    0.059717
   142  H    0.041419
   143  H    0.013872
   144  H    0.035659
   145  H    0.048296
   146  H    0.036552
   147  H    0.035160
   148  H    0.029052
   149  H    0.029068
   150  H    0.034943
   151  H    0.040814
   152  H    0.061467
   153  H    0.026458
   154  H    0.055498
   155  H    0.079613
   156  H    0.065874
   157  H    0.060822
   158  H    0.076172
 Sum of Mulliken charges =  -0.00000

 Dipole moment (field-independent basis, Debye):
    X=              5.0753    Y=              1.8525    Z=              3.8843  Tot=              6.6542
 Quadrupole moment (field-independent basis, Debye-Ang):
   XX=           -758.9899   YY=           -461.5145   ZZ=           -518.0715
   XY=             13.2427   XZ=            156.4373   YZ=             14.8535

 Normal termination of Gaussian 16 at Mon Sep 20 12:49:01 2021.
