 Gaussian 16, Revision A.03,
 Gaussian 16:  ES64L-G16RevA.03 25-Dec-2016

 --------------------------------
 #p wB97XD/Def2SVP td=(nstates=5)
 --------------------------------

 --------------------------------
 TDDFT excited states in gaussian
 --------------------------------
 Symbolic Z-matrix:
 Charge =  0 Multiplicity = 1

                         Standard orientation:
 ---------------------------------------------------------------------
 Center     Atomic      Atomic             Coordinates (Angstroms)
 Number     Number       Type             X           Y           Z
 ---------------------------------------------------------------------
      1         12           0       21.767504   -0.771411    0.163569
      2          6           0       22.804549    2.194058   -1.163149
      3          6           0       18.436393    0.403410   -0.029866
      4          6           0       20.725752   -3.571273    1.676435
      5          6           0       25.034258   -1.830194    0.241469
      6          7           0       20.759356    1.173127   -0.213242
      7          6           0       21.414909    2.223129   -0.868840
      8          6           0       20.444343    3.386766   -1.217989
      9          6           0       19.112493    2.737458   -0.756719
     10          6           0       19.443167    1.352961   -0.229319
     11          6           0       18.124564    3.483143    0.238253
     12          6           0       20.404260    3.854924   -2.739098
     13          6           0       19.374859    4.993765   -2.969002
     14          1           0       20.025884    6.353065   -3.228455
     15          7           0       19.790255   -1.512441    0.708126
     16          6           0       18.586939   -0.965844    0.316984
     17          6           0       17.557951   -1.825239    0.890591
     18          6           0       18.241466   -2.978936    1.393120
     19          6           0       19.646122   -2.751502    1.260926
     20          6           0       16.125391   -1.466099    0.793599
     21          6           0       17.506125   -4.166044    2.107705
     22          8           0       18.097457   -5.068761    2.734091
     23          6           0       16.000587   -4.216337    2.125437
     24          7           0       22.687538   -2.355470    0.847594
     25          6           0       22.047534   -3.457524    1.481356
     26          6           0       23.060395   -4.362586    2.145332
     27          6           0       24.288382   -4.051891    1.291691
     28          6           0       24.001532   -2.680596    0.696725
     29          6           0       23.272674   -4.034736    3.661480
     30          6           0       24.473384   -5.047634    0.124834
     31          6           0       25.212887   -6.331822    0.388432
     32          7           0       23.638537   -0.037437   -0.295821
     33          6           0       24.854255   -0.603308   -0.365945
     34          6           0       25.803132    0.365091   -0.830354
     35          6           0       25.064441    1.475615   -1.179492
     36          6           0       23.728840    1.169959   -0.875038
     37          6           0       27.254723    0.063285   -0.967220
     38          6           0       25.170413    2.763549   -1.719439
     39          8           0       26.124205    3.387574   -2.142821
     40          6           0       23.665193    3.307179   -1.737338
     41          6           0       23.628596    4.575183   -0.960128
     42          8           0       23.794070    4.707586    0.228093
     43          8           0       23.232131    5.598626   -1.722531
     44          6           0       23.102848    6.939704   -1.032563
     45          1           0       17.435071    0.769639   -0.265230
     46          1           0       20.400482   -4.492168    2.164576
     47          1           0       26.073551   -2.139602    0.115436
     48          1           0       20.683434    4.237766   -0.580152
     49          1           0       18.490523    2.529139   -1.627783
     50          1           0       17.058743    3.341859    0.056940
     51          1           0       18.443702    4.517315    0.368849
     52          1           0       18.272049    2.969591    1.188219
     53          1           0       20.203892    2.930873   -3.280002
     54          1           0       21.402333    4.193437   -3.016933
     55          1           0       18.641052    4.999775   -2.163027
     56          1           0       18.842682    4.746418   -3.887068
     57          1           0       15.772346   -1.226600    1.796827
     58          1           0       15.650123   -2.287811    0.257842
     59          1           0       15.985916   -0.603448    0.141918
     60          1           0       15.666213   -5.134578    2.608279
     61          1           0       15.732650   -4.338063    1.075018
     62          1           0       15.480671   -3.354797    2.543587
     63          1           0       22.757666   -5.408007    2.079615
     64          1           0       25.213798   -4.003983    1.865268
     65          1           0       23.850866   -3.120268    3.788096
     66          1           0       23.762598   -4.869191    4.163939
     67          1           0       22.270456   -3.922830    4.073695
     68          1           0       24.925074   -4.590900   -0.754859
     69          1           0       23.498427   -5.307417   -0.287801
     70          1           0       24.520292   -7.141183    0.159232
     71          1           0       25.305993   -6.341107    1.474520
     72          1           0       26.183734   -6.405433   -0.101876
     73          1           0       27.489389   -0.210361   -1.995150
     74          1           0       27.714573   -0.612924   -0.245884
     75          1           0       27.756702    1.016527   -0.800642
     76          1           0       23.383838    3.497665   -2.773283
     77          1           0       22.493481    6.781078   -0.142566
     78          1           0       22.583200    7.685079   -1.635198
     79          1           0       24.106342    7.275368   -0.770051
     80         12           0      -22.591600    0.339113   -0.254810
     81          6           0      -19.097345    0.670323    0.489964
     82          6           0      -21.566291   -2.135559   -2.617990
     83          6           0      -25.709601   -0.900890   -0.426054
     84          6           0      -23.289129    2.180561    2.541407
     85          7           0      -20.580498   -0.601603   -0.909790
     86          6           0      -19.316046   -0.296850   -0.497763
     87          6           0      -18.235231   -1.150722   -1.248279
     88          6           0      -19.090721   -1.706216   -2.485355
     89          6           0      -20.497096   -1.538657   -1.932512
     90          6           0      -18.929803   -0.923054   -3.768095
     91          6           0      -17.521760   -2.147984   -0.350473
     92          6           0      -15.982185   -2.267107   -0.493795
     93          1           0      -15.324488   -3.464796   -1.324961
     94          7           0      -23.580196   -1.271830   -1.468686
     95          6           0      -22.959585   -2.087222   -2.437976
     96          6           0      -23.984064   -2.924700   -3.073727
     97          6           0      -25.231374   -2.522666   -2.452165
     98          6           0      -24.887337   -1.621158   -1.373718
     99          6           0      -23.771490   -3.979640   -4.093205
    100          6           0      -26.601793   -2.978251   -2.886755
    101          8           0      -26.694285   -3.605848   -3.917675
    102          6           0      -27.877193   -2.693374   -2.127642
    103          7           0      -24.148884    0.536719    0.960967
    104          6           0      -25.386404    0.037307    0.564839
    105          6           0      -26.413841    0.483475    1.607720
    106          6           0      -25.677813    1.621377    2.405456
    107          6           0      -24.281270    1.468365    1.904725
    108          6           0      -27.861976    0.850748    1.115976
    109          6           0      -25.814314    1.635975    3.958974
    110          6           0      -26.311677    2.886853    4.606973
    111          7           0      -21.499583    1.348082    1.155908
    112          6           0      -21.913390    2.135492    2.216166
    113          6           0      -20.776772    2.883622    2.787179
    114          6           0      -19.641301    2.253907    2.144287
    115          6           0      -20.157454    1.353084    1.207720
    116          6           0      -20.749873    3.957637    3.842602
    117          6           0      -18.150001    2.278989    2.085927
    118          8           0      -17.353732    2.872429    2.756029
    119          6           0      -17.785926    1.174324    1.099244
    120          6           0      -16.905651    1.775090    0.044293
    121          8           0      -17.372467    2.609269   -0.701271
    122          8           0      -15.590257    1.230837   -0.058498
    123          6           0      -14.776105    1.670973   -1.231837
    124          1           0      -21.292930   -2.861166   -3.387108
    125          1           0      -26.763430   -1.177289   -0.363289
    126          1           0      -23.572092    2.911222    3.301622
    127          1           0      -17.494725   -0.522675   -1.742733
    128          1           0      -18.936869   -2.775836   -2.627495
    129          1           0      -19.563947   -0.038599   -3.711789
    130          1           0      -19.181779   -1.596471   -4.587196
    131          1           0      -17.950361   -0.511561   -4.014169
    132          1           0      -17.920082   -3.126925   -0.615357
    133          1           0      -17.876546   -1.991150    0.668134
    134          1           0      -15.645768   -2.328502    0.541450
    135          1           0      -15.517532   -1.377443   -0.919056
    136          1           0      -23.992548   -3.519405   -5.055755
    137          1           0      -24.536175   -4.747669   -3.976654
    138          1           0      -22.813291   -4.496373   -4.159393
    139          1           0      -28.769127   -3.187855   -2.511904
    140          1           0      -28.030195   -1.617441   -2.212540
    141          1           0      -27.907826   -2.863181   -1.052023
    142          1           0      -26.574535   -0.442639    2.160379
    143          1           0      -25.957446    2.577378    1.963780
    144          1           0      -27.859710    1.078161    0.049627
    145          1           0      -28.273228    1.663479    1.714400
    146          1           0      -28.543174    0.020708    1.302050
    147          1           0      -24.847974    1.386588    4.397136
    148          1           0      -26.426382    0.776518    4.232161
    149          1           0      -25.480479    3.383013    5.107568
    150          1           0      -27.053268    2.635123    5.364991
    151          1           0      -26.767922    3.640647    3.965671
    152          1           0      -19.836694    4.548736    3.776364
    153          1           0      -20.825228    3.446629    4.802851
    154          1           0      -21.670933    4.533917    3.753260
    155          1           0      -17.360158    0.351988    1.674409
    156          1           0      -14.365865    2.660601   -1.030014
    157          1           0      -15.399379    1.778494   -2.119316
    158          1           0      -13.988417    0.949697   -1.448720
 ---------------------------------------------------------------------

 SCF Done:  E(RwB97XD) =  -4070.63230266     A.U. after   17 cycles

 Excitation energies and oscillator strengths:

 Excited State   1:      Singlet-A      1.5970 eV  776.38 nm  f=0.3997  <S**2>=0.000
     309 -> 315       -0.16558
     312 -> 313        0.68809
     309 <- 315       -0.11234
 This state for optimization and/or second-order correction.
 Total Energy, E(TD-HF/TD-DFT) =  -4070.57361559
 Copying the excited state density for this state as the 1-particle RhoCI density.

 Excited State   2:      Singlet-A      1.6114 eV  769.44 nm  f=0.3915  <S**2>=0.000
     310 -> 316        0.17517
     311 -> 314        0.68604
     310 <- 316        0.11588

 Excited State   3:      Singlet-A      2.1826 eV  568.06 nm  f=0.1252  <S**2>=0.000
     310 -> 314        0.63923
     311 -> 316       -0.28433

 Excited State   4:      Singlet-A      2.1950 eV  564.86 nm  f=0.1052  <S**2>=0.000
     309 -> 313        0.63715
     312 -> 315        0.28958

 Excited State   5:      Singlet-A      3.1511 eV  393.47 nm  f=0.0019  <S**2>=0.000
     306 -> 314       -0.12157
     308 -> 314        0.66866
     311 -> 316       -0.10237

 The electronic state is 1-A.
 Alpha  occ. eigenvalues --  -46.95694 -46.93862 -19.30547 -19.30161 -19.25712
 Alpha  occ. eigenvalues --  -19.24822 -19.24500 -19.23708 -19.23558 -19.22996
 Alpha  occ. eigenvalues --  -14.47431 -14.47346 -14.46374 -14.46293 -14.43974
 Alpha  occ. eigenvalues --  -14.43770 -14.43489 -14.43444 -10.44148 -10.42388
 Alpha  occ. eigenvalues --  -10.39473 -10.39175 -10.39011 -10.38474 -10.36147
 Alpha  occ. eigenvalues --  -10.36076 -10.36074 -10.35449 -10.35412 -10.35363
 Alpha  occ. eigenvalues --  -10.34732 -10.34534 -10.34508 -10.34330 -10.34313
 Alpha  occ. eigenvalues --  -10.34036 -10.33550 -10.33533 -10.33473 -10.33264
 Alpha  occ. eigenvalues --  -10.33261 -10.33146 -10.33043 -10.33032 -10.32933
 Alpha  occ. eigenvalues --  -10.32881 -10.32816 -10.32725 -10.32683 -10.32660
 Alpha  occ. eigenvalues --  -10.32280 -10.32157 -10.32117 -10.32093 -10.31878
 Alpha  occ. eigenvalues --  -10.31860 -10.31801 -10.31654 -10.31525 -10.31402
 Alpha  occ. eigenvalues --  -10.31360 -10.31323 -10.31167 -10.31071 -10.30885
 Alpha  occ. eigenvalues --  -10.30735 -10.30675 -10.30630 -10.30517 -10.30417
 Alpha  occ. eigenvalues --  -10.30417 -10.30390 -10.30388 -10.30318 -10.30098
 Alpha  occ. eigenvalues --  -10.29937 -10.29765 -10.29685 -10.29655 -10.29597
 Alpha  occ. eigenvalues --  -10.29563 -10.29521 -10.29502 -10.29304 -10.29109
 Alpha  occ. eigenvalues --  -10.28903  -3.21728  -3.20048  -1.95259  -1.94849
 Alpha  occ. eigenvalues --   -1.94700  -1.93647  -1.93192  -1.93023  -1.19110
 Alpha  occ. eigenvalues --   -1.17563  -1.14024  -1.12742  -1.12425  -1.10464
 Alpha  occ. eigenvalues --   -1.10134  -1.09364  -1.07526  -1.06607  -1.05941
 Alpha  occ. eigenvalues --   -1.05621  -1.05103  -1.04831  -1.03985  -1.03564
 Alpha  occ. eigenvalues --   -0.95367  -0.94785  -0.91291  -0.90952  -0.90792
 Alpha  occ. eigenvalues --   -0.90679  -0.90558  -0.90374  -0.89882  -0.89561
 Alpha  occ. eigenvalues --   -0.89125  -0.88492  -0.88201  -0.87615  -0.86430
 Alpha  occ. eigenvalues --   -0.86292  -0.85879  -0.85852  -0.84435  -0.84429
 Alpha  occ. eigenvalues --   -0.83765  -0.83508  -0.83176  -0.82587  -0.82525
 Alpha  occ. eigenvalues --   -0.82204  -0.80351  -0.80113  -0.79487  -0.79464
 Alpha  occ. eigenvalues --   -0.79153  -0.78774  -0.78287  -0.78157  -0.77193
 Alpha  occ. eigenvalues --   -0.77144  -0.75239  -0.74674  -0.73792  -0.73780
 Alpha  occ. eigenvalues --   -0.71468  -0.71438  -0.70938  -0.70927  -0.70229
 Alpha  occ. eigenvalues --   -0.69947  -0.68713  -0.68060  -0.67882  -0.67779
 Alpha  occ. eigenvalues --   -0.67093  -0.66887  -0.66649  -0.66581  -0.66349
 Alpha  occ. eigenvalues --   -0.66163  -0.64376  -0.64114  -0.62219  -0.62031
 Alpha  occ. eigenvalues --   -0.61831  -0.61534  -0.61220  -0.61137  -0.61074
 Alpha  occ. eigenvalues --   -0.60880  -0.60356  -0.60329  -0.60006  -0.59659
 Alpha  occ. eigenvalues --   -0.58539  -0.58523  -0.58007  -0.57630  -0.57450
 Alpha  occ. eigenvalues --   -0.57028  -0.56696  -0.56262  -0.56219  -0.55862
 Alpha  occ. eigenvalues --   -0.55395  -0.55341  -0.55334  -0.55086  -0.54868
 Alpha  occ. eigenvalues --   -0.54838  -0.54658  -0.54236  -0.54196  -0.53796
 Alpha  occ. eigenvalues --   -0.53738  -0.53698  -0.53599  -0.53280  -0.53268
 Alpha  occ. eigenvalues --   -0.53054  -0.52866  -0.52367  -0.52298  -0.52184
 Alpha  occ. eigenvalues --   -0.51936  -0.51894  -0.51840  -0.51839  -0.51704
 Alpha  occ. eigenvalues --   -0.51688  -0.51266  -0.51183  -0.51039  -0.50888
 Alpha  occ. eigenvalues --   -0.50692  -0.50672  -0.50555  -0.50175  -0.50122
 Alpha  occ. eigenvalues --   -0.49991  -0.49695  -0.49628  -0.49446  -0.49092
 Alpha  occ. eigenvalues --   -0.49036  -0.48959  -0.48846  -0.48457  -0.48415
 Alpha  occ. eigenvalues --   -0.48397  -0.48369  -0.48157  -0.48011  -0.47960
 Alpha  occ. eigenvalues --   -0.47930  -0.47859  -0.47777  -0.47453  -0.47229
 Alpha  occ. eigenvalues --   -0.47228  -0.46931  -0.46661  -0.46625  -0.46184
 Alpha  occ. eigenvalues --   -0.45746  -0.45690  -0.45678  -0.45594  -0.45494
 Alpha  occ. eigenvalues --   -0.45428  -0.45280  -0.45270  -0.44841  -0.44815
 Alpha  occ. eigenvalues --   -0.44578  -0.44512  -0.44422  -0.43916  -0.43859
 Alpha  occ. eigenvalues --   -0.43730  -0.43576  -0.43545  -0.43538  -0.43109
 Alpha  occ. eigenvalues --   -0.43045  -0.42834  -0.42757  -0.42558  -0.42496
 Alpha  occ. eigenvalues --   -0.42298  -0.42179  -0.41970  -0.41743  -0.41208
 Alpha  occ. eigenvalues --   -0.40446  -0.40321  -0.40040  -0.39680  -0.39399
 Alpha  occ. eigenvalues --   -0.39380  -0.39188  -0.39041  -0.38673  -0.38638
 Alpha  occ. eigenvalues --   -0.38578  -0.37793  -0.37027  -0.36417  -0.36262
 Alpha  occ. eigenvalues --   -0.36003  -0.35483  -0.35473  -0.33688  -0.33661
 Alpha  occ. eigenvalues --   -0.33346  -0.33298  -0.32816  -0.32437  -0.32422
 Alpha  occ. eigenvalues --   -0.31888  -0.31252  -0.30939  -0.26547  -0.26252
 Alpha  occ. eigenvalues --   -0.22945  -0.22932
 Alpha virt. eigenvalues --   -0.07431  -0.07368   0.00364   0.00409   0.02440
 Alpha virt. eigenvalues --    0.02694   0.04209   0.04466   0.04796   0.06369
 Alpha virt. eigenvalues --    0.06483   0.06888   0.07293   0.07952   0.07992

 Mulliken charges:
               1
     1  Mg   0.971144
     2  C   -0.006045
     3  C   -0.072360
     4  C   -0.076278
     5  C   -0.099592
     6  N   -0.340861
     7  C   -0.009436
     8  C   -0.022344
     9  C   -0.153786
    10  C    0.065354
    11  C    0.013345
    12  C   -0.006055
    13  C   -0.111486
    14  H    0.047920
    15  N   -0.435171
    16  C    0.162701
    17  C   -0.218386
    18  C   -0.077985
    19  C    0.134309
    20  C    0.083634
    21  C    0.066545
    22  O   -0.256624
    23  C   -0.006673
    24  N   -0.468469
    25  C    0.098695
    26  C   -0.069519
    27  C   -0.080553
    28  C    0.140052
    29  C    0.040746
    30  C   -0.043655
    31  C   -0.003975
    32  N   -0.427961
    33  C    0.106693
    34  C   -0.178903
    35  C    0.017679
    36  C    0.137040
    37  C    0.064735
    38  C    0.098780
    39  O   -0.191660
    40  C   -0.123835
    41  C    0.249433
    42  O   -0.247109
    43  O   -0.362901
    44  C    0.139217
    45  H   -0.004154
    46  H    0.019910
    47  H   -0.001747
    48  H    0.044513
    49  H    0.034725
    50  H    0.042255
    51  H    0.043414
    52  H    0.037654
    53  H    0.035411
    54  H    0.054637
    55  H    0.050973
    56  H    0.052978
    57  H    0.065805
    58  H    0.049328
    59  H    0.025689
    60  H    0.051262
    61  H    0.045757
    62  H    0.060807
    63  H    0.028071
    64  H    0.023069
    65  H    0.041824
    66  H    0.042117
    67  H    0.041581
    68  H    0.022330
    69  H    0.020621
    70  H    0.035332
    71  H    0.017907
    72  H    0.051247
    73  H    0.062370
    74  H    0.045000
    75  H    0.051485
    76  H    0.073873
    77  H    0.057972
    78  H    0.059962
    79  H    0.069619
    80  Mg   0.981395
    81  C   -0.076426
    82  C   -0.054049
    83  C   -0.079983
    84  C   -0.124310
    85  N   -0.313021
    86  C   -0.015948
    87  C   -0.065985
    88  C   -0.119776
    89  C    0.049070
    90  C    0.041524
    91  C    0.037332
    92  C   -0.107591
    93  H    0.023493
    94  N   -0.419580
    95  C    0.112335
    96  C   -0.143720
    97  C   -0.073721
    98  C    0.168714
    99  C    0.081105
   100  C    0.035444
   101  O   -0.234895
   102  C   -0.012003
   103  N   -0.451707
   104  C    0.092213
   105  C   -0.128712
   106  C   -0.033631
   107  C    0.088926
   108  C    0.013831
   109  C    0.000876
   110  C   -0.047240
   111  N   -0.442212
   112  C    0.135516
   113  C   -0.189500
   114  C   -0.106277
   115  C    0.178054
   116  C    0.090754
   117  C    0.132677
   118  O   -0.174100
   119  C   -0.015099
   120  C    0.278244
   121  O   -0.234414
   122  O   -0.404951
   123  C    0.133368
   124  H   -0.006130
   125  H   -0.037461
   126  H   -0.011874
   127  H    0.025575
   128  H    0.028722
   129  H    0.043278
   130  H    0.042629
   131  H    0.036672
   132  H    0.037384
   133  H    0.040635
   134  H    0.055482
   135  H    0.048085
   136  H    0.055536
   137  H    0.053891
   138  H    0.036846
   139  H    0.051261
   140  H    0.050086
   141  H    0.057941
   142  H    0.051529
   143  H    0.033592
   144  H    0.044830
   145  H    0.038360
   146  H    0.031076
   147  H    0.038682
   148  H    0.025402
   149  H    0.036244
   150  H    0.036936
   151  H    0.035855
   152  H    0.071564
   153  H    0.053884
   154  H    0.034453
   155  H    0.072702
   156  H    0.063755
   157  H    0.051508
   158  H    0.065052
 Sum of Mulliken charges =  -0.00000

 Dipole moment (field-independent basis, Debye):
    X=             -4.9392    Y=              0.6985    Z=             -1.2163  Tot=              5.1345
 Quadrupole moment (field-independent basis, Debye-Ang):
   XX=           -558.4179   YY=           -517.8308   ZZ=           -520.3688
   XY=            -63.1780   XZ=            -86.5026   YZ=             -0.8151

 Normal termination of Gaussian 16 at Mon Sep 20 03:19:47 2021.
