 Gaussian 16, Revision A.03,
 Gaussian 16:  ES64L-G16RevA.03 25-Dec-2016

 --------------------------------
 #p wB97XD/Def2SVP td=(nstates=5)
 --------------------------------

 --------------------------------
 TDDFT excited states in gaussian
 --------------------------------
 Symbolic Z-matrix:
 Charge =  0 Multiplicity = 1

                         Standard orientation:
 ---------------------------------------------------------------------
 Center     Atomic      Atomic             Coordinates (Angstroms)
 Number     Number       Type             X           Y           Z
 ---------------------------------------------------------------------
      1         12           0       20.449351    0.032989    0.522590
      2          6           0       17.891221   -1.231542   -1.464959
      3          6           0       20.752117    2.679796   -1.632779
      4          6           0       23.154861    1.048256    2.329155
      5          6           0       20.121669   -2.923269    2.468479
      6          7           0       19.467987    0.632999   -1.344297
      7          6           0       18.371953    0.007614   -1.877573
      8          6           0       17.919420    0.863089   -3.063476
      9          6           0       19.009018    1.901534   -3.262680
     10          6           0       19.783500    1.748445   -1.958566
     11          6           0       19.880351    1.848586   -4.488836
     12          6           0       16.438548    1.465922   -2.954597
     13          6           0       16.046662    2.513260   -4.045998
     14          1           0       15.364504    2.010753   -5.345311
     15          7           0       21.657052    1.718355    0.434108
     16          6           0       21.650730    2.669240   -0.533012
     17          6           0       22.723612    3.578398   -0.224107
     18          6           0       23.417749    3.092747    0.922858
     19          6           0       22.782226    1.902483    1.271758
     20          6           0       22.960808    4.787842   -1.074849
     21          6           0       24.720403    3.687562    1.532732
     22          8           0       25.435109    3.039369    2.276110
     23          6           0       25.249833    4.994866    1.179837
     24          7           0       21.410461   -0.782185    2.069552
     25          6           0       22.490656   -0.177458    2.711591
     26          6           0       22.983227   -0.985903    3.924440
     27          6           0       21.839237   -2.044355    4.083108
     28          6           0       21.042847   -1.869231    2.800547
     29          6           0       24.392931   -1.411727    3.906802
     30          6           0       20.922481   -2.033747    5.428311
     31          6           0       20.859821   -3.263624    6.338984
     32          7           0       19.265023   -1.816056    0.501748
     33          6           0       19.283349   -2.888761    1.348390
     34          6           0       18.317229   -3.863131    0.967096
     35          6           0       17.654695   -3.209498   -0.141180
     36          6           0       18.346698   -1.998901   -0.425347
     37          6           0       18.076940   -5.130794    1.694664
     38          6           0       16.531407   -3.318648   -1.043357
     39          8           0       15.619176   -4.112336   -1.165847
     40          6           0       16.668054   -1.977447   -1.977332
     41          6           0       16.619920   -2.313530   -3.423199
     42          8           0       17.480318   -2.945506   -3.995956
     43          8           0       15.522834   -1.826597   -4.029121
     44          6           0       15.485753   -1.880367   -5.541037
     45          1           0       20.817736    3.552862   -2.285814
     46          1           0       24.028190    1.392527    2.886724
     47          1           0       20.160947   -3.735905    3.197108
     48          1           0       17.934096    0.109782   -3.851018
     49          1           0       18.554989    2.889450   -3.335882
     50          1           0       20.800124    1.487008   -4.030103
     51          1           0       19.956613    2.812438   -4.992306
     52          1           0       19.579992    1.059790   -5.178871
     53          1           0       16.469404    1.939665   -1.973187
     54          1           0       15.708479    0.657635   -2.974170
     55          1           0       16.916801    3.055103   -4.414499
     56          1           0       15.392125    3.249858   -3.580071
     57          1           0       22.252275    5.003888   -1.875085
     58          1           0       23.900757    4.599354   -1.592513
     59          1           0       23.126033    5.694585   -0.492605
     60          1           0       25.341129    5.282480    0.132943
     61          1           0       26.198132    5.258671    1.647881
     62          1           0       24.549159    5.661696    1.681888
     63          1           0       22.845262   -0.208313    4.676216
     64          1           0       22.429164   -2.949875    3.942171
     65          1           0       25.044892   -0.997278    4.676223
     66          1           0       24.804232   -1.137042    2.935120
     67          1           0       24.535620   -2.483921    4.040905
     68          1           0       19.896890   -1.832315    5.119561
     69          1           0       21.109717   -1.244578    6.157486
     70          1           0       19.948752   -3.855778    6.249051
     71          1           0       21.126493   -3.077592    7.378972
     72          1           0       21.603420   -3.972632    5.974761
     73          1           0       19.040509   -5.588838    1.916641
     74          1           0       17.409918   -5.804394    1.157332
     75          1           0       17.757270   -4.867588    2.703461
     76          1           0       15.775461   -1.389306   -1.766570
     77          1           0       14.418544   -1.791231   -5.742812
     78          1           0       15.902187   -2.833695   -5.865754
     79          1           0       16.013865   -0.995580   -5.896797
     80         12           0      -20.435145   -0.172247    0.079342
     81          6           0      -18.200434    2.442906    0.049208
     82          6           0      -18.190009   -2.247849   -1.462944
     83          6           0      -22.657999   -2.870752    0.299347
     84          6           0      -22.415277    1.518364    2.348069
     85          7           0      -18.339017    0.091645   -0.408402
     86          6           0      -17.629080    1.290050   -0.521994
     87          6           0      -16.212822    1.053507   -1.052591
     88          6           0      -16.397570   -0.367760   -1.642410
     89          6           0      -17.707528   -0.952023   -1.075160
     90          6           0      -16.264730   -0.407622   -3.180542
     91          6           0      -15.150534    1.136465    0.061420
     92          6           0      -13.819213    1.888268   -0.285161
     93          1           0      -12.599549    1.403799    0.396480
     94          7           0      -20.429284   -2.201354   -0.541456
     95          6           0      -19.459398   -2.839956   -1.235235
     96          6           0      -19.880149   -4.111516   -1.742692
     97          6           0      -21.223906   -4.269050   -1.365447
     98          6           0      -21.518190   -3.051104   -0.502351
     99          6           0      -19.037210   -4.997074   -2.662620
    100          6           0      -22.169303   -5.477728   -1.705407
    101          8           0      -21.681758   -6.465155   -2.312852
    102          6           0      -23.729019   -5.491365   -1.400895
    103          7           0      -22.125977   -0.725965    1.406471
    104          6           0      -22.922603   -1.798833    1.180530
    105          6           0      -24.217005   -1.742090    1.950497
    106          6           0      -24.145640   -0.370050    2.654906
    107          6           0      -22.846797    0.207215    2.086437
    108          6           0      -25.501034   -1.983192    1.089346
    109          6           0      -24.256420   -0.470848    4.250599
    110          6           0      -25.607400   -0.031765    4.827133
    111          7           0      -20.394506    1.629624    0.985045
    112          6           0      -21.285516    2.249917    1.888317
    113          6           0      -20.919282    3.664836    2.034669
    114          6           0      -19.767685    3.773378    1.267606
    115          6           0      -19.452792    2.494774    0.778832
    116          6           0      -21.566237    4.746364    2.823583
    117          6           0      -18.724088    4.716660    0.841444
    118          8           0      -18.657986    5.955854    0.893205
    119          6           0      -17.676671    3.895339   -0.012278
    120          6           0      -17.591134    4.419272   -1.439542
    121          8           0      -18.524996    4.716377   -2.191216
    122          8           0      -16.250293    4.544114   -1.651782
    123          6           0      -15.846736    5.196911   -2.885936
    124          1           0      -17.485208   -2.917722   -1.959731
    125          1           0      -23.466079   -3.601527    0.373775
    126          1           0      -23.002074    2.111579    3.052255
    127          1           0      -15.970327    1.812738   -1.796883
    128          1           0      -15.553937   -0.919973   -1.228466
    129          1           0      -15.737196    0.395451   -3.695165
    130          1           0      -17.283802   -0.342707   -3.561533
    131          1           0      -15.791325   -1.325028   -3.529547
    132          1           0      -14.909173    0.163965    0.489617
    133          1           0      -15.669028    1.588038    0.907545
    134          1           0      -13.941067    2.946533   -0.054394
    135          1           0      -13.613980    1.751904   -1.347864
    136          1           0      -19.641098   -5.145647   -3.557513
    137          1           0      -18.660054   -5.853523   -2.103603
    138          1           0      -18.205808   -4.359118   -2.962291
    139          1           0      -23.830694   -5.825062   -0.368890
    140          1           0      -24.161706   -6.230595   -2.074600
    141          1           0      -24.112692   -4.527384   -1.736110
    142          1           0      -24.198748   -2.538592    2.694485
    143          1           0      -24.843756    0.390743    2.306507
    144          1           0      -26.277931   -1.253104    1.314616
    145          1           0      -25.926687   -2.975173    1.239552
    146          1           0      -25.226657   -1.980952    0.035254
    147          1           0      -23.541124    0.175203    4.759424
    148          1           0      -23.991764   -1.475560    4.579980
    149          1           0      -25.886330   -0.689725    5.650359
    150          1           0      -26.372365   -0.085410    4.052804
    151          1           0      -25.617488    0.992288    5.199929
    152          1           0      -22.489295    4.339903    3.236978
    153          1           0      -21.579447    5.671002    2.246208
    154          1           0      -20.935685    4.891424    3.701429
    155          1           0      -16.686782    3.882407    0.444628
    156          1           0      -16.399471    4.862106   -3.764631
    157          1           0      -14.790318    5.148926   -3.150026
    158          1           0      -16.009986    6.271664   -2.802205
 ---------------------------------------------------------------------

 SCF Done:  E(RwB97XD) =  -4070.62925467     A.U. after   19 cycles

 Excitation energies and oscillator strengths:

 Excited State   1:      Singlet-A      1.6387 eV  756.62 nm  f=0.3892  <S**2>=0.000
     309 -> 316        0.18463
     311 -> 313        0.68346
     309 <- 316        0.11770
 This state for optimization and/or second-order correction.
 Total Energy, E(TD-HF/TD-DFT) =  -4070.56903493
 Copying the excited state density for this state as the 1-particle RhoCI density.

 Excited State   2:      Singlet-A      1.6651 eV  744.61 nm  f=0.3692  <S**2>=0.000
     310 -> 315        0.17862
     312 -> 314        0.68375
     310 <- 315        0.11333

 Excited State   3:      Singlet-A      2.1629 eV  573.23 nm  f=0.0919  <S**2>=0.000
     309 -> 313        0.63065
     311 -> 316       -0.30291

 Excited State   4:      Singlet-A      2.1965 eV  564.46 nm  f=0.0912  <S**2>=0.000
     310 -> 314        0.62321
     312 -> 315       -0.31714

 Excited State   5:      Singlet-A      3.2557 eV  380.83 nm  f=0.0003  <S**2>=0.000
     307 -> 313        0.22824
     308 -> 313        0.64118

 The electronic state is 1-A.
 Alpha  occ. eigenvalues --  -46.95514 -46.94228 -19.31567 -19.29642 -19.25199
 Alpha  occ. eigenvalues --  -19.24781 -19.24110 -19.23725 -19.23462 -19.23205
 Alpha  occ. eigenvalues --  -14.47339 -14.47016 -14.46751 -14.46617 -14.44861
 Alpha  occ. eigenvalues --  -14.43697 -14.43661 -14.43034 -10.43798 -10.41803
 Alpha  occ. eigenvalues --  -10.40751 -10.39555 -10.38744 -10.38682 -10.36314
 Alpha  occ. eigenvalues --  -10.35867 -10.35774 -10.35733 -10.35669 -10.35230
 Alpha  occ. eigenvalues --  -10.35143 -10.35126 -10.35101 -10.34513 -10.34453
 Alpha  occ. eigenvalues --  -10.34421 -10.33868 -10.33752 -10.33629 -10.33604
 Alpha  occ. eigenvalues --  -10.32993 -10.32752 -10.32698 -10.32544 -10.32461
 Alpha  occ. eigenvalues --  -10.32389 -10.32211 -10.32191 -10.32182 -10.32126
 Alpha  occ. eigenvalues --  -10.32114 -10.32055 -10.31988 -10.31966 -10.31777
 Alpha  occ. eigenvalues --  -10.31757 -10.31701 -10.31636 -10.31583 -10.31494
 Alpha  occ. eigenvalues --  -10.31395 -10.31382 -10.31324 -10.31239 -10.31201
 Alpha  occ. eigenvalues --  -10.31139 -10.31009 -10.30989 -10.30973 -10.30959
 Alpha  occ. eigenvalues --  -10.30919 -10.30900 -10.30826 -10.30624 -10.30498
 Alpha  occ. eigenvalues --  -10.30248 -10.30133 -10.30021 -10.29924 -10.29783
 Alpha  occ. eigenvalues --  -10.29598 -10.29551 -10.29404 -10.29332 -10.29314
 Alpha  occ. eigenvalues --  -10.28557  -3.21492  -3.20305  -1.95046  -1.94601
 Alpha  occ. eigenvalues --   -1.94487  -1.93916  -1.93431  -1.93282  -1.19007
 Alpha  occ. eigenvalues --   -1.18021  -1.13202  -1.11744  -1.10896  -1.10534
 Alpha  occ. eigenvalues --   -1.09939  -1.08929  -1.07241  -1.06663  -1.06136
 Alpha  occ. eigenvalues --   -1.06017  -1.05580  -1.05344  -1.04421  -1.04160
 Alpha  occ. eigenvalues --   -0.94405  -0.93348  -0.91077  -0.90805  -0.90708
 Alpha  occ. eigenvalues --   -0.90583  -0.90553  -0.90284  -0.89503  -0.89177
 Alpha  occ. eigenvalues --   -0.88948  -0.88924  -0.88656  -0.88379  -0.86542
 Alpha  occ. eigenvalues --   -0.86225  -0.85761  -0.85609  -0.84567  -0.84396
 Alpha  occ. eigenvalues --   -0.84381  -0.83561  -0.83351  -0.83077  -0.82717
 Alpha  occ. eigenvalues --   -0.82126  -0.80770  -0.79856  -0.79723  -0.79424
 Alpha  occ. eigenvalues --   -0.79205  -0.78680  -0.77843  -0.77798  -0.77233
 Alpha  occ. eigenvalues --   -0.77104  -0.74779  -0.74683  -0.73804  -0.73707
 Alpha  occ. eigenvalues --   -0.71309  -0.71112  -0.70905  -0.70845  -0.70238
 Alpha  occ. eigenvalues --   -0.69821  -0.69272  -0.68940  -0.68038  -0.67548
 Alpha  occ. eigenvalues --   -0.67376  -0.67064  -0.66963  -0.66622  -0.66559
 Alpha  occ. eigenvalues --   -0.66213  -0.64655  -0.63431  -0.62538  -0.61901
 Alpha  occ. eigenvalues --   -0.61710  -0.61598  -0.60970  -0.60932  -0.60823
 Alpha  occ. eigenvalues --   -0.60591  -0.59973  -0.59687  -0.59239  -0.59208
 Alpha  occ. eigenvalues --   -0.58340  -0.57983  -0.57758  -0.57721  -0.57298
 Alpha  occ. eigenvalues --   -0.57228  -0.56952  -0.56724  -0.56495  -0.55772
 Alpha  occ. eigenvalues --   -0.55706  -0.55312  -0.55111  -0.55099  -0.54912
 Alpha  occ. eigenvalues --   -0.54756  -0.54548  -0.54528  -0.54236  -0.54037
 Alpha  occ. eigenvalues --   -0.53902  -0.53518  -0.53278  -0.53256  -0.53157
 Alpha  occ. eigenvalues --   -0.53029  -0.52923  -0.52776  -0.52773  -0.52460
 Alpha  occ. eigenvalues --   -0.52270  -0.51854  -0.51848  -0.51390  -0.51368
 Alpha  occ. eigenvalues --   -0.51264  -0.51232  -0.51056  -0.51013  -0.50914
 Alpha  occ. eigenvalues --   -0.50559  -0.50419  -0.50234  -0.50184  -0.50077
 Alpha  occ. eigenvalues --   -0.49739  -0.49677  -0.49653  -0.49388  -0.49381
 Alpha  occ. eigenvalues --   -0.49108  -0.49054  -0.48809  -0.48785  -0.48515
 Alpha  occ. eigenvalues --   -0.48510  -0.48500  -0.48281  -0.48182  -0.48027
 Alpha  occ. eigenvalues --   -0.47966  -0.47443  -0.47140  -0.47082  -0.47033
 Alpha  occ. eigenvalues --   -0.46746  -0.46724  -0.46340  -0.46333  -0.46195
 Alpha  occ. eigenvalues --   -0.46061  -0.45931  -0.45693  -0.45657  -0.45646
 Alpha  occ. eigenvalues --   -0.45445  -0.45288  -0.45195  -0.44921  -0.44800
 Alpha  occ. eigenvalues --   -0.44656  -0.44500  -0.44363  -0.44089  -0.43986
 Alpha  occ. eigenvalues --   -0.43883  -0.43735  -0.43480  -0.43473  -0.43225
 Alpha  occ. eigenvalues --   -0.43066  -0.42832  -0.42708  -0.42494  -0.42296
 Alpha  occ. eigenvalues --   -0.42110  -0.41600  -0.41449  -0.41262  -0.41194
 Alpha  occ. eigenvalues --   -0.40707  -0.40671  -0.40279  -0.40060  -0.39763
 Alpha  occ. eigenvalues --   -0.39409  -0.39218  -0.38906  -0.38901  -0.38377
 Alpha  occ. eigenvalues --   -0.38291  -0.38076  -0.36839  -0.36768  -0.36226
 Alpha  occ. eigenvalues --   -0.36048  -0.35269  -0.34980  -0.33735  -0.33297
 Alpha  occ. eigenvalues --   -0.33265  -0.33186  -0.32683  -0.32397  -0.32232
 Alpha  occ. eigenvalues --   -0.31933  -0.31910  -0.31225  -0.26131  -0.26124
 Alpha  occ. eigenvalues --   -0.22936  -0.22893
 Alpha virt. eigenvalues --   -0.07166  -0.06906  -0.00113   0.00029   0.02250
 Alpha virt. eigenvalues --    0.02671   0.04072   0.04823   0.04824   0.06471
 Alpha virt. eigenvalues --    0.07162   0.07332   0.07424   0.07921   0.08434

 Mulliken charges:
               1
     1  Mg   0.969867
     2  C    0.027087
     3  C   -0.088595
     4  C   -0.071687
     5  C   -0.105519
     6  N   -0.331545
     7  C   -0.006831
     8  C   -0.044349
     9  C   -0.151657
    10  C    0.059794
    11  C    0.050732
    12  C    0.000318
    13  C   -0.115527
    14  H    0.029124
    15  N   -0.488372
    16  C    0.172451
    17  C   -0.166761
    18  C   -0.057450
    19  C    0.125896
    20  C    0.053473
    21  C    0.071690
    22  O   -0.233734
    23  C   -0.004710
    24  N   -0.422652
    25  C    0.060505
    26  C   -0.086670
    27  C   -0.053621
    28  C    0.048597
    29  C    0.042965
    30  C   -0.002769
    31  C   -0.069041
    32  N   -0.373736
    33  C    0.159830
    34  C   -0.166731
    35  C   -0.076292
    36  C    0.113180
    37  C    0.102557
    38  C    0.145443
    39  O   -0.193153
    40  C   -0.138549
    41  C    0.241219
    42  O   -0.254342
    43  O   -0.372484
    44  C    0.133485
    45  H   -0.016255
    46  H    0.028725
    47  H    0.001743
    48  H    0.035353
    49  H    0.021842
    50  H    0.039180
    51  H    0.043591
    52  H    0.038583
    53  H    0.034496
    54  H    0.060943
    55  H    0.043684
    56  H    0.059111
    57  H    0.039666
    58  H    0.049833
    59  H    0.047143
    60  H    0.056662
    61  H    0.050169
    62  H    0.049779
    63  H    0.038400
    64  H    0.031809
    65  H    0.040584
    66  H    0.046739
    67  H    0.027946
    68  H    0.036103
    69  H    0.035538
    70  H    0.039391
    71  H    0.045778
    72  H    0.018531
    73  H    0.034835
    74  H    0.072738
    75  H    0.044359
    76  H    0.067385
    77  H    0.062642
    78  H    0.082030
    79  H    0.059511
    80  Mg   0.973154
    81  C   -0.080584
    82  C   -0.110008
    83  C   -0.086375
    84  C   -0.082947
    85  N   -0.403958
    86  C   -0.008425
    87  C   -0.052759
    88  C   -0.092061
    89  C    0.125888
    90  C    0.013987
    91  C    0.023088
    92  C   -0.127696
    93  H    0.043665
    94  N   -0.430217
    95  C    0.153036
    96  C   -0.190480
    97  C   -0.078542
    98  C    0.194794
    99  C    0.116278
   100  C    0.044318
   101  O   -0.256205
   102  C   -0.009041
   103  N   -0.325025
   104  C    0.022948
   105  C   -0.076437
   106  C   -0.052179
   107  C    0.038358
   108  C    0.010492
   109  C   -0.007619
   110  C   -0.058079
   111  N   -0.440819
   112  C    0.101314
   113  C   -0.206463
   114  C   -0.043982
   115  C    0.153254
   116  C    0.107350
   117  C    0.155545
   118  O   -0.229758
   119  C   -0.059885
   120  C    0.289102
   121  O   -0.247467
   122  O   -0.356400
   123  C    0.133490
   124  H    0.007860
   125  H   -0.019731
   126  H   -0.011123
   127  H    0.025024
   128  H    0.032747
   129  H    0.036826
   130  H    0.034811
   131  H    0.038452
   132  H    0.030695
   133  H    0.030135
   134  H    0.066414
   135  H    0.049608
   136  H    0.065629
   137  H    0.072187
   138  H    0.012169
   139  H    0.080659
   140  H    0.058272
   141  H    0.060605
   142  H    0.046747
   143  H    0.034028
   144  H    0.046856
   145  H    0.033559
   146  H    0.037733
   147  H    0.032985
   148  H    0.028792
   149  H    0.039095
   150  H    0.028604
   151  H    0.041125
   152  H    0.021201
   153  H    0.075348
   154  H    0.050494
   155  H    0.064451
   156  H    0.055255
   157  H    0.052205
   158  H    0.053632
 Sum of Mulliken charges =  -0.00000

 Dipole moment (field-independent basis, Debye):
    X=              0.2336    Y=              2.8056    Z=              1.2208  Tot=              3.0686
 Quadrupole moment (field-independent basis, Debye-Ang):
   XX=           -396.6794   YY=           -552.4238   ZZ=           -475.0020
   XY=            145.2629   XZ=            -11.2471   YZ=            -40.1611

 Normal termination of Gaussian 16 at Mon Sep 20 04:41:37 2021.
