 Gaussian 16, Revision A.03,
 Gaussian 16:  ES64L-G16RevA.03 25-Dec-2016

 --------------------------------
 #p wB97XD/Def2SVP td=(nstates=5)
 --------------------------------

 --------------------------------
 TDDFT excited states in gaussian
 --------------------------------
 Symbolic Z-matrix:
 Charge =  0 Multiplicity = 1

                         Standard orientation:
 ---------------------------------------------------------------------
 Center     Atomic      Atomic             Coordinates (Angstroms)
 Number     Number       Type             X           Y           Z
 ---------------------------------------------------------------------
      1         12           0        9.897475    0.710314   -0.174089
      2          6           0        7.899321   -1.668931   -1.890199
      3          6           0        7.894386    3.190667   -1.589224
      4          6           0       10.936412    2.671620    2.256966
      5          6           0       11.573800   -2.154391    1.371021
      6          7           0        7.892552    0.704157   -1.425513
      7          6           0        7.488047   -0.344531   -2.184290
      8          6           0        6.495073    0.141648   -3.224718
      9          6           0        6.926515    1.581248   -3.505132
     10          6           0        7.574450    1.883803   -2.058880
     11          6           0        7.968680    1.832061   -4.596610
     12          6           0        5.012585   -0.079404   -2.691610
     13          6           0        4.124237   -0.656454   -3.722522
     14          1           0        2.694028   -0.092415   -3.828967
     15          7           0        9.452811    2.703801    0.346167
     16          6           0        8.654710    3.583535   -0.426552
     17          6           0        8.719999    4.868129    0.223622
     18          6           0        9.651981    4.821954    1.294185
     19          6           0       10.058026    3.374113    1.382242
     20          6           0        7.904061    6.046498   -0.298515
     21          6           0        9.998909    5.936871    2.199811
     22          8           0        9.460021    7.023705    2.030931
     23          6           0       10.891545    5.881064    3.395902
     24          7           0       11.057625    0.230533    1.677324
     25          6           0       11.477507    1.322625    2.346503
     26          6           0       12.536076    0.942778    3.397689
     27          6           0       12.884970   -0.608209    3.033147
     28          6           0       11.823503   -0.883323    1.936734
     29          6           0       13.768347    1.950845    3.491920
     30          6           0       12.856550   -1.604398    4.234350
     31          6           0       11.563760   -2.466137    4.436718
     32          7           0        9.806344   -1.384854   -0.216738
     33          6           0       10.596234   -2.387187    0.415135
     34          6           0       10.272428   -3.735380   -0.226192
     35          6           0        9.208930   -3.442318   -1.064833
     36          6           0        8.986366   -2.019090   -1.032810
     37          6           0       10.850392   -5.149850   -0.027555
     38          6           0        8.302043   -4.002675   -2.015704
     39          8           0        8.218502   -5.149049   -2.459482
     40          6           0        7.392581   -2.891892   -2.403367
     41          6           0        6.064518   -3.273207   -1.710227
     42          8           0        5.774184   -3.125462   -0.524964
     43          8           0        5.248059   -3.906419   -2.688038
     44          6           0        4.022337   -4.459281   -2.275377
     45          1           0        7.369011    4.019993   -2.067678
     46          1           0       11.356570    3.439016    2.910110
     47          1           0       12.119641   -3.054087    1.660300
     48          1           0        6.597804   -0.360328   -4.186666
     49          1           0        6.187885    2.338908   -3.764288
     50          1           0        8.072331    1.009246   -5.303366
     51          1           0        8.892845    2.237702   -4.184210
     52          1           0        7.511452    2.641722   -5.166559
     53          1           0        4.594123    0.889588   -2.419285
     54          1           0        4.953609   -0.598375   -1.734842
     55          1           0        4.130867   -1.711121   -3.449663
     56          1           0        4.595849   -0.517572   -4.695235
     57          1           0        8.509475    6.778942   -0.832107
     58          1           0        7.343955    6.476791    0.530396
     59          1           0        7.157034    5.701423   -1.013486
     60          1           0       11.912988    5.720605    3.050054
     61          1           0       10.645314    5.121418    4.138809
     62          1           0       11.017242    6.863949    3.848410
     63          1           0       11.964840    0.940214    4.325768
     64          1           0       13.842042   -0.633524    2.513210
     65          1           0       13.493797    2.941103    3.128712
     66          1           0       14.734942    1.646240    3.088908
     67          1           0       14.035852    1.892175    4.548117
     68          1           0       13.076311   -1.116655    5.183694
     69          1           0       13.664964   -2.288992    3.978785
     70          1           0       11.637965   -2.515285    5.523331
     71          1           0       11.550967   -3.477233    4.029163
     72          1           0       10.712801   -1.859196    4.126858
     73          1           0       11.239738   -5.548010   -0.963911
     74          1           0        9.896732   -5.654337    0.124817
     75          1           0       11.473515   -5.127075    0.866215
     76          1           0        7.244013   -2.904299   -3.483184
     77          1           0        3.450206   -4.940788   -3.069397
     78          1           0        3.417674   -3.645943   -1.876162
     79          1           0        4.288823   -5.193312   -1.514399
     80         12           0       -9.660422    0.327939    0.028129
     81          6           0       -6.748172   -1.822880    0.062087
     82          6           0       -7.718064    2.583779   -1.227186
     83          6           0      -12.351393    2.205457    0.338199
     84          6           0      -11.421098   -2.032770    2.158087
     85          7           0       -7.460996    0.298485   -0.634776
     86          6           0       -6.448757   -0.633898   -0.540520
     87          6           0       -5.177115   -0.070643   -1.064488
     88          6           0       -5.408049    1.461316   -1.006207
     89          6           0       -6.951742    1.479719   -0.907886
     90          6           0       -4.770825    2.156190    0.217063
     91          6           0       -4.983506   -0.503174   -2.549871
     92          6           0       -3.537043   -0.982554   -2.959195
     93          1           0       -3.333459   -1.864528   -4.254842
     94          7           0       -9.979288    2.230643   -0.469904
     95          6           0       -9.110728    2.992258   -1.080014
     96          6           0       -9.763560    4.243431   -1.416254
     97          6           0      -11.117619    4.038095   -1.061222
     98          6           0      -11.177098    2.792058   -0.346303
     99          6           0       -9.010491    5.349623   -2.177327
    100          6           0      -12.259995    4.980145   -1.321078
    101          8           0      -13.360559    4.708749   -0.943629
    102          6           0      -12.022446    6.205083   -2.142649
    103          7           0      -11.548423    0.176894    1.387304
    104          6           0      -12.501009    1.066636    1.116062
    105          6           0      -13.818507    0.656275    1.658190
    106          6           0      -13.423451   -0.646743    2.422703
    107          6           0      -12.004347   -0.899372    1.986762
    108          6           0      -14.637366    1.714325    2.481747
    109          6           0      -14.424225   -1.823444    2.097551
    110          6           0      -15.466331   -2.264939    3.162697
    111          7           0       -9.278777   -1.461949    0.921350
    112          6           0      -10.061603   -2.359559    1.681303
    113          6           0       -9.276240   -3.579120    1.962250
    114          6           0       -8.047163   -3.391031    1.344327
    115          6           0       -8.044098   -2.128340    0.776260
    116          6           0       -9.718665   -4.729207    2.899077
    117          6           0       -6.732945   -4.073833    1.117211
    118          8           0       -6.294548   -5.163224    1.402165
    119          6           0       -5.761760   -3.000077    0.412522
    120          6           0       -5.026273   -3.575371   -0.653079
    121          8           0       -5.432462   -3.546910   -1.823226
    122          8           0       -3.837510   -4.217143   -0.319958
    123          6           0       -2.924904   -4.665272   -1.416222
    124          1           0       -7.187952    3.416183   -1.693335
    125          1           0      -13.265205    2.801213    0.385985
    126          1           0      -11.939526   -2.756188    2.789240
    127          1           0       -4.361878   -0.290165   -0.374571
    128          1           0       -5.053081    2.039505   -1.859094
    129          1           0       -4.045561    2.904568   -0.103729
    130          1           0       -4.274830    1.379693    0.798681
    131          1           0       -5.483097    2.627302    0.895010
    132          1           0       -5.226693    0.387338   -3.129773
    133          1           0       -5.744554   -1.259936   -2.739095
    134          1           0       -3.105467   -1.494105   -2.099298
    135          1           0       -3.015050   -0.035228   -3.099250
    136          1           0       -9.468942    5.463077   -3.160555
    137          1           0       -7.932493    5.219347   -2.266051
    138          1           0       -9.215255    6.320291   -1.726598
    139          1           0      -11.708923    5.970709   -3.159598
    140          1           0      -11.200379    6.851291   -1.835077
    141          1           0      -12.964775    6.743482   -2.246899
    142          1           0      -14.446450    0.372933    0.813487
    143          1           0      -13.347838   -0.429049    3.488284
    144          1           0      -14.088906    2.652249    2.401057
    145          1           0      -14.900400    1.455924    3.508094
    146          1           0      -15.617679    1.824220    2.017748
    147          1           0      -13.849903   -2.726767    1.890169
    148          1           0      -14.790131   -1.601312    1.095126
    149          1           0      -16.444723   -2.381324    2.696823
    150          1           0      -15.499061   -1.528283    3.965603
    151          1           0      -15.199516   -3.235710    3.582167
    152          1           0      -10.802387   -4.816199    2.826320
    153          1           0       -9.523309   -4.441713    3.932433
    154          1           0       -9.238274   -5.674112    2.644092
    155          1           0       -5.068122   -2.632432    1.168128
    156          1           0       -2.557153   -3.815263   -1.992711
    157          1           0       -3.335625   -5.518171   -1.955233
    158          1           0       -1.989822   -4.956059   -0.937677
 ---------------------------------------------------------------------

 SCF Done:  E(RwB97XD) =  -4070.53406849     A.U. after   19 cycles

 Excitation energies and oscillator strengths:

 Excited State   1:      Singlet-A      1.6239 eV  763.49 nm  f=0.3038  <S**2>=0.000
     309 -> 315       -0.20385
     312 -> 314        0.67671
     309 <- 315       -0.12265
 This state for optimization and/or second-order correction.
 Total Energy, E(TD-HF/TD-DFT) =  -4070.47439078
 Copying the excited state density for this state as the 1-particle RhoCI density.

 Excited State   2:      Singlet-A      1.6948 eV  731.57 nm  f=0.4129  <S**2>=0.000
     310 -> 316        0.16801
     311 -> 313        0.68529
     310 <- 316        0.11025

 Excited State   3:      Singlet-A      2.1221 eV  584.26 nm  f=0.2413  <S**2>=0.000
     309 -> 314        0.10173
     310 -> 313        0.66301
     311 -> 316       -0.20235

 Excited State   4:      Singlet-A      2.1343 eV  580.91 nm  f=0.0445  <S**2>=0.000
     309 -> 314        0.60421
     310 -> 313       -0.10950
     312 -> 315        0.33823

 Excited State   5:      Singlet-A      3.4931 eV  354.94 nm  f=0.0000  <S**2>=0.000
     312 -> 313        0.70696

 The electronic state is 1-A.
 Alpha  occ. eigenvalues --  -46.97757 -46.95714 -19.30081 -19.29131 -19.26463
 Alpha  occ. eigenvalues --  -19.24552 -19.24257 -19.24086 -19.23392 -19.22670
 Alpha  occ. eigenvalues --  -14.47085 -14.46617 -14.46321 -14.44934 -14.44667
 Alpha  occ. eigenvalues --  -14.44446 -14.44348 -14.44300 -10.44620 -10.42261
 Alpha  occ. eigenvalues --  -10.39860 -10.39066 -10.38678 -10.38157 -10.35939
 Alpha  occ. eigenvalues --  -10.35564 -10.35555 -10.35470 -10.35332 -10.35227
 Alpha  occ. eigenvalues --  -10.35147 -10.35025 -10.34958 -10.34926 -10.34670
 Alpha  occ. eigenvalues --  -10.34214 -10.34009 -10.33957 -10.33764 -10.33668
 Alpha  occ. eigenvalues --  -10.33594 -10.33519 -10.33287 -10.32912 -10.32911
 Alpha  occ. eigenvalues --  -10.32779 -10.32649 -10.32586 -10.32574 -10.32359
 Alpha  occ. eigenvalues --  -10.32352 -10.32188 -10.32168 -10.32072 -10.32049
 Alpha  occ. eigenvalues --  -10.31900 -10.31874 -10.31835 -10.31738 -10.31719
 Alpha  occ. eigenvalues --  -10.31560 -10.31272 -10.31250 -10.31232 -10.31232
 Alpha  occ. eigenvalues --  -10.31140 -10.31103 -10.30796 -10.30739 -10.30501
 Alpha  occ. eigenvalues --  -10.30340 -10.30335 -10.30327 -10.30219 -10.30064
 Alpha  occ. eigenvalues --  -10.29960 -10.29823 -10.29714 -10.29568 -10.29540
 Alpha  occ. eigenvalues --  -10.29479 -10.29332 -10.29302 -10.29295 -10.29137
 Alpha  occ. eigenvalues --  -10.29012  -3.23461  -3.21694  -1.96976  -1.96624
 Alpha  occ. eigenvalues --   -1.96372  -1.95268  -1.94824  -1.94655  -1.18114
 Alpha  occ. eigenvalues --   -1.16261  -1.14368  -1.12971  -1.11942  -1.11644
 Alpha  occ. eigenvalues --   -1.10981  -1.08464  -1.07766  -1.06906  -1.06849
 Alpha  occ. eigenvalues --   -1.06309  -1.05542  -1.04965  -1.03393  -1.02894
 Alpha  occ. eigenvalues --   -0.96507  -0.93120  -0.91168  -0.91073  -0.90749
 Alpha  occ. eigenvalues --   -0.90711  -0.89820  -0.89764  -0.89708  -0.89551
 Alpha  occ. eigenvalues --   -0.89300  -0.88887  -0.87614  -0.87058  -0.86810
 Alpha  occ. eigenvalues --   -0.86206  -0.85661  -0.84881  -0.84715  -0.84016
 Alpha  occ. eigenvalues --   -0.83854  -0.83652  -0.82911  -0.82813  -0.82337
 Alpha  occ. eigenvalues --   -0.82314  -0.80709  -0.80077  -0.79294  -0.78982
 Alpha  occ. eigenvalues --   -0.78919  -0.78540  -0.78076  -0.78061  -0.77319
 Alpha  occ. eigenvalues --   -0.77242  -0.74839  -0.74658  -0.73928  -0.73021
 Alpha  occ. eigenvalues --   -0.71911  -0.71141  -0.70821  -0.70659  -0.69905
 Alpha  occ. eigenvalues --   -0.69385  -0.69218  -0.68943  -0.67984  -0.67472
 Alpha  occ. eigenvalues --   -0.67424  -0.67004  -0.66915  -0.66795  -0.66652
 Alpha  occ. eigenvalues --   -0.66169  -0.64331  -0.63430  -0.62990  -0.62032
 Alpha  occ. eigenvalues --   -0.61998  -0.61863  -0.61376  -0.60991  -0.60974
 Alpha  occ. eigenvalues --   -0.60366  -0.59970  -0.59461  -0.59106  -0.59103
 Alpha  occ. eigenvalues --   -0.58512  -0.58204  -0.58030  -0.57719  -0.57573
 Alpha  occ. eigenvalues --   -0.57412  -0.56951  -0.56619  -0.55858  -0.55761
 Alpha  occ. eigenvalues --   -0.55751  -0.55379  -0.55302  -0.55082  -0.54957
 Alpha  occ. eigenvalues --   -0.54682  -0.54536  -0.54316  -0.54204  -0.53986
 Alpha  occ. eigenvalues --   -0.53868  -0.53710  -0.53707  -0.53445  -0.53354
 Alpha  occ. eigenvalues --   -0.53163  -0.52584  -0.52471  -0.52166  -0.52122
 Alpha  occ. eigenvalues --   -0.52011  -0.51990  -0.51732  -0.51573  -0.51498
 Alpha  occ. eigenvalues --   -0.51472  -0.51270  -0.51112  -0.51006  -0.50679
 Alpha  occ. eigenvalues --   -0.50583  -0.50519  -0.50254  -0.50164  -0.49881
 Alpha  occ. eigenvalues --   -0.49808  -0.49632  -0.49495  -0.49408  -0.49291
 Alpha  occ. eigenvalues --   -0.49199  -0.48874  -0.48312  -0.48101  -0.48076
 Alpha  occ. eigenvalues --   -0.47998  -0.47947  -0.47889  -0.47642  -0.47471
 Alpha  occ. eigenvalues --   -0.47390  -0.47343  -0.47238  -0.47175  -0.46815
 Alpha  occ. eigenvalues --   -0.46668  -0.46587  -0.46456  -0.46451  -0.46365
 Alpha  occ. eigenvalues --   -0.46136  -0.45902  -0.45878  -0.45535  -0.45359
 Alpha  occ. eigenvalues --   -0.45314  -0.45207  -0.45077  -0.44837  -0.44670
 Alpha  occ. eigenvalues --   -0.44597  -0.44446  -0.44095  -0.44068  -0.43706
 Alpha  occ. eigenvalues --   -0.43607  -0.43402  -0.43134  -0.43085  -0.42998
 Alpha  occ. eigenvalues --   -0.42846  -0.42496  -0.42397  -0.42208  -0.42060
 Alpha  occ. eigenvalues --   -0.42031  -0.41722  -0.41701  -0.41131  -0.40633
 Alpha  occ. eigenvalues --   -0.40261  -0.40190  -0.40005  -0.39733  -0.39507
 Alpha  occ. eigenvalues --   -0.39040  -0.38717  -0.38434  -0.38402  -0.38109
 Alpha  occ. eigenvalues --   -0.37844  -0.37659  -0.37293  -0.36326  -0.35709
 Alpha  occ. eigenvalues --   -0.35493  -0.34975  -0.34698  -0.33911  -0.33626
 Alpha  occ. eigenvalues --   -0.33558  -0.33215  -0.33073  -0.32808  -0.32693
 Alpha  occ. eigenvalues --   -0.32239  -0.31727  -0.31726  -0.26061  -0.25398
 Alpha  occ. eigenvalues --   -0.23398  -0.22928
 Alpha virt. eigenvalues --   -0.07358  -0.06975  -0.00823   0.01640   0.01757
 Alpha virt. eigenvalues --    0.02837   0.03107   0.04220   0.04780   0.05545
 Alpha virt. eigenvalues --    0.06738   0.06798   0.07449   0.07772   0.08241

 Mulliken charges:
               1
     1  Mg   0.936719
     2  C    0.010852
     3  C   -0.075499
     4  C   -0.029638
     5  C   -0.064250
     6  N   -0.298244
     7  C   -0.021712
     8  C   -0.051811
     9  C   -0.134176
    10  C    0.043812
    11  C    0.038375
    12  C    0.033902
    13  C   -0.116653
    14  H    0.033274
    15  N   -0.490272
    16  C    0.145760
    17  C   -0.165716
    18  C   -0.025047
    19  C    0.111564
    20  C    0.096466
    21  C   -0.007044
    22  O   -0.246659
    23  C    0.014131
    24  N   -0.325792
    25  C    0.062933
    26  C   -0.098340
    27  C   -0.020480
    28  C    0.007718
    29  C    0.005872
    30  C   -0.047149
    31  C   -0.048236
    32  N   -0.422952
    33  C    0.106675
    34  C   -0.210436
    35  C   -0.023480
    36  C    0.162243
    37  C    0.091018
    38  C    0.075956
    39  O   -0.215824
    40  C   -0.055269
    41  C    0.276419
    42  O   -0.229354
    43  O   -0.374746
    44  C    0.144982
    45  H    0.004110
    46  H   -0.047329
    47  H   -0.000523
    48  H    0.012872
    49  H    0.028983
    50  H    0.042310
    51  H    0.047231
    52  H    0.028191
    53  H    0.031913
    54  H    0.056328
    55  H    0.045482
    56  H    0.046776
    57  H    0.058342
    58  H    0.061024
    59  H    0.008889
    60  H    0.040985
    61  H    0.071683
    62  H    0.046951
    63  H    0.050886
    64  H    0.037975
    65  H    0.052361
    66  H    0.034018
    67  H    0.031705
    68  H    0.040375
    69  H    0.031158
    70  H    0.035891
    71  H    0.046615
    72  H    0.060381
    73  H    0.073159
    74  H    0.068257
    75  H    0.039192
    76  H    0.061097
    77  H    0.057902
    78  H    0.040413
    79  H    0.054503
    80  Mg   0.973965
    81  C   -0.021283
    82  C   -0.054171
    83  C   -0.053729
    84  C   -0.110065
    85  N   -0.302068
    86  C   -0.006850
    87  C   -0.073613
    88  C   -0.132714
    89  C    0.070421
    90  C    0.036787
    91  C    0.034163
    92  C   -0.096161
    93  H    0.049136
    94  N   -0.460649
    95  C    0.091456
    96  C   -0.147376
    97  C   -0.078617
    98  C    0.134327
    99  C    0.063186
   100  C    0.051824
   101  O   -0.201476
   102  C   -0.020441
   103  N   -0.271162
   104  C    0.014787
   105  C   -0.095377
   106  C   -0.044731
   107  C    0.058138
   108  C    0.023319
   109  C   -0.029509
   110  C   -0.028125
   111  N   -0.485504
   112  C    0.125969
   113  C   -0.223702
   114  C   -0.055322
   115  C    0.152307
   116  C    0.077587
   117  C    0.163293
   118  O   -0.174678
   119  C   -0.083051
   120  C    0.267093
   121  O   -0.273237
   122  O   -0.389629
   123  C    0.157841
   124  H   -0.025755
   125  H    0.020981
   126  H   -0.000264
   127  H    0.021143
   128  H    0.034826
   129  H    0.042140
   130  H    0.028441
   131  H    0.045358
   132  H    0.024841
   133  H    0.073733
   134  H    0.044292
   135  H    0.037003
   136  H    0.048359
   137  H    0.053725
   138  H    0.042100
   139  H    0.049687
   140  H    0.042956
   141  H    0.056019
   142  H    0.045760
   143  H    0.031682
   144  H    0.049336
   145  H    0.037501
   146  H    0.031898
   147  H    0.020869
   148  H    0.014657
   149  H    0.040042
   150  H    0.034913
   151  H    0.038232
   152  H    0.028568
   153  H    0.052824
   154  H    0.061913
   155  H    0.080773
   156  H    0.043189
   157  H    0.073658
   158  H    0.042236
 Sum of Mulliken charges =  -0.00000

 Dipole moment (field-independent basis, Debye):
    X=              4.9232    Y=              4.5655    Z=             -1.4578  Tot=              6.8707
 Quadrupole moment (field-independent basis, Debye-Ang):
   XX=           -410.6285   YY=           -555.7104   ZZ=           -490.9133
   XY=            -29.7295   XZ=             10.9974   YZ=            -29.1469

 Normal termination of Gaussian 16 at Sun Sep 19 12:04:40 2021.
