 Gaussian 16, Revision A.03,
 Gaussian 16:  ES64L-G16RevA.03 25-Dec-2016

 --------------------------------
 #p wB97XD/Def2SVP td=(nstates=5)
 --------------------------------

 --------------------------------
 TDDFT excited states in gaussian
 --------------------------------
 Symbolic Z-matrix:
 Charge =  0 Multiplicity = 1

                         Standard orientation:
 ---------------------------------------------------------------------
 Center     Atomic      Atomic             Coordinates (Angstroms)
 Number     Number       Type             X           Y           Z
 ---------------------------------------------------------------------
      1         12           0       -0.810149    0.229305    0.233322
      2          6           0        2.736179    0.095914    0.374675
      3          6           0       -0.697267   -3.305936    0.196711
      4          6           0       -4.034848    0.196991   -0.261258
      5          6           0       -0.616819    3.693352   -0.010796
      6          7           0        0.867800   -1.451927    0.271994
      7          6           0        2.205400   -1.185983    0.433835
      8          6           0        3.044072   -2.437039    0.633372
      9          6           0        1.905229   -3.527651    0.438830
     10          6           0        0.595789   -2.730948    0.332500
     11          6           0        2.246245   -4.476033   -0.706811
     12          6           0        3.677537   -2.452345    2.041922
     13          6           0        5.122041   -3.059714    2.212311
     14          1           0        5.642791   -4.019395    1.116572
     15          7           0       -2.205483   -1.336481    0.074777
     16          6           0       -1.939095   -2.704125    0.003411
     17          6           0       -3.222129   -3.412225   -0.129758
     18          6           0       -4.221159   -2.385360   -0.164240
     19          6           0       -3.471837   -1.117819   -0.070030
     20          6           0       -3.325258   -4.835557   -0.278006
     21          6           0       -5.733650   -2.535721   -0.292759
     22          8           0       -6.467972   -1.541544   -0.407362
     23          6           0       -6.380630   -3.852023   -0.108145
     24          7           0       -2.129118    1.731442   -0.194738
     25          6           0       -3.437748    1.471310   -0.255663
     26          6           0       -4.255959    2.770509   -0.549761
     27          6           0       -3.188834    3.876627   -0.272848
     28          6           0       -1.906858    3.111515   -0.168698
     29          6           0       -4.933132    2.801875   -1.967122
     30          6           0       -3.595954    4.503881    1.114963
     31          6           0       -2.962330    3.964488    2.443475
     32          7           0        0.689957    1.647058    0.289617
     33          6           0        0.600252    3.044808    0.159415
     34          6           0        1.976140    3.600932    0.164967
     35          6           0        2.800493    2.482048    0.188659
     36          6           0        2.050427    1.330005    0.295402
     37          6           0        2.203530    4.999461   -0.155708
     38          6           0        4.205128    2.105081    0.051026
     39          8           0        5.168828    2.841580   -0.126601
     40          6           0        4.235440    0.507303    0.140524
     41          6           0        4.844402   -0.086976   -1.074270
     42          8           0        4.241432   -0.484302   -2.067085
     43          8           0        6.240723   -0.145004   -0.905144
     44          6           0        7.109969   -0.626513   -1.954850
     45          1           0       -0.773901   -4.371234    0.425870
     46          1           0       -5.115399    0.258827   -0.408889
     47          1           0       -0.689170    4.781991   -0.049535
     48          1           0        3.831604   -2.538612   -0.113787
     49          1           0        1.960065   -4.172860    1.315216
     50          1           0        2.253661   -5.532785   -0.442064
     51          1           0        3.188939   -4.289133   -1.221161
     52          1           0        1.427080   -4.398513   -1.422931
     53          1           0        3.031634   -2.969154    2.751622
     54          1           0        3.652539   -1.388082    2.278620
     55          1           0        5.166285   -3.685340    3.103165
     56          1           0        5.749020   -2.217110    2.503848
     57          1           0       -4.030998   -5.169782    0.482747
     58          1           0       -2.339366   -5.291474   -0.363598
     59          1           0       -3.704749   -4.892780   -1.298696
     60          1           0       -6.218915   -4.537588   -0.940529
     61          1           0       -7.460145   -3.717339   -0.042999
     62          1           0       -5.893972   -4.342240    0.734543
     63          1           0       -5.019947    2.644554    0.217450
     64          1           0       -3.219174    4.667465   -1.022773
     65          1           0       -5.971751    2.479693   -1.891323
     66          1           0       -4.301526    2.208563   -2.627509
     67          1           0       -4.892315    3.841311   -2.292282
     68          1           0       -4.678967    4.623573    1.150495
     69          1           0       -3.087250    5.468260    1.101577
     70          1           0       -3.815341    3.902581    3.118606
     71          1           0       -2.235934    4.651348    2.879749
     72          1           0       -2.520949    2.969566    2.396118
     73          1           0        1.644105    5.242616   -1.058146
     74          1           0        3.266499    5.094765   -0.379636
     75          1           0        2.065595    5.629839    0.722337
     76          1           0        4.884611    0.319261    0.996257
     77          1           0        7.538160    0.170777   -2.561883
     78          1           0        6.677195   -1.486339   -2.466450
     79          1           0        7.876998   -1.128159   -1.364143
 ---------------------------------------------------------------------

 SCF Done:  E(RwB97XD) =  -2035.30375773     A.U. after   17 cycles

 Excitation energies and oscillator strengths:

 Excited State   1:      Singlet-A      1.6998 eV  729.42 nm  f=0.3716  <S**2>=0.000
     155 ->158         0.19460
     156 ->157         0.67891
     155 <-158         0.11678
 This state for optimization and/or second-order correction.
 Total Energy, E(TD-HF/TD-DFT) =  -2035.24129248
 Copying the excited state density for this state as the 1-particle RhoCI density.

 Excited State   2:      Singlet-A      2.2205 eV  558.37 nm  f=0.0707  <S**2>=0.000
     155 ->157         0.62141
     156 ->158        -0.32313

 Excited State   3:      Singlet-A      3.4838 eV  355.89 nm  f=0.5901  <S**2>=0.000
     153 ->157         0.28338
     155 ->157         0.27718
     156 ->158         0.57808
     155 <-157        -0.10913

 Excited State   4:      Singlet-A      3.5502 eV  349.23 nm  f=0.0269  <S**2>=0.000
     153 ->157        -0.28493
     154 ->157         0.61477
     156 ->158         0.11008

 Excited State   5:      Singlet-A      3.6823 eV  336.70 nm  f=0.0051  <S**2>=0.000
     150 ->157        -0.19784
     150 ->159         0.14002
     150 ->160         0.12180
     151 ->157         0.47712
     151 ->159        -0.31540
     151 ->160        -0.25940

 The electronic state is 1-A.
 Alpha  occ. eigenvalues --  -46.94825 -19.29210 -19.24797 -19.24327 -19.23809
 Alpha  occ. eigenvalues --  -14.46727 -14.45834 -14.44282 -14.43512 -10.43313
 Alpha  occ. eigenvalues --  -10.39365 -10.39289 -10.35047 -10.34887 -10.34748
 Alpha  occ. eigenvalues --  -10.34531 -10.34447 -10.34433 -10.34199 -10.33224
 Alpha  occ. eigenvalues --  -10.33209 -10.33153 -10.32907 -10.32199 -10.32159
 Alpha  occ. eigenvalues --  -10.31692 -10.31577 -10.31439 -10.31414 -10.31408
 Alpha  occ. eigenvalues --  -10.31344 -10.31187 -10.31059 -10.30756 -10.30399
 Alpha  occ. eigenvalues --  -10.30392 -10.30300 -10.29605 -10.29365 -10.29197
 Alpha  occ. eigenvalues --  -10.29088 -10.28907 -10.28673  -3.20814  -1.94410
 Alpha  occ. eigenvalues --   -1.93948  -1.93772  -1.16797  -1.11859  -1.11448
 Alpha  occ. eigenvalues --   -1.09423  -1.06796  -1.06085  -1.05072  -1.03356
 Alpha  occ. eigenvalues --   -0.93922  -0.91862  -0.90523  -0.90238  -0.89294
 Alpha  occ. eigenvalues --   -0.88629  -0.88087  -0.86053  -0.85195  -0.84575
 Alpha  occ. eigenvalues --   -0.83854  -0.82749  -0.82402  -0.80953  -0.79004
 Alpha  occ. eigenvalues --   -0.78762  -0.77690  -0.76726  -0.74087  -0.73275
 Alpha  occ. eigenvalues --   -0.71126  -0.70857  -0.69824  -0.68735  -0.66923
 Alpha  occ. eigenvalues --   -0.66627  -0.66418  -0.66168  -0.63511  -0.62357
 Alpha  occ. eigenvalues --   -0.61303  -0.61040  -0.60007  -0.59832  -0.59135
 Alpha  occ. eigenvalues --   -0.58268  -0.57457  -0.57191  -0.56167  -0.55931
 Alpha  occ. eigenvalues --   -0.55742  -0.55284  -0.55092  -0.54698  -0.54179
 Alpha  occ. eigenvalues --   -0.53700  -0.53432  -0.53219  -0.52758  -0.52486
 Alpha  occ. eigenvalues --   -0.51888  -0.51700  -0.51532  -0.50893  -0.50823
 Alpha  occ. eigenvalues --   -0.50430  -0.50316  -0.50016  -0.49539  -0.49291
 Alpha  occ. eigenvalues --   -0.48846  -0.48610  -0.48016  -0.47927  -0.47281
 Alpha  occ. eigenvalues --   -0.46925  -0.46489  -0.46200  -0.46143  -0.45979
 Alpha  occ. eigenvalues --   -0.45813  -0.45546  -0.45365  -0.45277  -0.44895
 Alpha  occ. eigenvalues --   -0.44428  -0.43844  -0.43678  -0.43339  -0.42878
 Alpha  occ. eigenvalues --   -0.42582  -0.42200  -0.41748  -0.41270  -0.40495
 Alpha  occ. eigenvalues --   -0.39697  -0.39352  -0.39093  -0.38610  -0.38108
 Alpha  occ. eigenvalues --   -0.37628  -0.36109  -0.35999  -0.35512  -0.33180
 Alpha  occ. eigenvalues --   -0.33140  -0.32773  -0.32378  -0.31461  -0.25801
 Alpha  occ. eigenvalues --   -0.22578
 Alpha virt. eigenvalues --   -0.06475   0.00216   0.02306   0.04291   0.06383
 Alpha virt. eigenvalues --    0.07092   0.07679   0.08315   0.09300   0.10817
 Alpha virt. eigenvalues --    0.11701   0.12124   0.12519   0.12839   0.13831

 Mulliken charges:
               1
     1  Mg   0.958971
     2  C    0.014396
     3  C   -0.115933
     4  C   -0.071694
     5  C   -0.091853
     6  N   -0.268500
     7  C   -0.050269
     8  C   -0.080438
     9  C   -0.081165
    10  C    0.061304
    11  C    0.017844
    12  C   -0.000838
    13  C   -0.101184
    14  H    0.041882
    15  N   -0.420394
    16  C    0.160606
    17  C   -0.187154
    18  C   -0.089585
    19  C    0.145848
    20  C    0.087452
    21  C    0.060903
    22  O   -0.251534
    23  C   -0.004500
    24  N   -0.411542
    25  C    0.041684
    26  C   -0.106309
    27  C   -0.056991
    28  C    0.053384
    29  C    0.041976
    30  C   -0.057117
    31  C   -0.040300
    32  N   -0.481911
    33  C    0.164163
    34  C   -0.192801
    35  C   -0.021450
    36  C    0.160033
    37  C    0.077996
    38  C    0.119473
    39  O   -0.196987
    40  C   -0.104632
    41  C    0.296093
    42  O   -0.245678
    43  O   -0.393133
    44  C    0.148806
    45  H    0.010766
    46  H    0.016603
    47  H   -0.005080
    48  H    0.045961
    49  H    0.028862
    50  H    0.025215
    51  H    0.045302
    52  H    0.027071
    53  H    0.030848
    54  H    0.034372
    55  H    0.044117
    56  H    0.052222
    57  H    0.062350
    58  H    0.037745
    59  H    0.061568
    60  H    0.050581
    61  H    0.063454
    62  H    0.049880
    63  H    0.039312
    64  H    0.036133
    65  H    0.056267
    66  H    0.049503
    67  H    0.029627
    68  H    0.044655
    69  H    0.027431
    70  H    0.033417
    71  H    0.043538
    72  H    0.047358
    73  H    0.057803
    74  H    0.044347
    75  H    0.045828
    76  H    0.074993
    77  H    0.071689
    78  H    0.047348
    79  H    0.039996
 Sum of Mulliken charges =  -0.00000

 Dipole moment (field-independent basis, Debye):
    X=             -1.6786    Y=             -3.9244    Z=              1.8660  Tot=              4.6584
 Quadrupole moment (field-independent basis, Debye-Ang):
   XX=           -265.6478   YY=           -222.3799   ZZ=           -255.2938
   XY=            -15.5980   XZ=              0.7232   YZ=             -1.9203

 Normal termination of Gaussian 16 at Sun Sep 19 05:55:48 2021.
