 Gaussian 16, Revision A.03,
 Gaussian 16:  ES64L-G16RevA.03 25-Dec-2016

 --------------------------------
 #p wB97XD/Def2SVP td=(nstates=5)
 --------------------------------

 --------------------------------
 TDDFT excited states in gaussian
 --------------------------------
 Symbolic Z-matrix:
 Charge =  0 Multiplicity = 1

                         Standard orientation:
 ---------------------------------------------------------------------
 Center     Atomic      Atomic             Coordinates (Angstroms)
 Number     Number       Type             X           Y           Z
 ---------------------------------------------------------------------
      1         12           0       14.328932   -0.161603   -0.034794
      2          6           0       11.217169   -1.270163   -1.276729
      3          6           0       14.352627    2.327383   -2.478575
      4          6           0       16.712788    1.444771    1.795829
      5          6           0       13.826082   -2.444506    2.679125
      6          7           0       12.974383    0.401840   -1.665206
      7          6           0       11.781276   -0.156847   -1.959631
      8          6           0       11.053999    0.636413   -3.093646
      9          6           0       12.270652    1.505096   -3.657429
     10          6           0       13.344129    1.400588   -2.526139
     11          6           0       12.976269    1.118298   -4.976976
     12          6           0        9.888984    1.484048   -2.456084
     13          6           0        8.623895    1.596040   -3.351452
     14          1           0        7.922895    3.015175   -3.369051
     15          7           0       15.566232    1.574884   -0.401789
     16          6           0       15.411138    2.392238   -1.489854
     17          6           0       16.428989    3.369854   -1.409568
     18          6           0       17.113082    3.225887   -0.166017
     19          6           0       16.518299    2.005703    0.475324
     20          6           0       16.675306    4.449628   -2.436636
     21          6           0       18.089785    4.179314    0.433371
     22          8           0       18.352428    5.249464   -0.091550
     23          6           0       18.760898    3.987307    1.692564
     24          7           0       15.064397   -0.431994    2.042180
     25          6           0       16.189314    0.296550    2.456203
     26          6           0       16.724106   -0.247782    3.743834
     27          6           0       15.778540   -1.456995    4.089735
     28          6           0       14.832323   -1.471352    2.901588
     29          6           0       18.196926   -0.630727    3.550404
     30          6           0       15.209112   -1.417133    5.557796
     31          6           0       15.488124   -2.606995    6.425191
     32          7           0       12.844950   -1.636196    0.611849
     33          6           0       12.840590   -2.487923    1.689106
     34          6           0       11.722905   -3.451151    1.580905
     35          6           0       11.049011   -2.924985    0.446940
     36          6           0       11.800395   -1.917048   -0.127694
     37          6           0       11.295156   -4.549895    2.541202
     38          6           0        9.818152   -3.030900   -0.290581
     39          8           0        8.836566   -3.765795   -0.100120
     40          6           0        9.838487   -2.020112   -1.436906
     41          6           0        9.631889   -2.682803   -2.738161
     42          8           0        8.737343   -2.409066   -3.453311
     43          8           0       10.669808   -3.485105   -3.115015
     44          6           0       10.521856   -3.904446   -4.525608
     45          1           0       14.432130    3.069595   -3.276182
     46          1           0       17.545678    1.954452    2.282747
     47          1           0       13.488987   -3.168207    3.424921
     48          1           0       10.663899   -0.084037   -3.812797
     49          1           0       12.143593    2.585150   -3.585485
     50          1           0       12.869578    0.049360   -5.165095
     51          1           0       14.030383    1.383453   -5.059064
     52          1           0       12.428734    1.635728   -5.764020
     53          1           0       10.243565    2.474033   -2.167795
     54          1           0        9.639892    0.954621   -1.536380
     55          1           0        7.953334    0.846297   -2.931165
     56          1           0        8.983912    1.240247   -4.317055
     57          1           0       17.673499    4.887513   -2.448077
     58          1           0       15.931841    5.206764   -2.188894
     59          1           0       16.331514    4.246051   -3.450787
     60          1           0       19.356687    3.078857    1.595123
     61          1           0       18.048105    3.941202    2.516413
     62          1           0       19.412827    4.842860    1.869208
     63          1           0       16.553787    0.456353    4.557906
     64          1           0       16.154415   -2.462648    3.900092
     65          1           0       18.635876   -0.211382    2.644776
     66          1           0       18.325446   -1.709623    3.463409
     67          1           0       18.806004   -0.116891    4.293516
     68          1           0       14.135298   -1.281882    5.428386
     69          1           0       15.649385   -0.640333    6.181904
     70          1           0       14.527422   -2.967319    6.792065
     71          1           0       16.073307   -2.339707    7.305284
     72          1           0       16.105977   -3.360094    5.936015
     73          1           0       10.690328   -4.175231    3.367231
     74          1           0       12.129045   -5.149795    2.907853
     75          1           0       10.605471   -5.112618    1.912215
     76          1           0        8.968301   -1.368828   -1.365807
     77          1           0       11.373315   -4.539160   -4.772456
     78          1           0       10.483575   -3.036550   -5.183788
     79          1           0        9.681351   -4.572680   -4.709796
     80         12           0      -13.557616    0.862383   -0.065348
     81          6           0      -14.023143   -2.517524   -0.373694
     82          6           0      -10.278064    0.474838   -0.607304
     83          6           0      -13.228218    4.168043    0.506720
     84          6           0      -17.014509    1.141866    1.026007
     85          7           0      -12.251949   -0.924441   -0.185255
     86          6           0      -12.652517   -2.182240   -0.406718
     87          6           0      -11.388344   -3.136307   -0.718675
     88          6           0      -10.243939   -2.056596   -0.778180
     89          6           0      -10.934808   -0.714586   -0.462739
     90          6           0       -9.022757   -2.399252    0.097178
     91          6           0      -11.533708   -3.963069   -2.027738
     92          6           0      -10.255481   -4.637317   -2.624765
     93          1           0      -10.079491   -6.188889   -2.412765
     94          7           0      -11.944919    2.147120   -0.005172
     95          6           0      -10.712481    1.836146   -0.349209
     96          6           0       -9.897315    3.040195   -0.294827
     97          6           0      -10.690689    4.145410    0.136830
     98          6           0      -12.023573    3.509639    0.226147
     99          6           0       -8.391234    3.095700   -0.490505
    100          6           0      -10.300442    5.581251    0.471712
    101          8           0      -11.057708    6.312323    1.103465
    102          6           0       -8.974318    6.085892    0.021307
    103          7           0      -14.930596    2.423355    0.710951
    104          6           0      -14.553554    3.693358    0.798983
    105          6           0      -15.733611    4.625691    1.119491
    106          6           0      -16.899599    3.642506    1.056825
    107          6           0      -16.227861    2.323831    0.958852
    108          6           0      -15.666927    5.456488    2.409602
    109          6           0      -17.967958    4.016006    0.060603
    110          6           0      -19.387945    4.332095    0.652004
    111          7           0      -15.177088   -0.354171    0.211870
    112          6           0      -16.545322   -0.117348    0.574964
    113          6           0      -17.332174   -1.325853    0.463455
    114          6           0      -16.333077   -2.260356    0.072931
    115          6           0      -15.087731   -1.630896   -0.047357
    116          6           0      -18.799325   -1.561058    0.543778
    117          6           0      -16.249870   -3.613567   -0.415754
    118          8           0      -17.086801   -4.471356   -0.734501
    119          6           0      -14.787388   -3.926129   -0.611484
    120          6           0      -14.341475   -4.891754    0.508612
    121          8           0      -14.633335   -4.840445    1.713275
    122          8           0      -13.540574   -5.837472   -0.059474
    123          6           0      -13.005738   -6.920227    0.825702
    124          1           0       -9.223499    0.501362   -0.889555
    125          1           0      -13.178807    5.185166    0.901031
    126          1           0      -18.070618    1.326466    1.230665
    127          1           0      -11.306800   -3.755619    0.173843
    128          1           0       -9.922135   -1.979386   -1.816704
    129          1           0       -8.136805   -2.167140   -0.492847
    130          1           0       -8.972887   -3.463114    0.329404
    131          1           0       -9.031910   -1.821570    1.021542
    132          1           0      -11.775975   -3.230602   -2.797720
    133          1           0      -12.266069   -4.757864   -1.886600
    134          1           0       -9.402710   -4.230891   -2.080010
    135          1           0      -10.242675   -4.467568   -3.700839
    136          1           0       -7.983075    2.110783   -0.717213
    137          1           0       -7.918260    3.464354    0.419385
    138          1           0       -8.111243    3.773123   -1.296231
    139          1           0       -8.913147    5.819548   -1.034252
    140          1           0       -8.033288    5.760953    0.464086
    141          1           0       -8.876479    7.166063    0.124252
    142          1           0      -15.819292    5.339459    0.300877
    143          1           0      -17.397404    3.673385    2.025857
    144          1           0      -16.088804    6.419556    2.123226
    145          1           0      -14.646890    5.491218    2.791972
    146          1           0      -16.181252    5.009023    3.260042
    147          1           0      -18.104793    3.104463   -0.520306
    148          1           0      -17.705695    4.870928   -0.561969
    149          1           0      -19.378375    4.200418    1.734307
    150          1           0      -20.081717    3.604935    0.228963
    151          1           0      -19.809915    5.295994    0.367143
    152          1           0      -19.330271   -0.610134    0.579089
    153          1           0      -18.961712   -2.008046    1.523882
    154          1           0      -19.035170   -2.147101   -0.345670
    155          1           0      -14.745442   -4.395210   -1.594674
    156          1           0      -12.586631   -6.580311    1.773069
    157          1           0      -12.283472   -7.578984    0.344680
    158          1           0      -13.875055   -7.511401    1.113126
 ---------------------------------------------------------------------

 SCF Done:  E(RwB97XD) =  -4070.58505993     A.U. after   19 cycles

 Excitation energies and oscillator strengths:

 Excited State   1:      Singlet-A      1.6190 eV  765.81 nm  f=0.4164  <S**2>=0.000
     309 -> 315        0.17887
     311 -> 313        0.68462
     309 <- 315        0.11648
 This state for optimization and/or second-order correction.
 Total Energy, E(TD-HF/TD-DFT) =  -4070.52556279
 Copying the excited state density for this state as the 1-particle RhoCI density.

 Excited State   2:      Singlet-A      1.6638 eV  745.21 nm  f=0.3940  <S**2>=0.000
     310 -> 316       -0.18167
     312 -> 314        0.68158
     310 <- 316       -0.11250

 Excited State   3:      Singlet-A      2.1453 eV  577.93 nm  f=0.1104  <S**2>=0.000
     309 -> 313        0.63989
     311 -> 315       -0.28458

 Excited State   4:      Singlet-A      2.2219 eV  558.01 nm  f=0.1094  <S**2>=0.000
     310 -> 314        0.63694
     312 -> 316        0.28918

 Excited State   5:      Singlet-A      3.5585 eV  348.42 nm  f=0.0000  <S**2>=0.000
     312 -> 313        0.70703

 The electronic state is 1-A.
 Alpha  occ. eigenvalues --  -46.97249 -46.95446 -19.30747 -19.30444 -19.24956
 Alpha  occ. eigenvalues --  -19.24491 -19.24307 -19.24042 -19.22656 -19.22386
 Alpha  occ. eigenvalues --  -14.47687 -14.47360 -14.46580 -14.46179 -14.44599
 Alpha  occ. eigenvalues --  -14.44563 -14.43983 -14.43794 -10.43324 -10.42671
 Alpha  occ. eigenvalues --  -10.39991 -10.38921 -10.37483 -10.37268 -10.36394
 Alpha  occ. eigenvalues --  -10.36092 -10.35965 -10.35835 -10.35675 -10.35631
 Alpha  occ. eigenvalues --  -10.35180 -10.35091 -10.34910 -10.34406 -10.34351
 Alpha  occ. eigenvalues --  -10.34325 -10.34263 -10.33951 -10.33940 -10.33895
 Alpha  occ. eigenvalues --  -10.33608 -10.33231 -10.33211 -10.33196 -10.33161
 Alpha  occ. eigenvalues --  -10.32882 -10.32702 -10.32678 -10.32647 -10.32573
 Alpha  occ. eigenvalues --  -10.32567 -10.32361 -10.32334 -10.32289 -10.32097
 Alpha  occ. eigenvalues --  -10.32070 -10.32040 -10.31926 -10.31701 -10.31658
 Alpha  occ. eigenvalues --  -10.31638 -10.31577 -10.31492 -10.31058 -10.30976
 Alpha  occ. eigenvalues --  -10.30975 -10.30868 -10.30864 -10.30819 -10.30630
 Alpha  occ. eigenvalues --  -10.30611 -10.30524 -10.30458 -10.30344 -10.30313
 Alpha  occ. eigenvalues --  -10.30169 -10.30118 -10.30043 -10.29921 -10.29630
 Alpha  occ. eigenvalues --  -10.29620 -10.29477 -10.29438 -10.29245 -10.29203
 Alpha  occ. eigenvalues --  -10.28346  -3.22892  -3.21413  -1.96485  -1.95984
 Alpha  occ. eigenvalues --   -1.95844  -1.94994  -1.94528  -1.94396  -1.20246
 Alpha  occ. eigenvalues --   -1.17636  -1.12529  -1.11803  -1.11365  -1.11317
 Alpha  occ. eigenvalues --   -1.10103  -1.08636  -1.07650  -1.07262  -1.06321
 Alpha  occ. eigenvalues --   -1.05838  -1.05819  -1.05524  -1.04895  -1.04646
 Alpha  occ. eigenvalues --   -0.94728  -0.93152  -0.91703  -0.91364  -0.91041
 Alpha  occ. eigenvalues --   -0.90486  -0.90213  -0.90055  -0.90013  -0.89408
 Alpha  occ. eigenvalues --   -0.89081  -0.88994  -0.88865  -0.87839  -0.86868
 Alpha  occ. eigenvalues --   -0.86682  -0.86016  -0.85145  -0.84722  -0.84487
 Alpha  occ. eigenvalues --   -0.84194  -0.83964  -0.82982  -0.82944  -0.82616
 Alpha  occ. eigenvalues --   -0.81915  -0.80694  -0.80407  -0.79646  -0.79392
 Alpha  occ. eigenvalues --   -0.78891  -0.78574  -0.78509  -0.77919  -0.77451
 Alpha  occ. eigenvalues --   -0.77197  -0.75245  -0.74585  -0.74544  -0.73573
 Alpha  occ. eigenvalues --   -0.71449  -0.71286  -0.71278  -0.70971  -0.70024
 Alpha  occ. eigenvalues --   -0.69609  -0.69485  -0.68945  -0.68373  -0.67750
 Alpha  occ. eigenvalues --   -0.67693  -0.67100  -0.66806  -0.66741  -0.66320
 Alpha  occ. eigenvalues --   -0.65808  -0.65414  -0.64534  -0.62642  -0.62180
 Alpha  occ. eigenvalues --   -0.62116  -0.61536  -0.61080  -0.60956  -0.60779
 Alpha  occ. eigenvalues --   -0.60532  -0.60374  -0.59889  -0.59280  -0.59143
 Alpha  occ. eigenvalues --   -0.58545  -0.58221  -0.58119  -0.57629  -0.57550
 Alpha  occ. eigenvalues --   -0.57170  -0.56991  -0.56600  -0.56379  -0.55971
 Alpha  occ. eigenvalues --   -0.55598  -0.55590  -0.55404  -0.55258  -0.55172
 Alpha  occ. eigenvalues --   -0.54868  -0.54650  -0.54645  -0.54402  -0.54300
 Alpha  occ. eigenvalues --   -0.54030  -0.53773  -0.53536  -0.53523  -0.53377
 Alpha  occ. eigenvalues --   -0.53038  -0.52959  -0.52906  -0.52553  -0.52360
 Alpha  occ. eigenvalues --   -0.52055  -0.51867  -0.51758  -0.51646  -0.51633
 Alpha  occ. eigenvalues --   -0.51514  -0.51326  -0.51190  -0.51123  -0.50902
 Alpha  occ. eigenvalues --   -0.50802  -0.50654  -0.50410  -0.50373  -0.50201
 Alpha  occ. eigenvalues --   -0.50038  -0.49666  -0.49555  -0.49527  -0.49341
 Alpha  occ. eigenvalues --   -0.49145  -0.49028  -0.48795  -0.48705  -0.48654
 Alpha  occ. eigenvalues --   -0.48365  -0.48345  -0.48231  -0.47987  -0.47791
 Alpha  occ. eigenvalues --   -0.47765  -0.47183  -0.47124  -0.46894  -0.46825
 Alpha  occ. eigenvalues --   -0.46720  -0.46593  -0.46391  -0.46340  -0.46243
 Alpha  occ. eigenvalues --   -0.46078  -0.45969  -0.45856  -0.45680  -0.45616
 Alpha  occ. eigenvalues --   -0.45447  -0.45392  -0.45012  -0.44908  -0.44753
 Alpha  occ. eigenvalues --   -0.44634  -0.44617  -0.44437  -0.44082  -0.43881
 Alpha  occ. eigenvalues --   -0.43812  -0.43798  -0.43670  -0.43380  -0.43363
 Alpha  occ. eigenvalues --   -0.43013  -0.42983  -0.42732  -0.42634  -0.42258
 Alpha  occ. eigenvalues --   -0.42136  -0.41638  -0.41227  -0.41112  -0.40897
 Alpha  occ. eigenvalues --   -0.40670  -0.40093  -0.40026  -0.39761  -0.39696
 Alpha  occ. eigenvalues --   -0.39333  -0.39091  -0.39034  -0.38587  -0.38420
 Alpha  occ. eigenvalues --   -0.38107  -0.37798  -0.37008  -0.36221  -0.36181
 Alpha  occ. eigenvalues --   -0.35905  -0.35841  -0.35483  -0.33836  -0.33801
 Alpha  occ. eigenvalues --   -0.33243  -0.33074  -0.32701  -0.32696  -0.31990
 Alpha  occ. eigenvalues --   -0.31870  -0.31731  -0.31413  -0.26514  -0.25750
 Alpha  occ. eigenvalues --   -0.23452  -0.22833
 Alpha virt. eigenvalues --   -0.07842  -0.06816  -0.00426   0.00238   0.02240
 Alpha virt. eigenvalues --    0.02715   0.04331   0.04465   0.04698   0.05158
 Alpha virt. eigenvalues --    0.07165   0.07586   0.07900   0.07915   0.08110

 Mulliken charges:
               1
     1  Mg   0.930668
     2  C   -0.012337
     3  C   -0.078921
     4  C   -0.029668
     5  C   -0.055090
     6  N   -0.359378
     7  C   -0.011445
     8  C   -0.090442
     9  C   -0.100442
    10  C    0.079679
    11  C    0.033024
    12  C    0.011796
    13  C   -0.106886
    14  H    0.041329
    15  N   -0.446407
    16  C    0.131821
    17  C   -0.166205
    18  C   -0.071225
    19  C    0.121441
    20  C    0.092262
    21  C   -0.000396
    22  O   -0.245807
    23  C    0.011272
    24  N   -0.354178
    25  C    0.049304
    26  C   -0.068719
    27  C   -0.054091
    28  C    0.053138
    29  C    0.028742
    30  C   -0.008437
    31  C   -0.059131
    32  N   -0.368192
    33  C    0.038665
    34  C   -0.158648
    35  C   -0.038444
    36  C    0.117407
    37  C    0.062061
    38  C    0.094451
    39  O   -0.225942
    40  C   -0.017541
    41  C    0.221488
    42  O   -0.212824
    43  O   -0.366419
    44  C    0.140016
    45  H    0.006036
    46  H   -0.030967
    47  H   -0.001275
    48  H    0.037974
    49  H    0.035439
    50  H    0.032312
    51  H    0.046229
    52  H    0.040076
    53  H    0.042509
    54  H    0.036064
    55  H    0.065787
    56  H    0.053310
    57  H    0.070905
    58  H    0.039798
    59  H    0.017358
    60  H    0.051181
    61  H    0.064334
    62  H    0.052404
    63  H    0.048045
    64  H    0.037736
    65  H    0.035159
    66  H    0.041507
    67  H    0.037182
    68  H    0.041897
    69  H    0.039654
    70  H    0.042340
    71  H    0.030874
    72  H    0.033050
    73  H    0.064814
    74  H    0.051691
    75  H    0.065705
    76  H    0.061765
    77  H    0.046878
    78  H    0.053299
    79  H    0.057582
    80  Mg   0.970295
    81  C   -0.074939
    82  C   -0.078718
    83  C   -0.049616
    84  C   -0.066449
    85  N   -0.355551
    86  C   -0.026166
    87  C   -0.008815
    88  C   -0.153623
    89  C    0.119923
    90  C    0.024298
    91  C   -0.009676
    92  C   -0.131397
    93  H    0.015097
    94  N   -0.438329
    95  C    0.116812
    96  C   -0.186829
    97  C   -0.059101
    98  C    0.131005
    99  C    0.069255
   100  C    0.087491
   101  O   -0.227409
   102  C   -0.032977
   103  N   -0.274139
   104  C   -0.007280
   105  C   -0.114743
   106  C   -0.055413
   107  C    0.009656
   108  C    0.036100
   109  C    0.000499
   110  C   -0.068077
   111  N   -0.456894
   112  C    0.123336
   113  C   -0.170504
   114  C   -0.077061
   115  C    0.206218
   116  C    0.109168
   117  C    0.102682
   118  O   -0.239589
   119  C   -0.055591
   120  C    0.293631
   121  O   -0.266110
   122  O   -0.365186
   123  C    0.138594
   124  H   -0.019540
   125  H    0.029453
   126  H    0.003910
   127  H    0.040465
   128  H    0.037234
   129  H    0.034421
   130  H    0.041587
   131  H    0.049631
   132  H    0.031879
   133  H    0.073334
   134  H    0.048615
   135  H    0.065657
   136  H    0.032125
   137  H    0.051684
   138  H    0.041409
   139  H    0.048738
   140  H    0.063306
   141  H    0.052350
   142  H    0.038809
   143  H    0.021250
   144  H    0.046431
   145  H    0.044311
   146  H    0.029701
   147  H    0.030511
   148  H    0.036847
   149  H    0.033038
   150  H    0.033369
   151  H    0.041867
   152  H    0.019211
   153  H    0.065301
   154  H    0.080997
   155  H    0.069610
   156  H    0.058602
   157  H    0.063674
   158  H    0.056331
 Sum of Mulliken charges =  -0.00000

 Dipole moment (field-independent basis, Debye):
    X=              8.1024    Y=              0.5577    Z=             -0.3799  Tot=              8.1304
 Quadrupole moment (field-independent basis, Debye-Ang):
   XX=           -512.2320   YY=           -539.2739   ZZ=           -479.5399
   XY=           -125.8739   XZ=             54.8676   YZ=             -9.5885

 Normal termination of Gaussian 16 at Sat Sep 18 21:43:21 2021.
