 Gaussian 16, Revision A.03,
 Gaussian 16:  ES64L-G16RevA.03 25-Dec-2016

 --------------------------------
 #p wB97XD/Def2SVP td=(nstates=5)
 --------------------------------

 --------------------------------
 TDDFT excited states in gaussian
 --------------------------------
 Symbolic Z-matrix:
 Charge =  0 Multiplicity = 1

                         Standard orientation:
 ---------------------------------------------------------------------
 Center     Atomic      Atomic             Coordinates (Angstroms)
 Number     Number       Type             X           Y           Z
 ---------------------------------------------------------------------
      1         12           0       24.949309   -0.779816    0.393308
      2          6           0       24.693419    2.166574   -1.319947
      3          6           0       25.181289    0.836706    3.297675
      4          6           0       25.405574   -3.677879    1.813023
      5          6           0       25.296945   -2.345010   -2.789752
      6          7           0       25.112146    1.316239    0.931930
      7          6           0       24.712811    2.303894    0.092237
      8          6           0       24.342748    3.557599    0.836518
      9          6           0       24.790831    3.174618    2.303944
     10          6           0       25.133660    1.705661    2.182244
     11          6           0       25.919211    4.059094    2.886543
     12          6           0       22.777363    4.032342    0.632615
     13          6           0       22.493390    5.508013    0.313239
     14          1           0       23.570052    6.547087    0.758238
     15          7           0       25.069860   -1.334620    2.228737
     16          6           0       25.161916   -0.563580    3.343511
     17          6           0       25.399298   -1.325966    4.545030
     18          6           0       25.262212   -2.626375    4.163341
     19          6           0       25.361373   -2.582456    2.671337
     20          6           0       25.738321   -0.548773    5.803841
     21          6           0       25.251449   -3.894870    5.039369
     22          8           0       25.185293   -5.019973    4.601775
     23          6           0       25.368841   -3.618913    6.509282
     24          7           0       25.473812   -2.706276   -0.424686
     25          6           0       25.470659   -3.746878    0.427781
     26          6           0       25.605663   -5.072876   -0.327368
     27          6           0       25.251031   -4.673613   -1.799983
     28          6           0       25.369518   -3.139357   -1.693824
     29          6           0       26.971578   -5.874121   -0.208995
     30          6           0       23.806719   -5.054607   -2.299916
     31          6           0       22.553476   -4.568796   -1.620495
     32          7           0       24.913848   -0.304736   -1.681380
     33          6           0       25.154901   -1.002125   -2.869525
     34          6           0       25.069310   -0.120763   -4.040956
     35          6           0       24.877131    1.148538   -3.475111
     36          6           0       24.792260    0.944447   -2.061836
     37          6           0       25.112673   -0.496729   -5.499823
     38          6           0       24.728747    2.506651   -3.737304
     39          8           0       24.760566    3.166975   -4.763977
     40          6           0       24.369136    3.194455   -2.394857
     41          6           0       25.259630    4.377719   -2.393857
     42          8           0       26.456381    4.372123   -2.095561
     43          8           0       24.616722    5.479021   -2.880179
     44          6           0       25.395383    6.668080   -3.240641
     45          1           0       25.058675    1.382435    4.235785
     46          1           0       25.504398   -4.686480    2.217911
     47          1           0       25.375701   -2.959731   -3.689684
     48          1           0       24.998905    4.380528    0.552858
     49          1           0       23.920189    3.213710    2.958225
     50          1           0       26.856854    3.504798    2.847397
     51          1           0       25.689420    4.267232    3.931531
     52          1           0       25.964306    4.952519    2.263645
     53          1           0       22.286524    3.768156    1.569381
     54          1           0       22.321116    3.494698   -0.197975
     55          1           0       21.612702    5.847827    0.857582
     56          1           0       22.236148    5.614121   -0.740575
     57          1           0       26.648245    0.049010    5.748702
     58          1           0       26.044197   -1.070898    6.710245
     59          1           0       24.809435   -0.000640    5.961508
     60          1           0       24.579130   -2.943932    6.838369
     61          1           0       26.396956   -3.265813    6.586562
     62          1           0       25.228953   -4.440289    7.211136
     63          1           0       24.849856   -5.683367    0.168038
     64          1           0       26.051283   -5.016480   -2.456208
     65          1           0       27.654015   -5.331994    0.445146
     66          1           0       27.499120   -5.880262   -1.162072
     67          1           0       26.899108   -6.915350    0.108836
     68          1           0       23.885411   -6.141271   -2.258394
     69          1           0       23.638718   -4.759950   -3.335309
     70          1           0       22.814680   -4.079140   -0.681443
     71          1           0       21.907769   -5.408639   -1.364380
     72          1           0       21.975022   -3.812654   -2.150912
     73          1           0       26.045484   -0.200777   -5.977748
     74          1           0       24.270370   -0.042782   -6.022172
     75          1           0       25.112295   -1.586608   -5.469949
     76          1           0       23.304319    3.417204   -2.324243
     77          1           0       24.895220    7.274247   -3.996879
     78          1           0       26.437391    6.426899   -3.445128
     79          1           0       25.549021    7.339032   -2.395665
     80         12           0      -25.461791   -0.454437   -0.298808
     81          6           0      -23.156364    2.176667   -0.215488
     82          6           0      -27.474214    1.249340    1.875567
     83          6           0      -27.418865   -3.117629   -0.162936
     84          6           0      -23.173689   -2.203469   -2.415858
     85          7           0      -25.277044    1.491981    0.744795
     86          6           0      -24.305300    2.457643    0.603718
     87          6           0      -24.751614    3.758714    1.244789
     88          6           0      -25.986793    3.315462    2.124413
     89          6           0      -26.303314    1.938485    1.447287
     90          6           0      -25.661557    3.171388    3.605691
     91          6           0      -24.936185    4.864802    0.142800
     92          6           0      -25.594951    6.166350    0.678264
     93          1           0      -25.336761    6.511478    2.130218
     94          7           0      -27.155254   -0.852940    0.669630
     95          6           0      -27.803825   -0.072630    1.618471
     96          6           0      -28.981700   -0.759528    2.177013
     97          6           0      -28.967225   -2.033196    1.529521
     98          6           0      -27.806871   -2.038136    0.642554
     99          6           0      -29.911864   -0.124104    3.141251
    100          6           0      -29.955965   -3.149843    1.745062
    101          8           0      -29.895653   -4.230283    1.095202
    102          6           0      -31.114467   -2.995532    2.692762
    103          7           0      -25.333931   -2.385028   -1.226211
    104          6           0      -26.298986   -3.270767   -0.977889
    105          6           0      -25.943210   -4.676095   -1.635612
    106          6           0      -24.508779   -4.387863   -2.352741
    107          6           0      -24.310874   -2.920004   -1.972020
    108          6           0      -25.901748   -5.770357   -0.491597
    109          6           0      -24.523610   -4.532443   -3.934520
    110          6           0      -24.286897   -5.967820   -4.485796
    111          7           0      -23.564268   -0.178920   -1.101324
    112          6           0      -22.785380   -0.905686   -2.040143
    113          6           0      -21.533074   -0.104426   -2.393659
    114          6           0      -21.593613    1.071913   -1.653344
    115          6           0      -22.896716    1.008475   -0.943580
    116          6           0      -20.461693   -0.462802   -3.375299
    117          6           0      -20.967141    2.340819   -1.365084
    118          8           0      -19.909943    2.849757   -1.750711
    119          6           0      -22.050499    3.206968   -0.550059
    120          6           0      -21.464499    3.877060    0.671582
    121          8           0      -21.376727    3.353357    1.749222
    122          8           0      -21.258134    5.256872    0.446340
    123          6           0      -21.129952    6.120777    1.629540
    124          1           0      -27.976769    1.892798    2.601226
    125          1           0      -28.060769   -3.999092   -0.101712
    126          1           0      -22.385963   -2.716917   -2.971295
    127          1           0      -23.939689    4.102301    1.884485
    128          1           0      -26.881839    3.930093    2.023084
    129          1           0      -26.358490    3.829949    4.123819
    130          1           0      -24.601710    3.381470    3.747684
    131          1           0      -25.964875    2.207055    4.012621
    132          1           0      -25.365348    4.282506   -0.671989
    133          1           0      -23.928378    5.096823   -0.199930
    134          1           0      -26.655788    5.997121    0.493422
    135          1           0      -25.232732    6.998827    0.075208
    136          1           0      -29.779488   -0.739062    4.031255
    137          1           0      -30.939709   -0.079042    2.782233
    138          1           0      -29.717484    0.893112    3.483642
    139          1           0      -31.768456   -2.206063    2.324989
    140          1           0      -30.548670   -2.772820    3.598260
    141          1           0      -31.692615   -3.894875    2.903145
    142          1           0      -26.760059   -4.757910   -2.353723
    143          1           0      -23.618073   -4.810082   -1.885533
    144          1           0      -26.090033   -5.384929    0.510301
    145          1           0      -24.918933   -6.241809   -0.466528
    146          1           0      -26.731946   -6.443027   -0.704937
    147          1           0      -23.929962   -3.762340   -4.426262
    148          1           0      -25.538344   -4.280227   -4.240707
    149          1           0      -25.135859   -6.198562   -5.128346
    150          1           0      -24.147285   -6.643205   -3.641620
    151          1           0      -23.389256   -6.026768   -5.101778
    152          1           0      -20.608715    0.191579   -4.234801
    153          1           0      -20.536342   -1.516227   -3.647859
    154          1           0      -19.425624   -0.296140   -3.081269
    155          1           0      -22.441106    3.938527   -1.256817
    156          1           0      -20.108937    5.964744    1.976779
    157          1           0      -21.935387    5.927960    2.338487
    158          1           0      -21.294226    7.139231    1.278615
 ---------------------------------------------------------------------

 SCF Done:  E(RwB97XD) =  -4070.61677743     A.U. after   20 cycles

 Excitation energies and oscillator strengths:

 Excited State   1:      Singlet-A      1.6549 eV  749.20 nm  f=0.3795  <S**2>=0.000
     309 -> 315       -0.20555
     312 -> 313        0.67801
     309 <- 315       -0.12144
 This state for optimization and/or second-order correction.
 Total Energy, E(TD-HF/TD-DFT) =  -4070.55596126
 Copying the excited state density for this state as the 1-particle RhoCI density.

 Excited State   2:      Singlet-A      1.7217 eV  720.14 nm  f=0.3747  <S**2>=0.000
     310 -> 316       -0.19589
     311 -> 314        0.67981
     310 <- 316       -0.11418

 Excited State   3:      Singlet-A      2.2242 eV  557.43 nm  f=0.0564  <S**2>=0.000
     310 -> 314        0.61469
     311 -> 316        0.33867

 Excited State   4:      Singlet-A      2.2347 eV  554.81 nm  f=0.0336  <S**2>=0.000
     309 -> 313        0.58750
     312 -> 315        0.38607

 Excited State   5:      Singlet-A      3.3774 eV  367.09 nm  f=0.7519  <S**2>=0.000
     302 -> 313       -0.13126
     309 -> 313       -0.37260
     312 -> 315        0.57843
     309 <- 313        0.11396

 The electronic state is 1-A.
 Alpha  occ. eigenvalues --  -46.94427 -46.94287 -19.29228 -19.29102 -19.25236
 Alpha  occ. eigenvalues --  -19.24971 -19.24277 -19.23464 -19.23256 -19.22663
 Alpha  occ. eigenvalues --  -14.46750 -14.46266 -14.46134 -14.45615 -14.44626
 Alpha  occ. eigenvalues --  -14.44592 -14.44515 -14.43307 -10.43291 -10.42074
 Alpha  occ. eigenvalues --  -10.39940 -10.39592 -10.39246 -10.37500 -10.35500
 Alpha  occ. eigenvalues --  -10.34951 -10.34920 -10.34770 -10.34672 -10.34602
 Alpha  occ. eigenvalues --  -10.34433 -10.34400 -10.34381 -10.34377 -10.34366
 Alpha  occ. eigenvalues --  -10.34274 -10.34218 -10.34184 -10.33603 -10.33503
 Alpha  occ. eigenvalues --  -10.33419 -10.33252 -10.33099 -10.32972 -10.32886
 Alpha  occ. eigenvalues --  -10.32647 -10.32628 -10.32359 -10.32304 -10.32255
 Alpha  occ. eigenvalues --  -10.31995 -10.31976 -10.31890 -10.31872 -10.31814
 Alpha  occ. eigenvalues --  -10.31763 -10.31729 -10.31709 -10.31702 -10.31627
 Alpha  occ. eigenvalues --  -10.31584 -10.31578 -10.31516 -10.31368 -10.31337
 Alpha  occ. eigenvalues --  -10.31124 -10.30997 -10.30648 -10.30557 -10.30398
 Alpha  occ. eigenvalues --  -10.30388 -10.30316 -10.30167 -10.30095 -10.30065
 Alpha  occ. eigenvalues --  -10.29888 -10.29887 -10.29719 -10.29629 -10.29600
 Alpha  occ. eigenvalues --  -10.29438 -10.29207 -10.29207 -10.28991 -10.28988
 Alpha  occ. eigenvalues --  -10.28035  -3.20545  -3.20525  -1.94126  -1.94107
 Alpha  occ. eigenvalues --   -1.93690  -1.93639  -1.93556  -1.93528  -1.17633
 Alpha  occ. eigenvalues --   -1.16981  -1.13762  -1.11388  -1.11191  -1.10035
 Alpha  occ. eigenvalues --   -1.09995  -1.08076  -1.07625  -1.06737  -1.06338
 Alpha  occ. eigenvalues --   -1.06091  -1.05489  -1.04994  -1.04836  -1.03415
 Alpha  occ. eigenvalues --   -0.94291  -0.93591  -0.91588  -0.90863  -0.90444
 Alpha  occ. eigenvalues --   -0.90334  -0.89873  -0.89834  -0.89759  -0.89498
 Alpha  occ. eigenvalues --   -0.89374  -0.88655  -0.88465  -0.88250  -0.86270
 Alpha  occ. eigenvalues --   -0.86163  -0.85455  -0.84857  -0.84619  -0.84478
 Alpha  occ. eigenvalues --   -0.84127  -0.83825  -0.82972  -0.82701  -0.82465
 Alpha  occ. eigenvalues --   -0.81970  -0.80992  -0.80951  -0.79358  -0.79356
 Alpha  occ. eigenvalues --   -0.78906  -0.78874  -0.77710  -0.77610  -0.77119
 Alpha  occ. eigenvalues --   -0.76491  -0.74596  -0.74080  -0.73647  -0.73447
 Alpha  occ. eigenvalues --   -0.71540  -0.71354  -0.70992  -0.70523  -0.70299
 Alpha  occ. eigenvalues --   -0.70104  -0.69296  -0.69095  -0.67418  -0.67325
 Alpha  occ. eigenvalues --   -0.67124  -0.66887  -0.66730  -0.65924  -0.65774
 Alpha  occ. eigenvalues --   -0.65728  -0.63676  -0.63284  -0.63142  -0.62670
 Alpha  occ. eigenvalues --   -0.61478  -0.61271  -0.61247  -0.60712  -0.59857
 Alpha  occ. eigenvalues --   -0.59772  -0.59747  -0.59533  -0.59511  -0.58772
 Alpha  occ. eigenvalues --   -0.58309  -0.58141  -0.57830  -0.57214  -0.57072
 Alpha  occ. eigenvalues --   -0.56567  -0.56538  -0.56381  -0.56142  -0.55893
 Alpha  occ. eigenvalues --   -0.55611  -0.55575  -0.55210  -0.55099  -0.54574
 Alpha  occ. eigenvalues --   -0.54543  -0.54455  -0.54316  -0.54157  -0.54156
 Alpha  occ. eigenvalues --   -0.53842  -0.53657  -0.53583  -0.53363  -0.53175
 Alpha  occ. eigenvalues --   -0.53105  -0.52799  -0.52514  -0.52404  -0.52400
 Alpha  occ. eigenvalues --   -0.52115  -0.52046  -0.51474  -0.51470  -0.51387
 Alpha  occ. eigenvalues --   -0.51245  -0.51237  -0.50990  -0.50928  -0.50788
 Alpha  occ. eigenvalues --   -0.50699  -0.50467  -0.50440  -0.50065  -0.50030
 Alpha  occ. eigenvalues --   -0.49996  -0.49921  -0.49697  -0.49367  -0.49076
 Alpha  occ. eigenvalues --   -0.48792  -0.48726  -0.48558  -0.48412  -0.48113
 Alpha  occ. eigenvalues --   -0.48022  -0.47683  -0.47600  -0.47521  -0.47380
 Alpha  occ. eigenvalues --   -0.47148  -0.47124  -0.47105  -0.46779  -0.46748
 Alpha  occ. eigenvalues --   -0.46634  -0.46433  -0.46114  -0.46055  -0.45923
 Alpha  occ. eigenvalues --   -0.45785  -0.45745  -0.45489  -0.45427  -0.45077
 Alpha  occ. eigenvalues --   -0.45051  -0.45009  -0.44846  -0.44822  -0.44779
 Alpha  occ. eigenvalues --   -0.44486  -0.44355  -0.44234  -0.44110  -0.44047
 Alpha  occ. eigenvalues --   -0.43762  -0.43501  -0.43490  -0.43306  -0.43135
 Alpha  occ. eigenvalues --   -0.42963  -0.42835  -0.42672  -0.42430  -0.42264
 Alpha  occ. eigenvalues --   -0.42094  -0.41473  -0.41127  -0.41093  -0.40966
 Alpha  occ. eigenvalues --   -0.40476  -0.40360  -0.40112  -0.40077  -0.39908
 Alpha  occ. eigenvalues --   -0.39007  -0.38837  -0.38400  -0.38287  -0.38264
 Alpha  occ. eigenvalues --   -0.37816  -0.37121  -0.36496  -0.36321  -0.36150
 Alpha  occ. eigenvalues --   -0.35421  -0.35419  -0.34929  -0.34620  -0.33488
 Alpha  occ. eigenvalues --   -0.33390  -0.33077  -0.32911  -0.32606  -0.32460
 Alpha  occ. eigenvalues --   -0.32243  -0.32043  -0.31842  -0.25923  -0.25743
 Alpha  occ. eigenvalues --   -0.22411  -0.22231
 Alpha virt. eigenvalues --   -0.06249  -0.06147  -0.00251   0.00173   0.01825
 Alpha virt. eigenvalues --    0.02317   0.04245   0.04601   0.05894   0.06303
 Alpha virt. eigenvalues --    0.06693   0.07589   0.07688   0.08474   0.08508

 Mulliken charges:
               1
     1  Mg   0.992936
     2  C    0.010899
     3  C   -0.117635
     4  C   -0.080965
     5  C   -0.116868
     6  N   -0.330657
     7  C   -0.016860
     8  C   -0.037139
     9  C   -0.153966
    10  C    0.076295
    11  C    0.047341
    12  C    0.007257
    13  C   -0.126062
    14  H    0.026396
    15  N   -0.509734
    16  C    0.179879
    17  C   -0.131282
    18  C   -0.119651
    19  C    0.182810
    20  C    0.046186
    21  C    0.071661
    22  O   -0.201867
    23  C   -0.025208
    24  N   -0.321235
    25  C    0.021043
    26  C   -0.086033
    27  C   -0.050169
    28  C   -0.008460
    29  C    0.024209
    30  C   -0.010761
    31  C   -0.046772
    32  N   -0.398792
    33  C    0.159921
    34  C   -0.186986
    35  C    0.034845
    36  C    0.091522
    37  C    0.104717
    38  C    0.050675
    39  O   -0.214261
    40  C   -0.074903
    41  C    0.264731
    42  O   -0.268231
    43  O   -0.355845
    44  C    0.151811
    45  H   -0.008506
    46  H    0.016490
    47  H   -0.010532
    48  H    0.043126
    49  H    0.031882
    50  H    0.045718
    51  H    0.038571
    52  H    0.045927
    53  H    0.033231
    54  H    0.041185
    55  H    0.049127
    56  H    0.062536
    57  H    0.060507
    58  H    0.029680
    59  H    0.066591
    60  H    0.061496
    61  H    0.069389
    62  H    0.048033
    63  H    0.035054
    64  H    0.029195
    65  H    0.038287
    66  H    0.025915
    67  H    0.050230
    68  H    0.032275
    69  H    0.032305
    70  H    0.028523
    71  H    0.041175
    72  H    0.043847
    73  H    0.059444
    74  H    0.063963
    75  H    0.019694
    76  H    0.072700
    77  H    0.061570
    78  H    0.057162
    79  H    0.029416
    80  Mg   0.984886
    81  C   -0.029953
    82  C   -0.097627
    83  C   -0.087989
    84  C   -0.091749
    85  N   -0.320868
    86  C   -0.001417
    87  C   -0.052320
    88  C   -0.133784
    89  C    0.011228
    90  C    0.044498
    91  C   -0.023294
    92  C   -0.099831
    93  H    0.046653
    94  N   -0.499717
    95  C    0.214646
    96  C   -0.158511
    97  C   -0.076636
    98  C    0.175219
    99  C    0.073587
   100  C    0.037658
   101  O   -0.272508
   102  C    0.020763
   103  N   -0.348868
   104  C    0.045818
   105  C   -0.087849
   106  C   -0.049369
   107  C    0.040592
   108  C    0.013490
   109  C   -0.039893
   110  C   -0.032205
   111  N   -0.452041
   112  C    0.125082
   113  C   -0.194104
   114  C   -0.009040
   115  C    0.139229
   116  C    0.070644
   117  C    0.151234
   118  O   -0.215030
   119  C   -0.144307
   120  C    0.289252
   121  O   -0.219309
   122  O   -0.405891
   123  C    0.143373
   124  H   -0.011128
   125  H    0.021197
   126  H    0.001220
   127  H    0.028654
   128  H    0.029454
   129  H    0.028588
   130  H    0.059088
   131  H    0.036167
   132  H    0.041283
   133  H    0.036879
   134  H    0.058438
   135  H    0.059632
   136  H    0.054130
   137  H    0.057862
   138  H    0.036125
   139  H    0.065628
   140  H    0.039174
   141  H    0.055196
   142  H    0.050632
   143  H    0.044459
   144  H    0.052649
   145  H    0.038274
   146  H    0.049601
   147  H    0.034812
   148  H    0.019206
   149  H    0.041764
   150  H    0.039430
   151  H    0.036826
   152  H    0.060605
   153  H    0.027136
   154  H    0.060452
   155  H    0.091816
   156  H    0.068530
   157  H    0.050146
   158  H    0.052334
 Sum of Mulliken charges =  -0.00000

 Dipole moment (field-independent basis, Debye):
    X=             -6.3485    Y=              0.6849    Z=              6.0887  Tot=              8.8230
 Quadrupole moment (field-independent basis, Debye-Ang):
   XX=           -416.6941   YY=           -492.1065   ZZ=           -483.9118
   XY=            -96.5857   XZ=             93.8580   YZ=             43.8056

 Normal termination of Gaussian 16 at Sat Sep 18 09:46:16 2021.
