 Gaussian 16, Revision A.03,
 Gaussian 16:  ES64L-G16RevA.03 25-Dec-2016

 --------------------------------
 #p wB97XD/Def2SVP td=(nstates=5)
 --------------------------------

 --------------------------------
 TDDFT excited states in gaussian
 --------------------------------
 Symbolic Z-matrix:
 Charge =  0 Multiplicity = 1

                         Standard orientation:
 ---------------------------------------------------------------------
 Center     Atomic      Atomic             Coordinates (Angstroms)
 Number     Number       Type             X           Y           Z
 ---------------------------------------------------------------------
      1         12           0       29.902925   -0.521894    0.395319
      2          6           0       26.549805    0.896142    0.498788
      3          6           0       28.583203   -3.129575   -1.406876
      4          6           0       32.923335   -1.019090   -0.950908
      5          6           0       31.006760    2.063212    2.304538
      6          7           0       27.799315   -0.931115   -0.529004
      7          6           0       26.561803   -0.235849   -0.277809
      8          6           0       25.394319   -1.064781   -0.820606
      9          6           0       26.004877   -2.474693   -1.074010
     10          6           0       27.576208   -2.231039   -1.000207
     11          6           0       25.558339   -3.571206    0.004856
     12          6           0       24.582766   -0.464074   -1.930966
     13          6           0       25.204423    0.718285   -2.711133
     14          1           0       24.595579    1.444140   -3.924763
     15          7           0       30.692087   -1.995579   -0.903472
     16          6           0       29.967662   -2.970040   -1.553716
     17          6           0       30.929027   -3.850881   -2.287616
     18          6           0       32.133332   -3.154089   -2.230170
     19          6           0       31.984162   -1.967727   -1.390604
     20          6           0       30.462952   -5.083572   -2.977843
     21          6           0       33.433850   -3.581909   -2.970640
     22          8           0       33.373204   -4.542615   -3.717265
     23          6           0       34.713569   -2.813578   -2.950260
     24          7           0       31.652823    0.538152    0.566134
     25          6           0       32.805659    0.002635   -0.007093
     26          6           0       34.049880    0.762793    0.452208
     27          6           0       33.526722    1.548915    1.708626
     28          6           0       32.016609    1.351347    1.558761
     29          6           0       35.334953   -0.044388    0.769600
     30          6           0       33.962147    3.045685    1.814214
     31          6           0       35.061380    3.376898    2.924308
     32          7           0       28.997314    1.121898    1.325160
     33          6           0       29.594850    2.058798    2.155666
     34          6           0       28.569849    2.874691    2.758871
     35          6           0       27.419199    2.480351    2.062690
     36          6           0       27.752860    1.390020    1.221782
     37          6           0       28.857711    4.002743    3.764681
     38          6           0       26.008247    2.676447    1.928639
     39          8           0       25.329749    3.488203    2.589778
     40          6           0       25.316750    1.571815    1.012792
     41          6           0       24.517128    2.348018    0.044163
     42          8           0       24.901470    3.311478   -0.627054
     43          8           0       23.320428    1.719605   -0.058221
     44          6           0       22.263085    2.430337   -0.843440
     45          1           0       28.164792   -3.948835   -1.994459
     46          1           0       33.907043   -1.202767   -1.388583
     47          1           0       31.377201    2.806152    3.013431
     48          1           0       24.808014   -1.092622    0.097888
     49          1           0       25.871082   -2.818384   -2.099870
     50          1           0       24.947000   -4.257675   -0.579570
     51          1           0       25.033879   -3.080214    0.824945
     52          1           0       26.479352   -4.065321    0.316228
     53          1           0       23.609331   -0.231855   -1.499378
     54          1           0       24.448109   -1.333398   -2.575456
     55          1           0       26.183660    0.355129   -3.024675
     56          1           0       25.354218    1.561180   -2.036158
     57          1           0       30.562269   -4.882882   -4.044196
     58          1           0       29.429465   -5.266107   -2.684966
     59          1           0       31.048226   -5.935403   -2.629751
     60          1           0       34.725970   -1.821626   -3.400295
     61          1           0       35.496372   -3.285478   -3.543361
     62          1           0       34.956926   -2.865843   -1.889151
     63          1           0       34.171707    1.370960   -0.444861
     64          1           0       33.863804    0.955758    2.558999
     65          1           0       36.069451   -0.027827   -0.036233
     66          1           0       35.081731   -1.096545    0.895423
     67          1           0       35.731209    0.332288    1.713205
     68          1           0       33.138168    3.742002    1.972590
     69          1           0       34.321540    3.283296    0.812897
     70          1           0       35.730331    4.045445    2.382994
     71          1           0       35.605745    2.512897    3.305750
     72          1           0       34.526358    3.780808    3.783051
     73          1           0       28.059756    4.204179    4.479719
     74          1           0       28.949593    4.854171    3.091216
     75          1           0       29.682869    3.722096    4.418876
     76          1           0       24.714210    0.912409    1.639205
     77          1           0       21.357276    1.823197   -0.857303
     78          1           0       22.573866    2.581064   -1.877441
     79          1           0       22.149836    3.355657   -0.280339
     80         12           0      -29.029002    0.396017   -0.719843
     81          6           0      -28.878638   -2.223763    1.650620
     82          6           0      -27.496502    2.427526    1.572206
     83          6           0      -29.753712    2.976899   -2.664493
     84          6           0      -31.005924   -1.673162   -2.735217
     85          7           0      -28.420287    0.166729    1.440028
     86          6           0      -28.364318   -1.043420    2.136553
     87          6           0      -27.497877   -0.879437    3.409593
     88          6           0      -27.081660    0.636335    3.369140
     89          6           0      -27.654985    1.153174    2.020563
     90          6           0      -27.331782    1.457488    4.621998
     91          6           0      -26.297198   -1.828184    3.549227
     92          6           0      -26.282775   -2.635187    4.876489
     93          1           0      -25.031139   -2.488782    5.713118
     94          7           0      -28.582542    2.417243   -0.580076
     95          6           0      -27.978957    3.094543    0.438439
     96          6           0      -27.758171    4.449869   -0.006673
     97          6           0      -28.558216    4.668019   -1.208748
     98          6           0      -29.007110    3.312842   -1.489142
     99          6           0      -27.007418    5.551836    0.905779
    100          6           0      -29.078190    5.892451   -1.829732
    101          8           0      -29.729625    5.982216   -2.831145
    102          6           0      -28.759435    7.195206   -1.102240
    103          7           0      -30.408653    0.639397   -2.365707
    104          6           0      -30.464887    1.809461   -3.031278
    105          6           0      -31.202556    1.640612   -4.361562
    106          6           0      -31.267756    0.113314   -4.522309
    107          6           0      -30.838790   -0.369353   -3.154688
    108          6           0      -32.653200    2.307627   -4.313064
    109          6           0      -30.187574   -0.330048   -5.635038
    110          6           0      -28.699100   -0.250123   -5.198821
    111          7           0      -29.737541   -1.598449   -0.709477
    112          6           0      -30.498654   -2.272042   -1.587077
    113          6           0      -30.683099   -3.608220   -1.087941
    114          6           0      -30.033148   -3.641820    0.131512
    115          6           0      -29.509752   -2.369893    0.379395
    116          6           0      -31.444779   -4.764824   -1.706724
    117          6           0      -29.795104   -4.549227    1.257233
    118          8           0      -30.124870   -5.645734    1.612043
    119          6           0      -28.969448   -3.696465    2.256475
    120          6           0      -29.756061   -3.685878    3.514845
    121          8           0      -30.907033   -3.328318    3.534007
    122          8           0      -29.067824   -4.201018    4.601531
    123          6           0      -29.883336   -4.500087    5.825966
    124          1           0      -26.828763    2.999675    2.219871
    125          1           0      -29.921178    3.766659   -3.400338
    126          1           0      -31.423994   -2.444572   -3.385340
    127          1           0      -28.141825   -0.978223    4.283725
    128          1           0      -25.993178    0.682485    3.329665
    129          1           0      -28.031786    0.955825    5.288513
    130          1           0      -27.683669    2.469667    4.420987
    131          1           0      -26.383777    1.473617    5.159114
    132          1           0      -25.297746   -1.393207    3.544794
    133          1           0      -26.269181   -2.538380    2.723138
    134          1           0      -26.553560   -3.678197    4.712778
    135          1           0      -27.069544   -2.231306    5.512378
    136          1           0      -26.267512    6.051952    0.280959
    137          1           0      -26.439950    5.170303    1.753768
    138          1           0      -27.606779    6.305904    1.415870
    139          1           0      -27.670505    7.238480   -1.134000
    140          1           0      -29.141548    7.048099   -0.092561
    141          1           0      -29.128504    8.095045   -1.595331
    142          1           0      -30.645595    2.017760   -5.219923
    143          1           0      -32.219478   -0.379711   -4.721673
    144          1           0      -32.893336    2.613130   -5.331787
    145          1           0      -32.799832    3.194550   -3.695721
    146          1           0      -33.307847    1.490248   -4.011086
    147          1           0      -30.297453    0.216670   -6.571384
    148          1           0      -30.266788   -1.402977   -5.810651
    149          1           0      -27.969449   -0.382634   -5.996961
    150          1           0      -28.528327   -1.046034   -4.473756
    151          1           0      -28.553892    0.711102   -4.704729
    152          1           0      -31.044564   -5.107659   -2.660598
    153          1           0      -32.439216   -4.352759   -1.876188
    154          1           0      -31.581104   -5.596867   -1.015935
    155          1           0      -28.065080   -4.287903    2.398246
    156          1           0      -29.209039   -4.087636    6.576503
    157          1           0      -30.017363   -5.567595    5.999808
    158          1           0      -30.885974   -4.086995    5.933438
 ---------------------------------------------------------------------

 SCF Done:  E(RwB97XD) =  -4070.58713791     A.U. after   19 cycles

 Excitation energies and oscillator strengths:

 Excited State   1:      Singlet-A      1.6105 eV  769.87 nm  f=0.3556  <S**2>=0.000
     309 -> 315       -0.16149
     312 -> 314        0.68856
     309 <- 315       -0.10999
 This state for optimization and/or second-order correction.
 Total Energy, E(TD-HF/TD-DFT) =  -4070.52795446
 Copying the excited state density for this state as the 1-particle RhoCI density.

 Excited State   2:      Singlet-A      1.6442 eV  754.06 nm  f=0.4037  <S**2>=0.000
     310 -> 316       -0.18146
     311 -> 313        0.68504
     310 <- 316       -0.11694

 Excited State   3:      Singlet-A      2.1358 eV  580.50 nm  f=0.1350  <S**2>=0.000
     310 -> 313        0.65465
     311 -> 316        0.25215

 Excited State   4:      Singlet-A      2.2277 eV  556.55 nm  f=0.0763  <S**2>=0.000
     309 -> 314        0.61811
     312 -> 315        0.32525

 Excited State   5:      Singlet-A      3.3973 eV  364.95 nm  f=0.0013  <S**2>=0.000
     303 -> 313       -0.14172
     304 -> 313        0.57623
     306 -> 313       -0.34300

 The electronic state is 1-A.
 Alpha  occ. eigenvalues --  -46.95882 -46.95661 -19.30574 -19.30373 -19.24658
 Alpha  occ. eigenvalues --  -19.24360 -19.24213 -19.24153 -19.23407 -19.22104
 Alpha  occ. eigenvalues --  -14.47077 -14.46723 -14.46519 -14.46209 -14.44375
 Alpha  occ. eigenvalues --  -14.44363 -14.43823 -14.43278 -10.42972 -10.42641
 Alpha  occ. eigenvalues --  -10.39535 -10.39184 -10.38308 -10.37536 -10.36072
 Alpha  occ. eigenvalues --  -10.35875 -10.35756 -10.35580 -10.35567 -10.35020
 Alpha  occ. eigenvalues --  -10.34975 -10.34960 -10.34796 -10.34772 -10.34762
 Alpha  occ. eigenvalues --  -10.34538 -10.34261 -10.33980 -10.33815 -10.33369
 Alpha  occ. eigenvalues --  -10.33195 -10.33074 -10.32962 -10.32824 -10.32816
 Alpha  occ. eigenvalues --  -10.32567 -10.32459 -10.32408 -10.32264 -10.32095
 Alpha  occ. eigenvalues --  -10.32058 -10.32028 -10.31975 -10.31941 -10.31914
 Alpha  occ. eigenvalues --  -10.31891 -10.31864 -10.31694 -10.31680 -10.31564
 Alpha  occ. eigenvalues --  -10.31544 -10.31402 -10.31362 -10.31287 -10.31235
 Alpha  occ. eigenvalues --  -10.31120 -10.31079 -10.30997 -10.30832 -10.30806
 Alpha  occ. eigenvalues --  -10.30713 -10.30678 -10.30572 -10.30474 -10.30356
 Alpha  occ. eigenvalues --  -10.30246 -10.30228 -10.30078 -10.29901 -10.29878
 Alpha  occ. eigenvalues --  -10.29825 -10.29807 -10.29461 -10.29104 -10.28922
 Alpha  occ. eigenvalues --  -10.27954  -3.21746  -3.21602  -1.95314  -1.95160
 Alpha  occ. eigenvalues --   -1.94879  -1.94746  -1.94706  -1.94550  -1.18239
 Alpha  occ. eigenvalues --   -1.17848  -1.13925  -1.13274  -1.12963  -1.09827
 Alpha  occ. eigenvalues --   -1.09647  -1.08865  -1.07209  -1.06839  -1.06334
 Alpha  occ. eigenvalues --   -1.06042  -1.05870  -1.04935  -1.04007  -1.02363
 Alpha  occ. eigenvalues --   -0.94348  -0.93890  -0.91271  -0.90894  -0.90774
 Alpha  occ. eigenvalues --   -0.90675  -0.90511  -0.90154  -0.89675  -0.88811
 Alpha  occ. eigenvalues --   -0.88656  -0.88513  -0.88273  -0.88008  -0.86340
 Alpha  occ. eigenvalues --   -0.86303  -0.85608  -0.85394  -0.84676  -0.84395
 Alpha  occ. eigenvalues --   -0.84269  -0.83149  -0.82926  -0.82821  -0.82124
 Alpha  occ. eigenvalues --   -0.82113  -0.80326  -0.80035  -0.79667  -0.79355
 Alpha  occ. eigenvalues --   -0.78706  -0.78431  -0.78079  -0.77931  -0.77201
 Alpha  occ. eigenvalues --   -0.77157  -0.75103  -0.75011  -0.73748  -0.73697
 Alpha  occ. eigenvalues --   -0.71570  -0.71287  -0.71205  -0.70977  -0.70061
 Alpha  occ. eigenvalues --   -0.69575  -0.69239  -0.68930  -0.68151  -0.67422
 Alpha  occ. eigenvalues --   -0.67385  -0.67289  -0.67143  -0.66693  -0.66454
 Alpha  occ. eigenvalues --   -0.65526  -0.64287  -0.64122  -0.62418  -0.61694
 Alpha  occ. eigenvalues --   -0.61676  -0.61287  -0.61127  -0.61038  -0.60733
 Alpha  occ. eigenvalues --   -0.60101  -0.59946  -0.59540  -0.59536  -0.59199
 Alpha  occ. eigenvalues --   -0.58773  -0.58171  -0.57983  -0.57342  -0.57164
 Alpha  occ. eigenvalues --   -0.57111  -0.56591  -0.56538  -0.56191  -0.56114
 Alpha  occ. eigenvalues --   -0.55640  -0.55451  -0.55363  -0.54930  -0.54755
 Alpha  occ. eigenvalues --   -0.54604  -0.54530  -0.54333  -0.54256  -0.54065
 Alpha  occ. eigenvalues --   -0.53831  -0.53748  -0.53471  -0.53387  -0.53216
 Alpha  occ. eigenvalues --   -0.53155  -0.52998  -0.52682  -0.52590  -0.52000
 Alpha  occ. eigenvalues --   -0.51905  -0.51743  -0.51557  -0.51544  -0.51437
 Alpha  occ. eigenvalues --   -0.51296  -0.51235  -0.50975  -0.50849  -0.50726
 Alpha  occ. eigenvalues --   -0.50341  -0.50273  -0.50194  -0.50080  -0.49872
 Alpha  occ. eigenvalues --   -0.49708  -0.49572  -0.49532  -0.49408  -0.49130
 Alpha  occ. eigenvalues --   -0.48960  -0.48869  -0.48793  -0.48488  -0.48368
 Alpha  occ. eigenvalues --   -0.48158  -0.48067  -0.48045  -0.47821  -0.47672
 Alpha  occ. eigenvalues --   -0.47491  -0.47425  -0.47236  -0.47126  -0.47044
 Alpha  occ. eigenvalues --   -0.46902  -0.46477  -0.46340  -0.45995  -0.45944
 Alpha  occ. eigenvalues --   -0.45855  -0.45597  -0.45412  -0.45359  -0.45321
 Alpha  occ. eigenvalues --   -0.45286  -0.44994  -0.44879  -0.44843  -0.44664
 Alpha  occ. eigenvalues --   -0.44498  -0.44392  -0.44298  -0.44244  -0.44071
 Alpha  occ. eigenvalues --   -0.44029  -0.43943  -0.43920  -0.43691  -0.43369
 Alpha  occ. eigenvalues --   -0.43299  -0.42968  -0.42796  -0.42792  -0.42230
 Alpha  occ. eigenvalues --   -0.41834  -0.41645  -0.41258  -0.41005  -0.40983
 Alpha  occ. eigenvalues --   -0.40459  -0.40229  -0.40014  -0.39808  -0.39366
 Alpha  occ. eigenvalues --   -0.39248  -0.39149  -0.38576  -0.38355  -0.38297
 Alpha  occ. eigenvalues --   -0.38214  -0.37810  -0.36403  -0.36326  -0.36040
 Alpha  occ. eigenvalues --   -0.35826  -0.35647  -0.34933  -0.33829  -0.33756
 Alpha  occ. eigenvalues --   -0.33246  -0.33177  -0.32559  -0.32374  -0.32333
 Alpha  occ. eigenvalues --   -0.32216  -0.31555  -0.31160  -0.26409  -0.26104
 Alpha  occ. eigenvalues --   -0.23394  -0.22590
 Alpha virt. eigenvalues --   -0.07534  -0.06932   0.00119   0.00482   0.02595
 Alpha virt. eigenvalues --    0.03135   0.04461   0.04579   0.04628   0.04800
 Alpha virt. eigenvalues --    0.07068   0.07556   0.07762   0.07913   0.08811

 Mulliken charges:
               1
     1  Mg   0.954392
     2  C   -0.033388
     3  C   -0.083001
     4  C   -0.079841
     5  C   -0.083015
     6  N   -0.368522
     7  C   -0.053173
     8  C   -0.004913
     9  C   -0.142394
    10  C    0.044616
    11  C    0.037072
    12  C    0.030578
    13  C   -0.102247
    14  H    0.037279
    15  N   -0.470955
    16  C    0.144952
    17  C   -0.159928
    18  C   -0.079480
    19  C    0.169678
    20  C    0.104800
    21  C    0.036104
    22  O   -0.227560
    23  C    0.002037
    24  N   -0.386317
    25  C    0.091729
    26  C   -0.126933
    27  C   -0.015471
    28  C    0.025626
    29  C    0.031674
    30  C   -0.022247
    31  C   -0.061825
    32  N   -0.378322
    33  C    0.092589
    34  C   -0.180499
    35  C   -0.010857
    36  C    0.118931
    37  C    0.073288
    38  C    0.083821
    39  O   -0.250565
    40  C   -0.041231
    41  C    0.265272
    42  O   -0.260786
    43  O   -0.368611
    44  C    0.138612
    45  H    0.004102
    46  H   -0.041750
    47  H   -0.008979
    48  H    0.025738
    49  H    0.039996
    50  H    0.048680
    51  H    0.050471
    52  H    0.040827
    53  H    0.031540
    54  H    0.017651
    55  H    0.047121
    56  H    0.072056
    57  H    0.073555
    58  H    0.022211
    59  H    0.060951
    60  H    0.076674
    61  H    0.048891
    62  H    0.056604
    63  H    0.052210
    64  H    0.031507
    65  H    0.041512
    66  H    0.036522
    67  H    0.042387
    68  H    0.044449
    69  H    0.024549
    70  H    0.051173
    71  H    0.034950
    72  H    0.047439
    73  H    0.051615
    74  H    0.071748
    75  H    0.038748
    76  H    0.074312
    77  H    0.059689
    78  H    0.067150
    79  H    0.072725
    80  Mg   0.946119
    81  C   -0.040798
    82  C   -0.093299
    83  C   -0.065083
    84  C   -0.068564
    85  N   -0.372048
    86  C    0.009064
    87  C   -0.037737
    88  C   -0.103049
    89  C    0.075419
    90  C    0.021423
    91  C    0.015489
    92  C   -0.142120
    93  H    0.025743
    94  N   -0.445281
    95  C    0.174402
    96  C   -0.128305
    97  C   -0.081789
    98  C    0.149762
    99  C    0.017804
   100  C    0.023328
   101  O   -0.210412
   102  C   -0.005757
   103  N   -0.331121
   104  C    0.048311
   105  C   -0.089084
   106  C   -0.066777
   107  C    0.055925
   108  C    0.021713
   109  C   -0.041471
   110  C   -0.066457
   111  N   -0.412069
   112  C    0.080606
   113  C   -0.175988
   114  C   -0.085091
   115  C    0.178375
   116  C    0.073489
   117  C    0.147749
   118  O   -0.174257
   119  C   -0.066686
   120  C    0.252313
   121  O   -0.231221
   122  O   -0.382067
   123  C    0.126254
   124  H   -0.009988
   125  H    0.025841
   126  H   -0.003892
   127  H    0.040920
   128  H    0.033970
   129  H    0.030248
   130  H    0.043340
   131  H    0.031391
   132  H    0.042746
   133  H    0.032975
   134  H    0.067855
   135  H    0.036395
   136  H    0.049070
   137  H    0.027059
   138  H    0.053888
   139  H    0.041721
   140  H    0.056491
   141  H    0.049654
   142  H    0.042169
   143  H    0.039936
   144  H    0.039820
   145  H    0.057670
   146  H    0.036726
   147  H    0.045250
   148  H    0.027647
   149  H    0.048323
   150  H    0.041017
   151  H    0.039451
   152  H    0.051870
   153  H    0.041782
   154  H    0.060834
   155  H    0.062962
   156  H    0.052998
   157  H    0.061573
   158  H    0.073532
 Sum of Mulliken charges =  -0.00000

 Dipole moment (field-independent basis, Debye):
    X=              6.0633    Y=             -2.0719    Z=              1.2767  Tot=              6.5335
 Quadrupole moment (field-independent basis, Debye-Ang):
   XX=           -478.5705   YY=           -549.3497   ZZ=           -491.6472
   XY=            -92.8058   XZ=             69.1495   YZ=              7.7023

 Normal termination of Gaussian 16 at Sat Sep 18 16:04:47 2021.
