 Gaussian 16, Revision A.03,
 Gaussian 16:  ES64L-G16RevA.03 25-Dec-2016

 --------------------------------
 #p wB97XD/Def2SVP td=(nstates=5)
 --------------------------------

 --------------------------------
 TDDFT excited states in gaussian
 --------------------------------
 Symbolic Z-matrix:
 Charge =  0 Multiplicity = 1

                         Standard orientation:
 ---------------------------------------------------------------------
 Center     Atomic      Atomic             Coordinates (Angstroms)
 Number     Number       Type             X           Y           Z
 ---------------------------------------------------------------------
      1         12           0       19.162248   -0.196286   -0.067904
      2          6           0       15.880194   -0.960280   -0.825443
      3          6           0       19.048326    2.254630   -2.482517
      4          6           0       22.188255    0.961111    1.073549
      5          6           0       19.159179   -2.590959    2.405298
      6          7           0       17.597669    0.686028   -1.336462
      7          6           0       16.343125    0.136113   -1.511957
      8          6           0       15.539626    0.879967   -2.575386
      9          6           0       16.680763    1.668487   -3.319810
     10          6           0       17.813350    1.569041   -2.308402
     11          6           0       17.039261    1.210718   -4.805796
     12          6           0       14.349051    1.751834   -2.063212
     13          6           0       13.055747    1.619882   -2.839431
     14          1           0       12.728015    2.879583   -3.625910
     15          7           0       20.388710    1.382491   -0.634702
     16          6           0       20.189121    2.239638   -1.642250
     17          6           0       21.328432    3.127361   -1.797620
     18          6           0       22.284723    2.854287   -0.833825
     19          6           0       21.638594    1.728668   -0.031429
     20          6           0       21.362800    4.304351   -2.884626
     21          6           0       23.698764    3.512206   -0.691984
     22          8           0       24.007748    4.457032   -1.472011
     23          6           0       24.656666    3.094330    0.357027
     24          7           0       20.438376   -0.588398    1.725512
     25          6           0       21.659989   -0.124524    1.855361
     26          6           0       22.487915   -0.917545    2.844851
     27          6           0       21.555183   -2.044444    3.404929
     28          6           0       20.308825   -1.813903    2.422835
     29          6           0       23.962638   -1.300476    2.500235
     30          6           0       21.121806   -2.042349    4.899602
     31          6           0       20.590925   -3.382996    5.363520
     32          7           0       17.772344   -1.532599    0.675438
     33          6           0       17.934792   -2.537120    1.657380
     34          6           0       16.731351   -3.322819    1.686772
     35          6           0       15.875919   -2.775601    0.699602
     36          6           0       16.567244   -1.685149    0.179061
     37          6           0       16.524396   -4.636161    2.426455
     38          6           0       14.644782   -2.957623    0.107755
     39          8           0       13.695111   -3.665641    0.304993
     40          6           0       14.504145   -1.663067   -0.849915
     41          6           0       13.594605   -0.721629   -0.061892
     42          8           0       13.942082    0.000285    0.852811
     43          8           0       12.318725   -0.873586   -0.580355
     44          6           0       11.260460   -0.139059    0.105347
     45          1           0       19.145921    2.903949   -3.354865
     46          1           0       23.154048    1.371399    1.374783
     47          1           0       19.063856   -3.469565    3.046697
     48          1           0       15.167426    0.137157   -3.280341
     49          1           0       16.423745    2.725950   -3.248109
     50          1           0       18.064279    1.568526   -4.902189
     51          1           0       16.513413    1.764003   -5.584305
     52          1           0       16.946134    0.148095   -5.029569
     53          1           0       14.734210    2.768262   -2.147120
     54          1           0       14.155178    1.742697   -0.990829
     55          1           0       12.268229    1.396834   -2.119233
     56          1           0       13.087177    0.810378   -3.568956
     57          1           0       20.455247    4.414151   -3.479748
     58          1           0       22.199398    4.167014   -3.570527
     59          1           0       21.410567    5.296837   -2.438677
     60          1           0       24.894043    2.038241    0.232806
     61          1           0       24.330371    3.410002    1.348066
     62          1           0       25.596705    3.549198    0.047216
     63          1           0       22.677116   -0.426148    3.799450
     64          1           0       21.841438   -3.036092    3.053716
     65          1           0       24.228197   -0.704528    1.625977
     66          1           0       24.127865   -2.373805    2.399766
     67          1           0       24.688468   -1.016537    3.262376
     68          1           0       20.408436   -1.224917    5.003650
     69          1           0       22.015218   -1.722142    5.435585
     70          1           0       20.836586   -3.483787    6.420978
     71          1           0       21.006492   -4.252113    4.852203
     72          1           0       19.501383   -3.359438    5.340926
     73          1           0       15.610621   -5.160840    2.147333
     74          1           0       16.543345   -4.418836    3.493616
     75          1           0       17.348310   -5.326376    2.244806
     76          1           0       14.186302   -1.944157   -1.854412
     77          1           0       11.141716   -0.531851    1.115292
     78          1           0       10.324465   -0.161875   -0.451721
     79          1           0       11.564605    0.899498    0.232629
     80         12           0      -18.870354    0.359089    0.416219
     81          6           0      -15.821124   -0.593677   -1.072623
     82          6           0      -20.126942   -2.691810   -0.612190
     83          6           0      -21.918080    1.194435    1.707789
     84          6           0      -17.625981    3.411415    1.051917
     85          7           0      -18.040948   -1.473794   -0.698000
     86          6           0      -16.731174   -1.710630   -1.097502
     87          6           0      -16.551743   -3.163822   -1.488403
     88          6           0      -18.025061   -3.682201   -1.666634
     89          6           0      -18.754226   -2.571524   -0.944518
     90          6           0      -18.482638   -3.949200   -3.154111
     91          6           0      -15.833914   -3.995413   -0.414935
     92          6           0      -14.882973   -5.073869   -0.945042
     93          1           0      -15.491395   -6.310785   -1.662631
     94          7           0      -20.727214   -0.631720    0.616241
     95          6           0      -20.987669   -1.844964    0.077078
     96          6           0      -22.368737   -2.143502    0.275636
     97          6           0      -22.952475   -1.109507    1.086277
     98          6           0      -21.889445   -0.120457    1.115015
     99          6           0      -23.002249   -3.395706   -0.264024
    100          6           0      -24.360016   -0.931885    1.655924
    101          8           0      -24.625598   -0.033428    2.484653
    102          6           0      -25.543341   -1.777396    1.198849
    103          7           0      -19.618179    2.008562    1.328912
    104          6           0      -20.937572    2.187739    1.733512
    105          6           0      -21.107699    3.585967    2.232350
    106          6           0      -19.739928    4.350476    2.118385
    107          6           0      -18.903789    3.213741    1.508553
    108          6           0      -22.343657    4.338160    1.653452
    109          6           0      -19.148080    4.859920    3.450427
    110          6           0      -19.473208    6.337560    3.742531
    111          7           0      -17.157945    1.280030    0.055006
    112          6           0      -16.702505    2.546388    0.419190
    113          6           0      -15.257507    2.774487    0.045378
    114          6           0      -14.944007    1.549612   -0.565799
    115          6           0      -16.074659    0.674012   -0.492368
    116          6           0      -14.437989    4.027173    0.296295
    117          6           0      -13.842446    0.860380   -1.220699
    118          8           0      -12.704077    1.238942   -1.499725
    119          6           0      -14.370303   -0.618013   -1.457610
    120          6           0      -14.102057   -0.909327   -2.947230
    121          8           0      -14.252266   -0.137475   -3.871817
    122          8           0      -13.493689   -2.158709   -3.051955
    123          6           0      -13.188741   -2.531413   -4.433456
    124          1           0      -20.467776   -3.693734   -0.880620
    125          1           0      -22.842841    1.562472    2.156528
    126          1           0      -17.341292    4.457364    1.181165
    127          1           0      -16.031301   -3.319002   -2.433154
    128          1           0      -18.232952   -4.637223   -1.184048
    129          1           0      -17.702935   -3.853635   -3.910325
    130          1           0      -19.263788   -3.299562   -3.548199
    131          1           0      -18.823599   -4.977625   -3.273338
    132          1           0      -16.545936   -4.487569    0.247167
    133          1           0      -15.192323   -3.362075    0.198046
    134          1           0      -14.198956   -5.427782   -0.173825
    135          1           0      -14.171992   -4.657433   -1.658314
    136          1           0      -22.665308   -3.384244   -1.300685
    137          1           0      -24.090718   -3.439579   -0.298702
    138          1           0      -22.653602   -4.319940    0.196210
    139          1           0      -25.607513   -1.799595    0.110840
    140          1           0      -26.381923   -1.259001    1.663538
    141          1           0      -25.440586   -2.809986    1.532443
    142          1           0      -21.459493    3.506449    3.261400
    143          1           0      -19.724881    5.168836    1.397397
    144          1           0      -22.816659    3.682817    0.921763
    145          1           0      -21.999413    5.236132    1.141078
    146          1           0      -22.979988    4.504812    2.523240
    147          1           0      -18.088702    4.604332    3.451713
    148          1           0      -19.621485    4.365793    4.299135
    149          1           0      -20.375823    6.629611    3.205428
    150          1           0      -18.746470    7.074623    3.400425
    151          1           0      -19.687866    6.428792    4.807698
    152          1           0      -14.227163    4.064081    1.365220
    153          1           0      -14.927949    4.968584    0.048516
    154          1           0      -13.520018    3.896428   -0.276491
    155          1           0      -13.893786   -1.391617   -0.855768
    156          1           0      -13.984884   -3.069641   -4.948699
    157          1           0      -12.284393   -3.133141   -4.344110
    158          1           0      -12.973636   -1.748349   -5.160515
 ---------------------------------------------------------------------

 SCF Done:  E(RwB97XD) =  -4070.63966237     A.U. after   20 cycles

 Excitation energies and oscillator strengths:

 Excited State   1:      Singlet-A      1.6476 eV  752.51 nm  f=0.3775  <S**2>=0.000
     310 -> 315        0.19178
     312 -> 313        0.68144
     310 <- 315        0.11859
 This state for optimization and/or second-order correction.
 Total Energy, E(TD-HF/TD-DFT) =  -4070.57911356
 Copying the excited state density for this state as the 1-particle RhoCI density.

 Excited State   2:      Singlet-A      1.8711 eV  662.64 nm  f=0.3737  <S**2>=0.000
     309 -> 316        0.14187
     311 -> 314        0.68597

 Excited State   3:      Singlet-A      2.1798 eV  568.78 nm  f=0.0974  <S**2>=0.000
     310 -> 313        0.63418
     312 -> 315       -0.30016

 Excited State   4:      Singlet-A      2.2254 eV  557.14 nm  f=0.1260  <S**2>=0.000
     309 -> 314        0.64384
     311 -> 316       -0.24646
     311 -> 318       -0.10826

 Excited State   5:      Singlet-A      3.4332 eV  361.14 nm  f=0.1158  <S**2>=0.000
     305 -> 313       -0.16782
     306 -> 313        0.56538
     310 -> 313        0.11152
     312 -> 315        0.34358

 The electronic state is 1-A.
 Alpha  occ. eigenvalues --  -46.95725 -46.93955 -19.30940 -19.29645 -19.25322
 Alpha  occ. eigenvalues --  -19.25297 -19.24692 -19.24235 -19.24096 -19.22620
 Alpha  occ. eigenvalues --  -14.47250 -14.46889 -14.46605 -14.45845 -14.45193
 Alpha  occ. eigenvalues --  -14.44455 -14.44067 -14.42985 -10.43497 -10.42851
 Alpha  occ. eigenvalues --  -10.41078 -10.39828 -10.39057 -10.37318 -10.37259
 Alpha  occ. eigenvalues --  -10.36500 -10.35801 -10.35417 -10.35224 -10.35180
 Alpha  occ. eigenvalues --  -10.34867 -10.34802 -10.34797 -10.34761 -10.34324
 Alpha  occ. eigenvalues --  -10.34282 -10.34247 -10.34058 -10.33741 -10.33620
 Alpha  occ. eigenvalues --  -10.33362 -10.33158 -10.33038 -10.32886 -10.32851
 Alpha  occ. eigenvalues --  -10.32801 -10.32661 -10.32549 -10.32460 -10.32398
 Alpha  occ. eigenvalues --  -10.32391 -10.32274 -10.32198 -10.32184 -10.32095
 Alpha  occ. eigenvalues --  -10.31865 -10.31654 -10.31533 -10.31338 -10.31263
 Alpha  occ. eigenvalues --  -10.31194 -10.31147 -10.31130 -10.31078 -10.31027
 Alpha  occ. eigenvalues --  -10.31009 -10.30989 -10.30918 -10.30802 -10.30759
 Alpha  occ. eigenvalues --  -10.30754 -10.30745 -10.30461 -10.30442 -10.30286
 Alpha  occ. eigenvalues --  -10.30226 -10.30211 -10.30000 -10.29940 -10.29844
 Alpha  occ. eigenvalues --  -10.29683 -10.29610 -10.29496 -10.29340 -10.29057
 Alpha  occ. eigenvalues --  -10.26964  -3.21620  -3.20148  -1.95189  -1.94744
 Alpha  occ. eigenvalues --   -1.94591  -1.93743  -1.93253  -1.93166  -1.18419
 Alpha  occ. eigenvalues --   -1.17513  -1.11902  -1.11418  -1.11408  -1.11133
 Alpha  occ. eigenvalues --   -1.10336  -1.09991  -1.06689  -1.06579  -1.05846
 Alpha  occ. eigenvalues --   -1.05710  -1.05255  -1.05040  -1.04514  -1.03413
 Alpha  occ. eigenvalues --   -0.94504  -0.93437  -0.91256  -0.91008  -0.90883
 Alpha  occ. eigenvalues --   -0.90318  -0.90178  -0.89925  -0.89365  -0.88977
 Alpha  occ. eigenvalues --   -0.88955  -0.88674  -0.88049  -0.87689  -0.86380
 Alpha  occ. eigenvalues --   -0.86288  -0.85521  -0.85402  -0.85098  -0.84179
 Alpha  occ. eigenvalues --   -0.83959  -0.83636  -0.82881  -0.82588  -0.82117
 Alpha  occ. eigenvalues --   -0.82009  -0.80399  -0.79565  -0.79350  -0.79160
 Alpha  occ. eigenvalues --   -0.79075  -0.78609  -0.78051  -0.77230  -0.77060
 Alpha  occ. eigenvalues --   -0.76968  -0.74639  -0.74327  -0.73648  -0.73598
 Alpha  occ. eigenvalues --   -0.71637  -0.71315  -0.71071  -0.70703  -0.70124
 Alpha  occ. eigenvalues --   -0.69815  -0.69338  -0.69292  -0.67684  -0.67515
 Alpha  occ. eigenvalues --   -0.67411  -0.67370  -0.66671  -0.66454  -0.66126
 Alpha  occ. eigenvalues --   -0.65997  -0.64516  -0.63634  -0.62327  -0.62117
 Alpha  occ. eigenvalues --   -0.62007  -0.61395  -0.61007  -0.60904  -0.60442
 Alpha  occ. eigenvalues --   -0.60441  -0.59729  -0.59665  -0.59462  -0.59291
 Alpha  occ. eigenvalues --   -0.58436  -0.58002  -0.57425  -0.57376  -0.57048
 Alpha  occ. eigenvalues --   -0.56934  -0.56498  -0.56058  -0.55891  -0.55718
 Alpha  occ. eigenvalues --   -0.55631  -0.55393  -0.55236  -0.55080  -0.55053
 Alpha  occ. eigenvalues --   -0.54788  -0.54670  -0.54477  -0.54083  -0.53920
 Alpha  occ. eigenvalues --   -0.53741  -0.53662  -0.53472  -0.53129  -0.52945
 Alpha  occ. eigenvalues --   -0.52633  -0.52466  -0.52358  -0.52164  -0.52102
 Alpha  occ. eigenvalues --   -0.51964  -0.51931  -0.51712  -0.51691  -0.51374
 Alpha  occ. eigenvalues --   -0.51233  -0.50979  -0.50953  -0.50815  -0.50578
 Alpha  occ. eigenvalues --   -0.50368  -0.50365  -0.50157  -0.50102  -0.49970
 Alpha  occ. eigenvalues --   -0.49547  -0.49495  -0.49293  -0.49248  -0.49141
 Alpha  occ. eigenvalues --   -0.48738  -0.48559  -0.48472  -0.48418  -0.48179
 Alpha  occ. eigenvalues --   -0.48086  -0.48007  -0.47887  -0.47799  -0.47418
 Alpha  occ. eigenvalues --   -0.47097  -0.47080  -0.46929  -0.46803  -0.46767
 Alpha  occ. eigenvalues --   -0.46566  -0.46551  -0.46425  -0.46262  -0.46230
 Alpha  occ. eigenvalues --   -0.46227  -0.45815  -0.45484  -0.45471  -0.45340
 Alpha  occ. eigenvalues --   -0.45285  -0.45102  -0.45055  -0.44924  -0.44744
 Alpha  occ. eigenvalues --   -0.44600  -0.44425  -0.44416  -0.44265  -0.44055
 Alpha  occ. eigenvalues --   -0.43943  -0.43824  -0.43700  -0.43488  -0.43465
 Alpha  occ. eigenvalues --   -0.43078  -0.42941  -0.42616  -0.42367  -0.42307
 Alpha  occ. eigenvalues --   -0.42125  -0.42052  -0.41731  -0.41569  -0.41201
 Alpha  occ. eigenvalues --   -0.40846  -0.40570  -0.40205  -0.39972  -0.39827
 Alpha  occ. eigenvalues --   -0.39257  -0.39237  -0.38811  -0.38683  -0.38567
 Alpha  occ. eigenvalues --   -0.38278  -0.37241  -0.37118  -0.36919  -0.36352
 Alpha  occ. eigenvalues --   -0.36104  -0.35305  -0.35063  -0.34451  -0.34099
 Alpha  occ. eigenvalues --   -0.33474  -0.33123  -0.33035  -0.32904  -0.32648
 Alpha  occ. eigenvalues --   -0.32173  -0.31568  -0.31126  -0.26020  -0.25840
 Alpha  occ. eigenvalues --   -0.23320  -0.22855
 Alpha virt. eigenvalues --   -0.06884  -0.06707   0.00170   0.00180   0.02077
 Alpha virt. eigenvalues --    0.02211   0.03882   0.04126   0.04960   0.06814
 Alpha virt. eigenvalues --    0.07149   0.07455   0.07656   0.08222   0.08368

 Mulliken charges:
               1
     1  Mg   0.966689
     2  C   -0.041289
     3  C   -0.128725
     4  C   -0.109133
     5  C   -0.042098
     6  N   -0.333101
     7  C   -0.011651
     8  C   -0.074489
     9  C   -0.076006
    10  C    0.063653
    11  C    0.034906
    12  C    0.028164
    13  C   -0.107201
    14  H    0.024855
    15  N   -0.466086
    16  C    0.186048
    17  C   -0.153030
    18  C   -0.065505
    19  C    0.142319
    20  C    0.072275
    21  C    0.052384
    22  O   -0.254014
    23  C    0.003637
    24  N   -0.331046
    25  C    0.128586
    26  C   -0.083445
    27  C   -0.090882
    28  C    0.027190
    29  C    0.020534
    30  C    0.009846
    31  C   -0.034548
    32  N   -0.438551
    33  C    0.046329
    34  C   -0.148251
    35  C    0.002730
    36  C    0.157684
    37  C    0.059536
    38  C    0.057925
    39  O   -0.195118
    40  C   -0.117847
    41  C    0.297039
    42  O   -0.238876
    43  O   -0.364143
    44  C    0.141210
    45  H   -0.003554
    46  H   -0.019523
    47  H   -0.016898
    48  H    0.023286
    49  H    0.032797
    50  H    0.024983
    51  H    0.044718
    52  H    0.053862
    53  H    0.020257
    54  H    0.052853
    55  H    0.048366
    56  H    0.048681
    57  H    0.019619
    58  H    0.064622
    59  H    0.059491
    60  H    0.061863
    61  H    0.091273
    62  H    0.055030
    63  H    0.038369
    64  H    0.031546
    65  H    0.030234
    66  H    0.041565
    67  H    0.029118
    68  H    0.042130
    69  H    0.025784
    70  H    0.032431
    71  H    0.043047
    72  H    0.051717
    73  H    0.058571
    74  H    0.038058
    75  H    0.040713
    76  H    0.054851
    77  H    0.058153
    78  H    0.061077
    79  H    0.042405
    80  Mg   1.001454
    81  C   -0.064820
    82  C   -0.110778
    83  C   -0.083537
    84  C   -0.100735
    85  N   -0.307679
    86  C    0.022494
    87  C   -0.031820
    88  C   -0.097706
    89  C    0.018945
    90  C    0.007948
    91  C    0.023204
    92  C   -0.123410
    93  H    0.016989
    94  N   -0.427955
    95  C    0.224174
    96  C   -0.180469
    97  C   -0.042825
    98  C    0.127580
    99  C    0.061921
   100  C    0.049141
   101  O   -0.257591
   102  C   -0.023694
   103  N   -0.456674
   104  C    0.108921
   105  C   -0.100379
   106  C   -0.055392
   107  C    0.059321
   108  C    0.015938
   109  C    0.000276
   110  C   -0.055614
   111  N   -0.483384
   112  C    0.140222
   113  C   -0.167152
   114  C   -0.071751
   115  C    0.182689
   116  C    0.080911
   117  C    0.161340
   118  O   -0.208478
   119  C   -0.105894
   120  C    0.266299
   121  O   -0.223803
   122  O   -0.369629
   123  C    0.126374
   124  H   -0.009039
   125  H    0.016314
   126  H   -0.010463
   127  H    0.030677
   128  H    0.039925
   129  H    0.034311
   130  H    0.041827
   131  H    0.034272
   132  H    0.040666
   133  H    0.036942
   134  H    0.048609
   135  H    0.050374
   136  H    0.046101
   137  H    0.026832
   138  H    0.058692
   139  H    0.061342
   140  H    0.063701
   141  H    0.063619
   142  H    0.042756
   143  H    0.042914
   144  H    0.043666
   145  H    0.034090
   146  H    0.043556
   147  H    0.037054
   148  H    0.028018
   149  H    0.024540
   150  H    0.041173
   151  H    0.040900
   152  H    0.050571
   153  H    0.047728
   154  H    0.066207
   155  H    0.072985
   156  H    0.043171
   157  H    0.055782
   158  H    0.065219
 Sum of Mulliken charges =  -0.00000

 Dipole moment (field-independent basis, Debye):
    X=              1.6921    Y=             -2.8095    Z=              0.0663  Tot=              3.2804
 Quadrupole moment (field-independent basis, Debye-Ang):
   XX=           -265.9183   YY=           -491.6119   ZZ=           -493.5158
   XY=             30.1970   XZ=             34.2002   YZ=             16.3883

 Normal termination of Gaussian 16 at Sun Sep 19 12:43:52 2021.
