 Gaussian 16, Revision A.03,
 Gaussian 16:  ES64L-G16RevA.03 25-Dec-2016

 --------------------------------
 #p wB97XD/Def2SVP td=(nstates=5)
 --------------------------------

 --------------------------------
 TDDFT excited states in gaussian
 --------------------------------
 Symbolic Z-matrix:
 Charge =  0 Multiplicity = 1

                         Standard orientation:
 ---------------------------------------------------------------------
 Center     Atomic      Atomic             Coordinates (Angstroms)
 Number     Number       Type             X           Y           Z
 ---------------------------------------------------------------------
      1         12           0       -0.620606    0.037434   -0.381047
      2          6           0        2.798559    0.046990    0.137388
      3          6           0       -0.591678   -3.486459    0.036274
      4          6           0       -4.046190   -0.004190   -0.304848
      5          6           0       -0.701978    3.489542   -0.307985
      6          7           0        0.969454   -1.506895   -0.092808
      7          6           0        2.291035   -1.237633    0.194748
      8          6           0        3.112261   -2.497202    0.662417
      9          6           0        2.115656   -3.676238    0.237195
     10          6           0        0.710186   -2.892321   -0.013429
     11          6           0        2.494395   -4.605010   -0.978675
     12          6           0        3.447678   -2.534801    2.111896
     13          6           0        4.892020   -2.549336    2.574332
     14          1           0        5.163395   -3.246946    3.916887
     15          7           0       -2.122854   -1.555956   -0.256720
     16          6           0       -1.841491   -2.930533   -0.143782
     17          6           0       -3.059604   -3.674746   -0.194645
     18          6           0       -4.126712   -2.641499   -0.136320
     19          6           0       -3.467989   -1.301143   -0.218202
     20          6           0       -3.145142   -5.195940   -0.032233
     21          6           0       -5.612281   -3.030905   -0.041825
     22          8           0       -6.081298   -4.163559    0.023324
     23          6           0       -6.570442   -1.953092    0.323622
     24          7           0       -2.236045    1.592333   -0.131100
     25          6           0       -3.526018    1.282770   -0.320261
     26          6           0       -4.329288    2.531930    0.039045
     27          6           0       -3.289950    3.745827   -0.036077
     28          6           0       -1.943517    2.909113   -0.200162
     29          6           0       -5.449946    2.765016   -1.035276
     30          6           0       -3.202650    4.783575    1.157235
     31          6           0       -3.599125    6.237464    0.948356
     32          7           0        0.790294    1.533575   -0.211844
     33          6           0        0.623928    2.921853   -0.233799
     34          6           0        1.884553    3.567233   -0.028781
     35          6           0        2.807977    2.488526    0.133233
     36          6           0        2.044952    1.269200   -0.044801
     37          6           0        2.183051    5.032005    0.035004
     38          6           0        4.150043    2.116529    0.316750
     39          8           0        5.115438    2.841517    0.450941
     40          6           0        4.199661    0.542274    0.410375
     41          6           0        5.318331    0.058681   -0.413866
     42          8           0        6.377494   -0.340558    0.056675
     43          8           0        4.996190    0.152617   -1.759563
     44          6           0        6.097791   -0.277302   -2.649878
     45          1           0       -0.702817   -4.570167    0.105668
     46          1           0       -5.131438   -0.113950   -0.363593
     47          1           0       -0.753678    4.578370   -0.244840
     48          1           0        4.028921   -2.568257    0.077970
     49          1           0        1.944463   -4.272311    1.134291
     50          1           0        3.544052   -4.419719   -1.206468
     51          1           0        1.884895   -4.457493   -1.870317
     52          1           0        2.312563   -5.631016   -0.660938
     53          1           0        3.043628   -3.473150    2.494804
     54          1           0        3.016904   -1.669957    2.615312
     55          1           0        5.194277   -1.516400    2.744439
     56          1           0        5.562842   -3.054548    1.879824
     57          1           0       -2.260798   -5.794044    0.186420
     58          1           0       -3.642511   -5.492016   -0.955518
     59          1           0       -3.958193   -5.321395    0.682113
     60          1           0       -7.038661   -1.359039   -0.460044
     61          1           0       -6.177056   -1.297796    1.100901
     62          1           0       -7.430374   -2.457464    0.765904
     63          1           0       -4.783003    2.473804    1.028683
     64          1           0       -3.391278    4.268066   -0.986801
     65          1           0       -6.381118    2.914471   -0.488775
     66          1           0       -5.572310    1.966387   -1.768020
     67          1           0       -5.270174    3.639294   -1.661336
     68          1           0       -2.160738    4.729774    1.472098
     69          1           0       -3.901958    4.409767    1.906409
     70          1           0       -3.061075    6.789442    1.719432
     71          1           0       -4.665233    6.344404    1.149758
     72          1           0       -3.364975    6.737579    0.009184
     73          1           0        3.258082    5.109570    0.199560
     74          1           0        1.574355    5.450006    0.836220
     75          1           0        1.967065    5.590562   -0.875924
     76          1           0        4.461435    0.358091    1.452869
     77          1           0        6.735354    0.572391   -2.893855
     78          1           0        5.619941   -0.769352   -3.496990
     79          1           0        6.705506   -1.058791   -2.194630
 ---------------------------------------------------------------------

 SCF Done:  E(RwB97XD) =  -2035.28894119     A.U. after   20 cycles

 Excitation energies and oscillator strengths:

 Excited State   1:      Singlet-A      1.6653 eV  744.50 nm  f=0.3796  <S**2>=0.000
     155 ->158         0.17881
     156 ->157         0.68428
     155 <-158         0.11354
 This state for optimization and/or second-order correction.
 Total Energy, E(TD-HF/TD-DFT) =  -2035.22774106
 Copying the excited state density for this state as the 1-particle RhoCI density.

 Excited State   2:      Singlet-A      2.1184 eV  585.27 nm  f=0.1557  <S**2>=0.000
     155 ->157         0.64907
     156 ->158        -0.25655

 Excited State   3:      Singlet-A      3.0630 eV  404.78 nm  f=0.0077  <S**2>=0.000
     154 ->157         0.68070

 Excited State   4:      Singlet-A      3.4361 eV  360.83 nm  f=0.0001  <S**2>=0.000
     151 ->157         0.18235
     151 ->159         0.10594
     152 ->157         0.36114
     152 ->159        -0.18625
     152 ->160         0.17494
     153 ->157         0.44434
     153 ->159        -0.13678
     153 ->160         0.10544

 Excited State   5:      Singlet-A      3.4582 eV  358.52 nm  f=0.0002  <S**2>=0.000
     151 ->157         0.52766
     151 ->158        -0.14029
     151 ->159         0.30955
     151 ->160         0.16900
     152 ->157        -0.15661
     153 ->157        -0.12031

 The electronic state is 1-A.
 Alpha  occ. eigenvalues --  -46.96843 -19.30353 -19.24783 -19.24212 -19.23307
 Alpha  occ. eigenvalues --  -14.48169 -14.46572 -14.44720 -14.44435 -10.42987
 Alpha  occ. eigenvalues --  -10.39320 -10.38163 -10.37291 -10.36243 -10.35771
 Alpha  occ. eigenvalues --  -10.35700 -10.35248 -10.34802 -10.34569 -10.34115
 Alpha  occ. eigenvalues --  -10.34102 -10.33544 -10.33042 -10.32790 -10.32762
 Alpha  occ. eigenvalues --  -10.32748 -10.32591 -10.32356 -10.32340 -10.32321
 Alpha  occ. eigenvalues --  -10.32235 -10.31932 -10.31555 -10.31341 -10.30974
 Alpha  occ. eigenvalues --  -10.30883 -10.30859 -10.30181 -10.30081 -10.29897
 Alpha  occ. eigenvalues --  -10.29721 -10.29351 -10.28911  -3.22537  -1.96146
 Alpha  occ. eigenvalues --   -1.95630  -1.95498  -1.17704  -1.12350  -1.11968
 Alpha  occ. eigenvalues --   -1.09692  -1.06815  -1.06076  -1.04655  -1.03827
 Alpha  occ. eigenvalues --   -0.94557  -0.91488  -0.91271  -0.90061  -0.89668
 Alpha  occ. eigenvalues --   -0.89098  -0.87855  -0.86460  -0.85741  -0.84840
 Alpha  occ. eigenvalues --   -0.84196  -0.82847  -0.82744  -0.79802  -0.79156
 Alpha  occ. eigenvalues --   -0.78957  -0.78164  -0.77477  -0.75514  -0.74304
 Alpha  occ. eigenvalues --   -0.71356  -0.70988  -0.70007  -0.69115  -0.67558
 Alpha  occ. eigenvalues --   -0.67472  -0.67302  -0.66799  -0.64997  -0.62320
 Alpha  occ. eigenvalues --   -0.61746  -0.61471  -0.61087  -0.59813  -0.58920
 Alpha  occ. eigenvalues --   -0.58570  -0.57946  -0.57423  -0.56709  -0.55786
 Alpha  occ. eigenvalues --   -0.55511  -0.55192  -0.54819  -0.54710  -0.54414
 Alpha  occ. eigenvalues --   -0.54060  -0.53859  -0.53279  -0.52853  -0.52367
 Alpha  occ. eigenvalues --   -0.52170  -0.51726  -0.51462  -0.51193  -0.50857
 Alpha  occ. eigenvalues --   -0.50570  -0.50237  -0.49849  -0.49803  -0.49159
 Alpha  occ. eigenvalues --   -0.48978  -0.48626  -0.48531  -0.48103  -0.47939
 Alpha  occ. eigenvalues --   -0.47810  -0.47665  -0.47223  -0.47110  -0.46666
 Alpha  occ. eigenvalues --   -0.46512  -0.46084  -0.45674  -0.45582  -0.44989
 Alpha  occ. eigenvalues --   -0.44759  -0.44354  -0.44171  -0.43604  -0.43446
 Alpha  occ. eigenvalues --   -0.43255  -0.42352  -0.41903  -0.41641  -0.41388
 Alpha  occ. eigenvalues --   -0.40274  -0.39954  -0.39425  -0.39215  -0.38804
 Alpha  occ. eigenvalues --   -0.37852  -0.36535  -0.36344  -0.35489  -0.34015
 Alpha  occ. eigenvalues --   -0.33224  -0.32489  -0.32312  -0.31857  -0.26559
 Alpha  occ. eigenvalues --   -0.23991
 Alpha virt. eigenvalues --   -0.08106  -0.00434   0.02047   0.04312   0.05457
 Alpha virt. eigenvalues --    0.07042   0.07413   0.08452   0.08655   0.09869
 Alpha virt. eigenvalues --    0.11144   0.12243   0.12606   0.13183   0.13481

 Mulliken charges:
               1
     1  Mg   0.930391
     2  C    0.060769
     3  C   -0.053555
     4  C   -0.067734
     5  C   -0.064567
     6  N   -0.367774
     7  C   -0.017673
     8  C   -0.066883
     9  C   -0.122670
    10  C    0.087844
    11  C    0.030130
    12  C    0.037127
    13  C   -0.149343
    14  H    0.025268
    15  N   -0.454705
    16  C    0.135255
    17  C   -0.149574
    18  C   -0.136736
    19  C    0.177420
    20  C    0.084213
    21  C    0.092306
    22  O   -0.239797
    23  C   -0.062714
    24  N   -0.335465
    25  C    0.120462
    26  C   -0.138877
    27  C   -0.048755
    28  C    0.022547
    29  C    0.006351
    30  C   -0.011643
    31  C   -0.052422
    32  N   -0.425589
    33  C    0.118231
    34  C   -0.169491
    35  C   -0.018219
    36  C    0.077081
    37  C    0.078439
    38  C    0.069275
    39  O   -0.202361
    40  C   -0.060287
    41  C    0.246560
    42  O   -0.245781
    43  O   -0.384163
    44  C    0.134999
    45  H   -0.012754
    46  H   -0.019724
    47  H   -0.002602
    48  H    0.034890
    49  H    0.040602
    50  H    0.043284
    51  H    0.048394
    52  H    0.043011
    53  H    0.039671
    54  H    0.043315
    55  H    0.068920
    56  H    0.058984
    57  H    0.056924
    58  H    0.057831
    59  H    0.063768
    60  H    0.068483
    61  H    0.055868
    62  H    0.048650
    63  H    0.055225
    64  H    0.030155
    65  H    0.036221
    66  H    0.039794
    67  H    0.031087
    68  H    0.041412
    69  H    0.028827
    70  H    0.036995
    71  H    0.037561
    72  H    0.038390
    73  H    0.062992
    74  H    0.045534
    75  H    0.046939
    76  H    0.066549
    77  H    0.069713
    78  H    0.052468
    79  H    0.054729
 Sum of Mulliken charges =  -0.00000

 Dipole moment (field-independent basis, Debye):
    X=             -3.8475    Y=              0.1604    Z=             -1.9026  Tot=              4.2952
 Quadrupole moment (field-independent basis, Debye-Ang):
   XX=           -290.7584   YY=           -244.4637   ZZ=           -251.2377
   XY=            -43.6325   XZ=            -14.9217   YZ=              1.2298

 Normal termination of Gaussian 16 at Mon Sep 20 07:57:05 2021.
