 Gaussian 16, Revision A.03,
 Gaussian 16:  ES64L-G16RevA.03 25-Dec-2016

 --------------------------------
 #p wB97XD/Def2SVP td=(nstates=5)
 --------------------------------

 --------------------------------
 TDDFT excited states in gaussian
 --------------------------------
 Symbolic Z-matrix:
 Charge =  0 Multiplicity = 1

                         Standard orientation:
 ---------------------------------------------------------------------
 Center     Atomic      Atomic             Coordinates (Angstroms)
 Number     Number       Type             X           Y           Z
 ---------------------------------------------------------------------
      1         12           0      -16.930742    0.639938    0.319291
      2          6           0      -16.071482   -1.977066   -1.935711
      3          6           0      -14.257674    2.437792   -0.882797
      4          6           0      -17.839973    2.932004    2.518976
      5          6           0      -19.362424   -1.538046    1.823496
      6          7           0      -15.244705    0.244077   -1.234873
      7          6           0      -15.224117   -0.863583   -2.062507
      8          6           0      -14.036411   -0.638674   -3.059922
      9          6           0      -13.400749    0.805506   -2.689422
     10          6           0      -14.338270    1.173419   -1.534873
     11          6           0      -11.888650    0.824057   -2.383323
     12          6           0      -14.334681   -0.867035   -4.599297
     13          6           0      -13.489353   -1.904877   -5.278677
     14          1           0      -12.092921   -2.261290   -4.841929
     15          7           0      -16.196806    2.573560    0.686619
     16          6           0      -15.093962    3.102268    0.093324
     17          6           0      -15.043267    4.479179    0.512963
     18          6           0      -15.985004    4.616906    1.555452
     19          6           0      -16.749913    3.333804    1.681564
     20          6           0      -13.962097    5.416332   -0.051198
     21          6           0      -16.132985    5.776679    2.493112
     22          8           0      -16.929019    5.740357    3.461233
     23          6           0      -15.277898    6.975095    2.308542
     24          7           0      -18.390139    0.608540    1.994800
     25          6           0      -18.604026    1.688609    2.662137
     26          6           0      -19.806033    1.655144    3.748980
     27          6           0      -20.264455    0.206684    3.521020
     28          6           0      -19.340528   -0.274228    2.429021
     29          6           0      -19.231178    1.962767    5.180081
     30          6           0      -21.772783   -0.008642    3.145709
     31          6           0      -22.198388    0.415027    1.719844
     32          7           0      -17.477263   -1.318534    0.103185
     33          6           0      -18.461926   -2.044599    0.813738
     34          6           0      -18.580849   -3.369119    0.189055
     35          6           0      -17.670036   -3.379884   -0.894535
     36          6           0      -17.047073   -2.086814   -0.934558
     37          6           0      -19.562543   -4.493990    0.634642
     38          6           0      -17.226014   -4.174614   -1.913250
     39          8           0      -17.471975   -5.323374   -2.219915
     40          6           0      -16.200581   -3.321696   -2.711183
     41          6           0      -14.966204   -4.065686   -2.810764
     42          8           0      -14.055035   -4.036136   -1.975855
     43          8           0      -15.057364   -4.992613   -3.855916
     44          6           0      -13.919700   -5.942450   -3.930849
     45          1           0      -13.321766    2.990872   -0.989551
     46          1           0      -18.015444    3.631502    3.339056
     47          1           0      -20.089028   -2.238450    2.240437
     48          1           0      -13.442002   -1.509134   -2.785317
     49          1           0      -13.484875    1.457837   -3.557473
     50          1           0      -11.373196    1.534497   -3.030873
     51          1           0      -11.365719   -0.130899   -2.432473
     52          1           0      -11.838011    1.162681   -1.348492
     53          1           0      -14.241552    0.074517   -5.140862
     54          1           0      -15.359179   -1.237088   -4.639618
     55          1           0      -13.189211   -1.475375   -6.235133
     56          1           0      -14.085519   -2.812297   -5.368258
     57          1           0      -13.510290    5.021255   -0.961370
     58          1           0      -13.187131    5.574718    0.697664
     59          1           0      -14.493046    6.343674   -0.263800
     60          1           0      -15.466544    7.344842    1.300654
     61          1           0      -14.218725    6.720244    2.361233
     62          1           0      -15.460995    7.703088    3.097835
     63          1           0      -20.596870    2.358852    3.488058
     64          1           0      -19.950238   -0.410626    4.362936
     65          1           0      -18.198522    1.614825    5.204207
     66          1           0      -19.792578    1.371524    5.904378
     67          1           0      -19.239731    2.997432    5.523827
     68          1           0      -22.409720    0.391194    3.934089
     69          1           0      -21.984855   -1.071896    3.253597
     70          1           0      -21.672722    1.262902    1.281936
     71          1           0      -23.280473    0.550922    1.716947
     72          1           0      -22.029456   -0.468444    1.104376
     73          1           0      -20.137060   -4.913550   -0.191255
     74          1           0      -20.242267   -4.183915    1.427522
     75          1           0      -18.989640   -5.394753    0.856320
     76          1           0      -16.690066   -3.246773   -3.681653
     77          1           0      -13.940695   -6.632671   -3.087876
     78          1           0      -12.937067   -5.474267   -3.885869
     79          1           0      -13.935175   -6.358432   -4.938379
     80         12           0       16.682655    0.433538   -0.701971
     81          6           0       16.874316   -2.812765    0.659408
     82          6           0       13.290164    0.133847   -0.610577
     83          6           0       16.490427    3.795935   -1.284030
     84          6           0       20.202729    0.625388   -0.180159
     85          7           0       15.224633   -1.139828    0.098347
     86          6           0       15.478737   -2.430919    0.462990
     87          6           0       14.205233   -3.174304    0.901682
     88          6           0       13.155719   -2.268206    0.089261
     89          6           0       13.937629   -1.003344   -0.164381
     90          6           0       12.622497   -2.878098   -1.234837
     91          6           0       13.916636   -3.128537    2.469482
     92          6           0       13.058987   -4.219594    3.091686
     93          1           0       11.642332   -3.940809    3.637481
     94          7           0       15.108127    1.872924   -0.971459
     95          6           0       13.803577    1.476155   -1.025705
     96          6           0       12.981885    2.510932   -1.475790
     97          6           0       13.878403    3.618771   -1.718953
     98          6           0       15.235688    3.165958   -1.302194
     99          6           0       11.474332    2.409708   -1.674393
    100          6           0       13.401759    4.946118   -2.263958
    101          8           0       12.182551    5.106286   -2.529646
    102          6           0       14.361990    6.131223   -2.633020
    103          7           0       18.147989    1.910726   -0.718643
    104          6           0       17.813488    3.256761   -1.028664
    105          6           0       19.061353    4.037774   -1.333869
    106          6           0       20.196729    3.213851   -0.688631
    107          6           0       19.536394    1.808374   -0.581668
    108          6           0       19.465375    4.299353   -2.802450
    109          6           0       20.589022    3.755436    0.785437
    110          6           0       21.572009    4.911107    0.896820
    111          7           0       18.239882   -0.919392   -0.086192
    112          6           0       19.601447   -0.702557    0.063287
    113          6           0       20.242134   -1.813281    0.579215
    114          6           0       19.201885   -2.733687    0.793566
    115          6           0       18.000787   -2.124701    0.392598
    116          6           0       21.713758   -1.924533    0.825058
    117          6           0       18.927696   -4.024173    1.151186
    118          8           0       19.680418   -4.945649    1.398347
    119          6           0       17.394155   -4.038568    1.322840
    120          6           0       17.173144   -4.105826    2.804533
    121          8           0       17.590174   -3.302026    3.579172
    122          8           0       16.485045   -5.274064    3.137070
    123          6           0       16.398142   -5.467433    4.542783
    124          1           0       12.220649    0.010728   -0.794732
    125          1           0       16.509569    4.820396   -1.662812
    126          1           0       21.290990    0.713097   -0.181468
    127          1           0       14.129435   -4.167544    0.460418
    128          1           0       12.288444   -2.149231    0.738114
    129          1           0       11.659396   -3.289653   -0.931604
    130          1           0       13.247130   -3.695494   -1.594915
    131          1           0       12.459926   -2.111879   -1.993024
    132          1           0       13.384824   -2.213615    2.730794
    133          1           0       14.887677   -3.041887    2.957483
    134          1           0       13.676268   -4.603974    3.904965
    135          1           0       12.978329   -5.021289    2.357777
    136          1           0       11.001862    2.937178   -2.503714
    137          1           0       11.169673    2.742990   -0.682595
    138          1           0       11.199543    1.381748   -1.910898
    139          1           0       15.034061    5.817549   -3.431329
    140          1           0       14.854759    6.332013   -1.681926
    141          1           0       13.884325    7.083970   -2.861127
    142          1           0       18.974849    4.975739   -0.786342
    143          1           0       21.096472    3.196150   -1.303761
    144          1           0       20.373740    3.794178   -3.130270
    145          1           0       19.245639    5.325564   -3.097646
    146          1           0       18.703469    3.771933   -3.376186
    147          1           0       21.002377    2.842058    1.212724
    148          1           0       19.697308    4.044794    1.341832
    149          1           0       21.135949    5.691501    1.519883
    150          1           0       21.768982    5.311821   -0.097917
    151          1           0       22.492392    4.603535    1.393880
    152          1           0       21.818280   -2.299635    1.842720
    153          1           0       22.217008   -0.956971    0.811263
    154          1           0       22.204842   -2.626055    0.150446
    155          1           0       17.010475   -4.936602    0.839893
    156          1           0       17.234604   -6.079047    4.879850
    157          1           0       15.554805   -6.089760    4.844515
    158          1           0       16.406548   -4.528094    5.093020
 ---------------------------------------------------------------------

 SCF Done:  E(RwB97XD) =  -4070.58477463     A.U. after   20 cycles

 Excitation energies and oscillator strengths:

 Excited State   1:      Singlet-A      1.6461 eV  753.21 nm  f=0.3968  <S**2>=0.000
     309 -> 315       -0.19120
     311 -> 313        0.68047
     309 <- 315       -0.11797
 This state for optimization and/or second-order correction.
 Total Energy, E(TD-HF/TD-DFT) =  -4070.52428268
 Copying the excited state density for this state as the 1-particle RhoCI density.

 Excited State   2:      Singlet-A      1.7180 eV  721.67 nm  f=0.3766  <S**2>=0.000
     310 -> 316        0.19147
     312 -> 314        0.67991
     310 <- 316        0.11528

 Excited State   3:      Singlet-A      2.0912 eV  592.90 nm  f=0.1266  <S**2>=0.000
     309 -> 313        0.64854
     311 -> 315        0.26301

 Excited State   4:      Singlet-A      2.1592 eV  574.21 nm  f=0.1063  <S**2>=0.000
     310 -> 314        0.63944
     312 -> 316       -0.28264

 Excited State   5:      Singlet-A      3.1718 eV  390.90 nm  f=0.0097  <S**2>=0.000
     305 -> 313       -0.25910
     307 -> 313        0.61084
     307 -> 317       -0.13595

 The electronic state is 1-A.
 Alpha  occ. eigenvalues --  -46.96676 -46.96147 -19.30644 -19.29437 -19.25860
 Alpha  occ. eigenvalues --  -19.24170 -19.23872 -19.23185 -19.22950 -19.22492
 Alpha  occ. eigenvalues --  -14.47801 -14.47290 -14.47263 -14.46452 -14.44426
 Alpha  occ. eigenvalues --  -14.44375 -14.44232 -14.43837 -10.43574 -10.42400
 Alpha  occ. eigenvalues --  -10.39084 -10.39047 -10.37372 -10.37201 -10.36490
 Alpha  occ. eigenvalues --  -10.36387 -10.35985 -10.35807 -10.35710 -10.35584
 Alpha  occ. eigenvalues --  -10.35101 -10.35051 -10.35012 -10.34752 -10.34746
 Alpha  occ. eigenvalues --  -10.34493 -10.34305 -10.34146 -10.33999 -10.33794
 Alpha  occ. eigenvalues --  -10.33599 -10.33338 -10.33093 -10.32882 -10.32711
 Alpha  occ. eigenvalues --  -10.32493 -10.32435 -10.32395 -10.32390 -10.32178
 Alpha  occ. eigenvalues --  -10.32125 -10.32123 -10.32112 -10.32104 -10.32061
 Alpha  occ. eigenvalues --  -10.32055 -10.31961 -10.31920 -10.31903 -10.31886
 Alpha  occ. eigenvalues --  -10.31730 -10.31675 -10.31669 -10.31551 -10.31513
 Alpha  occ. eigenvalues --  -10.31466 -10.31428 -10.31318 -10.31185 -10.31150
 Alpha  occ. eigenvalues --  -10.31147 -10.30508 -10.30488 -10.30450 -10.30369
 Alpha  occ. eigenvalues --  -10.30259 -10.30259 -10.30212 -10.29980 -10.29869
 Alpha  occ. eigenvalues --  -10.29819 -10.29796 -10.29672 -10.29484 -10.28215
 Alpha  occ. eigenvalues --  -10.27826  -3.22445  -3.21951  -1.96025  -1.95555
 Alpha  occ. eigenvalues --   -1.95551  -1.95403  -1.95104  -1.94872  -1.19813
 Alpha  occ. eigenvalues --   -1.16446  -1.12278  -1.11759  -1.11398  -1.10727
 Alpha  occ. eigenvalues --   -1.09555  -1.08446  -1.08123  -1.07799  -1.06734
 Alpha  occ. eigenvalues --   -1.05999  -1.05769  -1.05066  -1.03925  -1.03669
 Alpha  occ. eigenvalues --   -0.96393  -0.94212  -0.91592  -0.90885  -0.90652
 Alpha  occ. eigenvalues --   -0.90580  -0.90267  -0.89662  -0.89545  -0.89226
 Alpha  occ. eigenvalues --   -0.89049  -0.88698  -0.87888  -0.87399  -0.86321
 Alpha  occ. eigenvalues --   -0.86215  -0.85551  -0.85219  -0.84852  -0.84433
 Alpha  occ. eigenvalues --   -0.84186  -0.83838  -0.82672  -0.82590  -0.82325
 Alpha  occ. eigenvalues --   -0.82023  -0.80324  -0.80040  -0.79461  -0.79327
 Alpha  occ. eigenvalues --   -0.78917  -0.78337  -0.77924  -0.77669  -0.77612
 Alpha  occ. eigenvalues --   -0.76935  -0.75629  -0.74488  -0.74262  -0.73531
 Alpha  occ. eigenvalues --   -0.72348  -0.71498  -0.71017  -0.70437  -0.70409
 Alpha  occ. eigenvalues --   -0.69802  -0.69185  -0.68927  -0.68271  -0.67345
 Alpha  occ. eigenvalues --   -0.67241  -0.66881  -0.66733  -0.66580  -0.66257
 Alpha  occ. eigenvalues --   -0.66204  -0.64822  -0.63378  -0.62524  -0.62263
 Alpha  occ. eigenvalues --   -0.62181  -0.61604  -0.61478  -0.61211  -0.61051
 Alpha  occ. eigenvalues --   -0.60599  -0.60108  -0.60088  -0.59866  -0.59508
 Alpha  occ. eigenvalues --   -0.58516  -0.58209  -0.57981  -0.57709  -0.57298
 Alpha  occ. eigenvalues --   -0.57194  -0.57099  -0.56901  -0.55828  -0.55529
 Alpha  occ. eigenvalues --   -0.55473  -0.55211  -0.55143  -0.54928  -0.54786
 Alpha  occ. eigenvalues --   -0.54754  -0.54548  -0.54485  -0.54241  -0.53965
 Alpha  occ. eigenvalues --   -0.53803  -0.53457  -0.53373  -0.53219  -0.53172
 Alpha  occ. eigenvalues --   -0.52810  -0.52709  -0.52574  -0.52441  -0.52088
 Alpha  occ. eigenvalues --   -0.51802  -0.51736  -0.51684  -0.51464  -0.51356
 Alpha  occ. eigenvalues --   -0.51181  -0.51122  -0.50955  -0.50942  -0.50777
 Alpha  occ. eigenvalues --   -0.50762  -0.50509  -0.50439  -0.49957  -0.49889
 Alpha  occ. eigenvalues --   -0.49870  -0.49417  -0.49297  -0.49221  -0.49178
 Alpha  occ. eigenvalues --   -0.48982  -0.48640  -0.48563  -0.48533  -0.48433
 Alpha  occ. eigenvalues --   -0.48366  -0.48277  -0.48086  -0.47993  -0.47745
 Alpha  occ. eigenvalues --   -0.47724  -0.47416  -0.47254  -0.47025  -0.46825
 Alpha  occ. eigenvalues --   -0.46684  -0.46533  -0.46482  -0.46110  -0.45837
 Alpha  occ. eigenvalues --   -0.45736  -0.45721  -0.45651  -0.45388  -0.45306
 Alpha  occ. eigenvalues --   -0.45196  -0.45126  -0.44915  -0.44665  -0.44571
 Alpha  occ. eigenvalues --   -0.44456  -0.44370  -0.44257  -0.44177  -0.43775
 Alpha  occ. eigenvalues --   -0.43731  -0.43540  -0.43468  -0.43371  -0.43317
 Alpha  occ. eigenvalues --   -0.43196  -0.43176  -0.43015  -0.42935  -0.42482
 Alpha  occ. eigenvalues --   -0.42415  -0.42224  -0.41981  -0.41676  -0.41375
 Alpha  occ. eigenvalues --   -0.41003  -0.40460  -0.39843  -0.39600  -0.39148
 Alpha  occ. eigenvalues --   -0.38913  -0.38877  -0.38650  -0.38641  -0.38426
 Alpha  occ. eigenvalues --   -0.38025  -0.37509  -0.37449  -0.37081  -0.35901
 Alpha  occ. eigenvalues --   -0.35692  -0.35544  -0.35302  -0.33676  -0.33530
 Alpha  occ. eigenvalues --   -0.33181  -0.32508  -0.32480  -0.32178  -0.32005
 Alpha  occ. eigenvalues --   -0.31927  -0.31662  -0.31649  -0.26256  -0.25730
 Alpha  occ. eigenvalues --   -0.23858  -0.23058
 Alpha virt. eigenvalues --   -0.07975  -0.06877  -0.00603   0.00139   0.01984
 Alpha virt. eigenvalues --    0.02208   0.04441   0.04543   0.04675   0.05700
 Alpha virt. eigenvalues --    0.06735   0.07236   0.07423   0.07979   0.08123

 Mulliken charges:
               1
     1  Mg   0.949234
     2  C    0.012568
     3  C   -0.090593
     4  C   -0.048183
     5  C   -0.087932
     6  N   -0.314616
     7  C   -0.013154
     8  C   -0.056012
     9  C   -0.105083
    10  C    0.077846
    11  C    0.018401
    12  C    0.000041
    13  C   -0.139591
    14  H    0.031599
    15  N   -0.486451
    16  C    0.140183
    17  C   -0.180329
    18  C   -0.072313
    19  C    0.161230
    20  C    0.073073
    21  C    0.036608
    22  O   -0.261897
    23  C    0.006256
    24  N   -0.272094
    25  C    0.015703
    26  C   -0.110008
    27  C    0.029195
    28  C   -0.039927
    29  C   -0.003657
    30  C   -0.032779
    31  C   -0.036118
    32  N   -0.476698
    33  C    0.148558
    34  C   -0.176037
    35  C    0.006726
    36  C    0.138934
    37  C    0.087109
    38  C    0.031637
    39  O   -0.201508
    40  C   -0.063303
    41  C    0.267097
    42  O   -0.263283
    43  O   -0.379045
    44  C    0.150065
    45  H    0.007884
    46  H    0.029035
    47  H   -0.009088
    48  H    0.057240
    49  H    0.044944
    50  H    0.035107
    51  H    0.051784
    52  H    0.033498
    53  H    0.031634
    54  H    0.036305
    55  H    0.048476
    56  H    0.062238
    57  H    0.047862
    58  H    0.064186
    59  H    0.046269
    60  H    0.050991
    61  H    0.050482
    62  H    0.058560
    63  H    0.052394
    64  H    0.036460
    65  H    0.045571
    66  H    0.037054
    67  H    0.064077
    68  H    0.030893
    69  H    0.025067
    70  H    0.049800
    71  H    0.041208
    72  H    0.038639
    73  H    0.043735
    74  H    0.031543
    75  H    0.051127
    76  H    0.073536
    77  H    0.064622
    78  H    0.041689
    79  H    0.053724
    80  Mg   0.948405
    81  C    0.000600
    82  C   -0.064862
    83  C   -0.087407
    84  C   -0.085774
    85  N   -0.297965
    86  C   -0.037978
    87  C   -0.036624
    88  C   -0.151889
    89  C    0.082442
    90  C    0.029902
    91  C   -0.001023
    92  C   -0.097779
    93  H    0.043840
    94  N   -0.425913
    95  C    0.122558
    96  C   -0.157863
    97  C   -0.085138
    98  C    0.168963
    99  C    0.086386
   100  C    0.032001
   101  O   -0.271799
   102  C   -0.011424
   103  N   -0.428163
   104  C    0.087286
   105  C   -0.092001
   106  C   -0.113443
   107  C    0.082440
   108  C    0.055275
   109  C   -0.033199
   110  C   -0.022708
   111  N   -0.388445
   112  C    0.120843
   113  C   -0.174787
   114  C    0.038996
   115  C    0.121146
   116  C    0.098355
   117  C    0.025953
   118  O   -0.206282
   119  C   -0.074413
   120  C    0.254034
   121  O   -0.209752
   122  O   -0.358077
   123  C    0.118678
   124  H   -0.004358
   125  H   -0.016000
   126  H    0.009995
   127  H    0.028258
   128  H    0.041476
   129  H    0.039179
   130  H    0.042989
   131  H    0.043340
   132  H    0.044029
   133  H    0.047750
   134  H    0.049680
   135  H    0.043125
   136  H    0.069523
   137  H    0.065430
   138  H    0.029148
   139  H    0.067722
   140  H    0.050354
   141  H    0.051357
   142  H    0.031746
   143  H    0.027928
   144  H    0.049158
   145  H    0.044362
   146  H    0.015800
   147  H    0.024930
   148  H    0.036986
   149  H    0.036015
   150  H    0.032842
   151  H    0.043114
   152  H    0.055766
   153  H    0.023784
   154  H    0.063748
   155  H    0.047955
   156  H    0.048962
   157  H    0.048482
   158  H    0.062029
 Sum of Mulliken charges =  -0.00000

 Dipole moment (field-independent basis, Debye):
    X=              0.9061    Y=              5.7136    Z=             -2.0429  Tot=              6.1351
 Quadrupole moment (field-independent basis, Debye-Ang):
   XX=           -483.8468   YY=           -532.5171   ZZ=           -498.7518
   XY=             -1.4680   XZ=            -42.0052   YZ=            -14.9958

 Normal termination of Gaussian 16 at Sun Sep 19 04:45:27 2021.
