 Gaussian 16, Revision A.03,
 Gaussian 16:  ES64L-G16RevA.03 25-Dec-2016

 --------------------------------
 #p wB97XD/Def2SVP td=(nstates=5)
 --------------------------------

 --------------------------------
 TDDFT excited states in gaussian
 --------------------------------
 Symbolic Z-matrix:
 Charge =  0 Multiplicity = 1

                         Standard orientation:
 ---------------------------------------------------------------------
 Center     Atomic      Atomic             Coordinates (Angstroms)
 Number     Number       Type             X           Y           Z
 ---------------------------------------------------------------------
      1         12           0       -4.176812   -0.485327    1.054609
      2          6           0       -5.486410    2.296036   -0.616803
      3          6           0       -2.138589    1.573051    2.868261
      4          6           0       -2.749968   -3.178402    2.340166
      5          6           0       -6.223078   -2.531227   -1.043846
      6          7           0       -3.836481    1.704629    1.061351
      7          6           0       -4.508393    2.684215    0.364472
      8          6           0       -4.180073    4.055695    0.925012
      9          6           0       -2.912020    3.776877    1.825112
     10          6           0       -3.046826    2.224109    1.984755
     11          6           0       -1.597151    4.179832    1.169773
     12          6           0       -5.465293    4.695823    1.565577
     13          6           0       -5.177131    6.005024    2.351501
     14          1           0       -4.014047    6.846205    1.868184
     15          7           0       -2.717454   -0.751756    2.382685
     16          6           0       -1.900316    0.210452    2.962570
     17          6           0       -0.871271   -0.395833    3.825514
     18          6           0       -1.097745   -1.799564    3.684336
     19          6           0       -2.221628   -1.951251    2.763992
     20          6           0        0.077779    0.399960    4.640833
     21          6           0       -0.308831   -2.897381    4.350202
     22          8           0       -0.606182   -4.115610    4.205965
     23          6           0        0.826704   -2.585696    5.286947
     24          7           0       -4.498864   -2.581327    0.728001
     25          6           0       -3.753617   -3.449565    1.412326
     26          6           0       -4.042520   -4.935617    0.920077
     27          6           0       -5.169528   -4.721463   -0.237048
     28          6           0       -5.301596   -3.198302   -0.201535
     29          6           0       -2.683814   -5.569100    0.409671
     30          6           0       -6.575583   -5.387476    0.083241
     31          6           0       -6.726071   -6.881324   -0.324212
     32          7           0       -5.502619   -0.251892   -0.529146
     33          6           0       -6.361117   -1.143957   -1.224440
     34          6           0       -7.255265   -0.352731   -2.178234
     35          6           0       -6.902805    0.985253   -2.033056
     36          6           0       -5.883390    0.995422   -0.952983
     37          6           0       -8.339029   -0.877503   -3.067041
     38          6           0       -7.176538    2.347021   -2.428454
     39          8           0       -7.962526    2.829457   -3.249960
     40          6           0       -6.390788    3.288532   -1.387158
     41          6           0       -5.621894    4.398305   -2.066888
     42          8           0       -4.503125    4.281220   -2.488697
     43          8           0       -6.286862    5.637659   -1.928973
     44          6           0       -5.487146    6.856465   -2.123111
     45          1           0       -1.525533    2.351676    3.327703
     46          1           0       -2.264358   -4.063564    2.756622
     47          1           0       -6.794241   -3.094768   -1.784687
     48          1           0       -3.910690    4.695130    0.085345
     49          1           0       -2.944616    4.201338    2.829062
     50          1           0       -1.126944    4.878067    1.862049
     51          1           0       -1.812181    4.560117    0.171415
     52          1           0       -0.860696    3.376614    1.172244
     53          1           0       -5.928321    3.824333    2.027357
     54          1           0       -6.117808    4.927729    0.724497
     55          1           0       -5.013104    5.648415    3.368411
     56          1           0       -6.070939    6.627139    2.307049
     57          1           0        1.038968    0.140671    4.197335
     58          1           0        0.010485    0.189387    5.707847
     59          1           0        0.043038    1.489157    4.594103
     60          1           0        0.433828   -2.056066    6.153757
     61          1           0        1.441380   -2.001925    4.600625
     62          1           0        1.437391   -3.429433    5.607107
     63          1           0       -4.459006   -5.357546    1.835572
     64          1           0       -4.856030   -4.844469   -1.274592
     65          1           0       -1.826033   -4.898421    0.456668
     66          1           0       -2.786558   -5.874091   -0.632080
     67          1           0       -2.460777   -6.375476    1.107697
     68          1           0       -7.411008   -4.756509   -0.218804
     69          1           0       -6.658369   -5.385301    1.169607
     70          1           0       -7.021095   -7.421145    0.574900
     71          1           0       -5.791254   -7.211420   -0.777448
     72          1           0       -7.514980   -7.026657   -1.062567
     73          1           0       -9.279799   -0.573097   -2.607842
     74          1           0       -8.261693   -1.961704   -3.156999
     75          1           0       -8.395422   -0.489959   -4.084045
     76          1           0       -7.148571    3.684670   -0.711806
     77          1           0       -5.396435    6.958622   -3.204189
     78          1           0       -4.564090    6.809758   -1.544928
     79          1           0       -6.062662    7.668645   -1.679795
     80         12           0        3.762352   -0.779268   -0.785558
     81          6           0        5.757763    2.013003   -0.053011
     82          6           0        0.991527    0.913870   -0.025739
     83          6           0        2.098494   -3.479668   -1.428240
     84          6           0        6.819972   -2.700142   -0.562235
     85          7           0        3.478326    1.213026   -0.015898
     86          6           0        4.348960    2.227904    0.053606
     87          6           0        3.707134    3.486565    0.577693
     88          6           0        2.258363    2.989764    0.971411
     89          6           0        2.217350    1.646692    0.268508
     90          6           0        1.890116    2.893460    2.487548
     91          6           0        3.606789    4.597888   -0.587778
     92          6           0        4.102279    6.012815   -0.142561
     93          1           0        4.278211    7.010366   -1.411549
     94          7           0        1.860876   -1.137781   -0.972765
     95          6           0        0.811660   -0.293639   -0.651313
     96          6           0       -0.404960   -0.866039   -1.158515
     97          6           0       -0.148976   -2.213622   -1.643404
     98          6           0        1.351018   -2.321251   -1.476718
     99          6           0       -1.739994   -0.092809   -0.958168
    100          6           0       -0.988285   -3.340623   -2.234458
    101          8           0       -0.563225   -4.419900   -2.684733
    102          6           0       -2.428808   -2.984224   -2.340259
    103          7           0        4.422345   -2.778380   -0.797405
    104          6           0        3.445113   -3.693993   -1.100575
    105          6           0        3.991158   -5.120528   -1.029824
    106          6           0        5.520356   -4.863452   -1.073038
    107          6           0        5.625132   -3.375781   -0.731625
    108          6           0        3.382659   -5.870778    0.220775
    109          6           0        6.249348   -5.218072   -2.438096
    110          6           0        7.753475   -5.524836   -2.360006
    111          7           0        5.883554   -0.456937   -0.429401
    112          6           0        6.934550   -1.321862   -0.381305
    113          6           0        8.188277   -0.614399   -0.247277
    114          6           0        7.742515    0.718721   -0.188048
    115          6           0        6.341947    0.765719   -0.237145
    116          6           0        9.653307   -1.103741   -0.180801
    117          6           0        8.216702    2.071320   -0.095347
    118          8           0        9.306146    2.574012   -0.184797
    119          6           0        6.893139    2.960734    0.166901
    120          6           0        7.145404    4.093965   -0.727093
    121          8           0        6.935358    4.189690   -1.962717
    122          8           0        7.680730    5.043242    0.059771
    123          6           0        8.085492    6.307333   -0.556910
    124          1           0        0.075397    1.486868    0.132773
    125          1           0        1.550621   -4.378647   -1.718969
    126          1           0        7.719478   -3.318146   -0.599866
    127          1           0        4.232886    3.966824    1.403409
    128          1           0        1.427084    3.540847    0.531252
    129          1           0        1.803213    1.836726    2.740199
    130          1           0        0.918126    3.379033    2.572688
    131          1           0        2.577168    3.315304    3.220270
    132          1           0        2.629483    4.706050   -1.059659
    133          1           0        4.168881    4.199945   -1.432716
    134          1           0        5.062406    5.938711    0.367673
    135          1           0        3.414334    6.565660    0.496670
    136          1           0       -1.887344    0.549500   -1.825307
    137          1           0       -1.685071    0.685859   -0.196413
    138          1           0       -2.596054   -0.664970   -0.601308
    139          1           0       -2.639293   -2.128536   -2.980841
    140          1           0       -2.699752   -2.831686   -1.294835
    141          1           0       -3.059066   -3.804509   -2.684943
    142          1           0        3.627523   -5.609920   -1.933450
    143          1           0        6.009719   -5.489194   -0.326722
    144          1           0        4.139553   -5.984817    0.996692
    145          1           0        2.987654   -6.877379    0.086026
    146          1           0        2.603831   -5.347119    0.775523
    147          1           0        6.201850   -4.275399   -2.983944
    148          1           0        5.820565   -6.013576   -3.047918
    149          1           0        8.353410   -4.772455   -2.873609
    150          1           0        8.121998   -6.478557   -2.738327
    151          1           0        8.017820   -5.393439   -1.311678
    152          1           0        9.604667   -2.128488    0.187481
    153          1           0       10.247110   -0.476607    0.485498
    154          1           0       10.023766   -1.096563   -1.205837
    155          1           0        6.898950    3.330501    1.192402
    156          1           0        7.408111    7.089856   -0.215432
    157          1           0        8.199118    6.221951   -1.637080
    158          1           0        9.050825    6.593956   -0.139866
 ---------------------------------------------------------------------

 SCF Done:  E(RwB97XD) =  -4070.63997114     A.U. after   19 cycles

 Excitation energies and oscillator strengths:

 Excited State   1:      Singlet-A      1.6417 eV  755.20 nm  f=0.5044  <S**2>=0.000
     309 -> 315        0.19432
     311 -> 314       -0.14329
     312 -> 313        0.50905
     312 -> 314        0.41614
     309 <- 315        0.11596
 This state for optimization and/or second-order correction.
 Total Energy, E(TD-HF/TD-DFT) =  -4070.57963805
 Copying the excited state density for this state as the 1-particle RhoCI density.

 Excited State   2:      Singlet-A      1.6634 eV  745.37 nm  f=0.2694  <S**2>=0.000
     310 -> 316        0.19380
     311 -> 313       -0.43777
     311 -> 314        0.49108
     312 -> 313        0.11116
     312 -> 314        0.12730
     310 <- 316        0.11540

 Excited State   3:      Singlet-A      2.1877 eV  566.73 nm  f=0.0332  <S**2>=0.000
     309 -> 313        0.11838
     310 -> 313       -0.39047
     310 -> 314        0.45625
     311 -> 316       -0.32210

 Excited State   4:      Singlet-A      2.2216 eV  558.10 nm  f=0.0412  <S**2>=0.000
     309 -> 313        0.43453
     309 -> 314        0.37206
     310 -> 313        0.10727
     312 -> 315       -0.37475

 Excited State   5:      Singlet-A      2.5275 eV  490.55 nm  f=0.0003  <S**2>=0.000
     312 -> 313       -0.44752
     312 -> 314        0.53292
     312 -> 318        0.10591

 The electronic state is 1-A.
 Alpha  occ. eigenvalues --  -46.95045 -46.93957 -19.30154 -19.29713 -19.25786
 Alpha  occ. eigenvalues --  -19.24789 -19.24716 -19.24111 -19.23835 -19.23461
 Alpha  occ. eigenvalues --  -14.47422 -14.47265 -14.46723 -14.46323 -14.45172
 Alpha  occ. eigenvalues --  -14.45001 -14.44110 -14.43037 -10.43831 -10.42485
 Alpha  occ. eigenvalues --  -10.40108 -10.39934 -10.39609 -10.38709 -10.35917
 Alpha  occ. eigenvalues --  -10.35849 -10.35588 -10.35313 -10.35256 -10.35244
 Alpha  occ. eigenvalues --  -10.35113 -10.34949 -10.34907 -10.34834 -10.34816
 Alpha  occ. eigenvalues --  -10.34795 -10.34682 -10.34272 -10.34254 -10.34187
 Alpha  occ. eigenvalues --  -10.34117 -10.34095 -10.33922 -10.33794 -10.33581
 Alpha  occ. eigenvalues --  -10.33238 -10.33169 -10.32981 -10.32926 -10.32723
 Alpha  occ. eigenvalues --  -10.32687 -10.32674 -10.32619 -10.32617 -10.32519
 Alpha  occ. eigenvalues --  -10.32178 -10.32006 -10.31972 -10.31941 -10.31825
 Alpha  occ. eigenvalues --  -10.31807 -10.31740 -10.31698 -10.31696 -10.31695
 Alpha  occ. eigenvalues --  -10.31676 -10.31406 -10.31201 -10.31047 -10.30870
 Alpha  occ. eigenvalues --  -10.30860 -10.30676 -10.30620 -10.30609 -10.30547
 Alpha  occ. eigenvalues --  -10.30521 -10.30322 -10.30272 -10.29865 -10.29733
 Alpha  occ. eigenvalues --  -10.29674 -10.29573 -10.29480 -10.29386 -10.29163
 Alpha  occ. eigenvalues --  -10.28509  -3.21168  -3.20202  -1.94788  -1.94278
 Alpha  occ. eigenvalues --   -1.94166  -1.93785  -1.93346  -1.93191  -1.18186
 Alpha  occ. eigenvalues --   -1.18154  -1.13049  -1.11893  -1.11593  -1.10504
 Alpha  occ. eigenvalues --   -1.10394  -1.07779  -1.07272  -1.07024  -1.06355
 Alpha  occ. eigenvalues --   -1.06079  -1.05625  -1.05395  -1.04479  -1.04006
 Alpha  occ. eigenvalues --   -0.94745  -0.94175  -0.91403  -0.91165  -0.91077
 Alpha  occ. eigenvalues --   -0.90367  -0.90231  -0.90055  -0.89860  -0.89410
 Alpha  occ. eigenvalues --   -0.89139  -0.88925  -0.88747  -0.88228  -0.86819
 Alpha  occ. eigenvalues --   -0.86548  -0.85761  -0.85331  -0.84576  -0.84334
 Alpha  occ. eigenvalues --   -0.84262  -0.84134  -0.83285  -0.83187  -0.82487
 Alpha  occ. eigenvalues --   -0.82279  -0.81431  -0.80259  -0.79834  -0.79457
 Alpha  occ. eigenvalues --   -0.79254  -0.78963  -0.78328  -0.78030  -0.77360
 Alpha  occ. eigenvalues --   -0.76940  -0.74823  -0.74625  -0.74200  -0.74047
 Alpha  occ. eigenvalues --   -0.71992  -0.71297  -0.70892  -0.70757  -0.70708
 Alpha  occ. eigenvalues --   -0.69943  -0.69582  -0.69218  -0.68144  -0.67803
 Alpha  occ. eigenvalues --   -0.67731  -0.67447  -0.66934  -0.66555  -0.66465
 Alpha  occ. eigenvalues --   -0.66358  -0.63815  -0.63795  -0.63152  -0.62408
 Alpha  occ. eigenvalues --   -0.62078  -0.61909  -0.61308  -0.61161  -0.60686
 Alpha  occ. eigenvalues --   -0.60273  -0.60136  -0.60019  -0.59236  -0.59176
 Alpha  occ. eigenvalues --   -0.58673  -0.58462  -0.58319  -0.57893  -0.57532
 Alpha  occ. eigenvalues --   -0.57080  -0.56862  -0.56418  -0.56379  -0.56080
 Alpha  occ. eigenvalues --   -0.55888  -0.55768  -0.55587  -0.55400  -0.54948
 Alpha  occ. eigenvalues --   -0.54853  -0.54741  -0.54650  -0.54366  -0.54150
 Alpha  occ. eigenvalues --   -0.54081  -0.53833  -0.53628  -0.53525  -0.53359
 Alpha  occ. eigenvalues --   -0.53252  -0.53033  -0.52912  -0.52860  -0.52585
 Alpha  occ. eigenvalues --   -0.52328  -0.52245  -0.52024  -0.51948  -0.51900
 Alpha  occ. eigenvalues --   -0.51729  -0.51484  -0.51323  -0.51199  -0.51022
 Alpha  occ. eigenvalues --   -0.50932  -0.50868  -0.50674  -0.50580  -0.50417
 Alpha  occ. eigenvalues --   -0.50244  -0.50130  -0.49757  -0.49409  -0.49255
 Alpha  occ. eigenvalues --   -0.49134  -0.48843  -0.48703  -0.48688  -0.48488
 Alpha  occ. eigenvalues --   -0.48320  -0.48149  -0.48038  -0.47780  -0.47689
 Alpha  occ. eigenvalues --   -0.47627  -0.47498  -0.47434  -0.47188  -0.47077
 Alpha  occ. eigenvalues --   -0.47048  -0.46937  -0.46627  -0.46396  -0.46012
 Alpha  occ. eigenvalues --   -0.45987  -0.45829  -0.45713  -0.45545  -0.45505
 Alpha  occ. eigenvalues --   -0.45408  -0.45283  -0.45102  -0.45048  -0.44907
 Alpha  occ. eigenvalues --   -0.44838  -0.44724  -0.44542  -0.44497  -0.44267
 Alpha  occ. eigenvalues --   -0.44018  -0.43928  -0.43819  -0.43688  -0.43344
 Alpha  occ. eigenvalues --   -0.43272  -0.43221  -0.42816  -0.42764  -0.42533
 Alpha  occ. eigenvalues --   -0.42448  -0.42247  -0.41775  -0.41535  -0.41341
 Alpha  occ. eigenvalues --   -0.41055  -0.40709  -0.40450  -0.40376  -0.39777
 Alpha  occ. eigenvalues --   -0.39509  -0.39380  -0.39004  -0.38784  -0.38439
 Alpha  occ. eigenvalues --   -0.37579  -0.37341  -0.37046  -0.36702  -0.36188
 Alpha  occ. eigenvalues --   -0.36006  -0.35999  -0.35005  -0.34020  -0.33685
 Alpha  occ. eigenvalues --   -0.33544  -0.33437  -0.33123  -0.32847  -0.32812
 Alpha  occ. eigenvalues --   -0.32638  -0.32490  -0.31807  -0.26480  -0.26136
 Alpha  occ. eigenvalues --   -0.22965  -0.22826
 Alpha virt. eigenvalues --   -0.06851  -0.06766  -0.00901  -0.00431   0.01313
 Alpha virt. eigenvalues --    0.01733   0.03736   0.04521   0.05793   0.06137
 Alpha virt. eigenvalues --    0.06214   0.07177   0.07218   0.07382   0.07901

 Mulliken charges:
               1
     1  Mg   0.866692
     2  C   -0.024994
     3  C   -0.090941
     4  C   -0.077191
     5  C   -0.084573
     6  N   -0.322544
     7  C   -0.009723
     8  C   -0.046747
     9  C   -0.137367
    10  C    0.004748
    11  C    0.052287
    12  C   -0.022582
    13  C   -0.100385
    14  H    0.046628
    15  N   -0.490224
    16  C    0.211077
    17  C   -0.153323
    18  C   -0.071575
    19  C    0.175225
    20  C    0.062414
    21  C    0.038659
    22  O   -0.271233
    23  C    0.019099
    24  N   -0.347279
    25  C    0.032677
    26  C   -0.079928
    27  C   -0.044752
    28  C    0.026187
    29  C    0.003960
    30  C   -0.037114
    31  C   -0.032810
    32  N   -0.445719
    33  C    0.123031
    34  C   -0.194364
    35  C   -0.006964
    36  C    0.135559
    37  C    0.071401
    38  C    0.151164
    39  O   -0.212615
    40  C   -0.145512
    41  C    0.289822
    42  O   -0.221317
    43  O   -0.405192
    44  C    0.143029
    45  H   -0.016227
    46  H    0.022498
    47  H    0.001734
    48  H    0.028138
    49  H    0.031740
    50  H    0.034557
    51  H    0.061050
    52  H    0.015595
    53  H    0.042869
    54  H    0.038022
    55  H    0.059073
    56  H    0.061396
    57  H    0.068501
    58  H    0.058145
    59  H    0.037736
    60  H    0.065755
    61  H    0.042224
    62  H    0.055902
    63  H    0.051120
    64  H    0.038524
    65  H    0.057645
    66  H    0.049043
    67  H    0.050045
    68  H    0.034148
    69  H    0.019392
    70  H    0.042114
    71  H    0.042254
    72  H    0.037399
    73  H    0.061753
    74  H    0.028357
    75  H    0.061490
    76  H    0.093086
    77  H    0.069932
    78  H    0.049408
    79  H    0.053533
    80  Mg   0.991988
    81  C    0.048538
    82  C   -0.062916
    83  C   -0.066947
    84  C   -0.108854
    85  N   -0.341879
    86  C    0.045938
    87  C   -0.119690
    88  C   -0.076612
    89  C    0.032530
    90  C    0.037877
    91  C    0.022989
    92  C   -0.140872
    93  H    0.020409
    94  N   -0.560797
    95  C    0.183991
    96  C   -0.106802
    97  C   -0.119692
    98  C    0.180385
    99  C    0.041724
   100  C    0.084318
   101  O   -0.242149
   102  C   -0.020062
   103  N   -0.364523
   104  C    0.073383
   105  C   -0.084225
   106  C   -0.059387
   107  C    0.063026
   108  C    0.015598
   109  C   -0.011358
   110  C   -0.064709
   111  N   -0.360163
   112  C    0.130018
   113  C   -0.203173
   114  C   -0.017907
   115  C    0.091504
   116  C    0.097935
   117  C    0.101625
   118  O   -0.185259
   119  C   -0.133787
   120  C    0.263512
   121  O   -0.284381
   122  O   -0.350440
   123  C    0.138282
   124  H   -0.035402
   125  H    0.027186
   126  H   -0.019285
   127  H    0.035192
   128  H    0.031579
   129  H    0.027212
   130  H    0.020082
   131  H    0.041826
   132  H    0.034530
   133  H    0.059476
   134  H    0.052975
   135  H    0.054888
   136  H    0.074063
   137  H    0.068000
   138  H    0.065817
   139  H    0.083966
   140  H    0.052894
   141  H    0.041946
   142  H    0.043263
   143  H    0.027360
   144  H    0.020796
   145  H    0.044636
   146  H    0.045624
   147  H    0.036429
   148  H    0.043477
   149  H    0.035112
   150  H    0.044676
   151  H    0.027289
   152  H    0.034089
   153  H    0.065853
   154  H    0.064650
   155  H    0.072225
   156  H    0.048133
   157  H    0.076414
   158  H    0.049400
 Sum of Mulliken charges =  -0.00000

 Dipole moment (field-independent basis, Debye):
    X=             -2.4974    Y=              0.8623    Z=              6.8560  Tot=              7.3475
 Quadrupole moment (field-independent basis, Debye-Ang):
   XX=           -543.1453   YY=           -478.7528   ZZ=           -519.4190
   XY=            -11.5367   XZ=             -5.0167   YZ=             32.9487

 Normal termination of Gaussian 16 at Sun Sep 19 13:14:50 2021.
