 Gaussian 16, Revision A.03,
 Gaussian 16:  ES64L-G16RevA.03 25-Dec-2016

 --------------------------------
 #p wB97XD/Def2SVP td=(nstates=5)
 --------------------------------

 --------------------------------
 TDDFT excited states in gaussian
 --------------------------------
 Symbolic Z-matrix:
 Charge =  0 Multiplicity = 1

                         Standard orientation:
 ---------------------------------------------------------------------
 Center     Atomic      Atomic             Coordinates (Angstroms)
 Number     Number       Type             X           Y           Z
 ---------------------------------------------------------------------
      1         12           0       -5.169734   -0.125525    0.920701
      2          6           0       -4.245143    3.265697   -0.286881
      3          6           0       -2.663900    0.341480    3.140300
      4          6           0       -5.851558   -3.127872    1.674793
      5          6           0       -7.070562   -0.411780   -2.075768
      6          7           0       -3.630190    1.584558    1.307876
      7          6           0       -3.588233    2.882381    0.827181
      8          6           0       -2.667676    3.824308    1.611635
      9          6           0       -1.847313    2.752834    2.394127
     10          6           0       -2.736619    1.453472    2.295100
     11          6           0       -0.461680    2.512214    1.883218
     12          6           0       -3.350713    4.932170    2.481698
     13          6           0       -2.619847    6.217518    2.682779
     14          1           0       -2.775176    6.847101    4.063472
     15          7           0       -4.389123   -1.276486    2.295336
     16          6           0       -3.370058   -0.903662    3.196628
     17          6           0       -3.241234   -1.953021    4.166224
     18          6           0       -4.301644   -2.893485    3.806053
     19          6           0       -4.865218   -2.436946    2.587124
     20          6           0       -2.284793   -1.918539    5.415175
     21          6           0       -4.684619   -4.107642    4.595655
     22          8           0       -5.564040   -4.910404    4.198672
     23          6           0       -4.101315   -4.433073    5.922097
     24          7           0       -6.150653   -1.644154   -0.090035
     25          6           0       -6.334145   -2.849909    0.451661
     26          6           0       -7.211317   -3.807966   -0.416533
     27          6           0       -7.907795   -2.730790   -1.328987
     28          6           0       -6.960566   -1.506319   -1.202661
     29          6           0       -6.346991   -4.803128   -1.255816
     30          6           0       -9.359146   -2.351144   -0.813083
     31          6           0      -10.394534   -3.469582   -0.571285
     32          7           0       -5.628541    1.149287   -0.809839
     33          6           0       -6.468104    0.883928   -1.885688
     34          6           0       -6.470111    2.011038   -2.788649
     35          6           0       -5.649343    2.972236   -2.184959
     36          6           0       -5.080702    2.385424   -1.021224
     37          6           0       -7.300602    2.172790   -4.017247
     38          6           0       -5.132118    4.326572   -2.330398
     39          8           0       -5.319106    5.225309   -3.139881
     40          6           0       -4.257581    4.544531   -0.989101
     41          6           0       -2.967198    5.036620   -1.440177
     42          8           0       -2.149853    4.437135   -2.156310
     43          8           0       -2.980532    6.397516   -1.329261
     44          6           0       -1.847774    7.147131   -1.769035
     45          1           0       -1.947091    0.616717    3.916985
     46          1           0       -6.116735   -4.162948    1.899249
     47          1           0       -7.683197   -0.553587   -2.968960
     48          1           0       -2.013411    4.308594    0.886405
     49          1           0       -1.847336    2.975178    3.460799
     50          1           0       -0.473937    1.547646    1.375676
     51          1           0        0.226873    2.413932    2.722342
     52          1           0       -0.050669    3.244103    1.188147
     53          1           0       -3.475889    4.514044    3.480093
     54          1           0       -4.348021    5.094051    2.073590
     55          1           0       -3.062324    6.879236    1.938440
     56          1           0       -1.594434    6.178777    2.314922
     57          1           0       -2.771637   -1.751696    6.375577
     58          1           0       -1.469575   -1.209844    5.271807
     59          1           0       -1.846692   -2.916474    5.372298
     60          1           0       -3.094029   -4.820075    5.766023
     61          1           0       -4.746546   -5.204010    6.344206
     62          1           0       -4.170758   -3.525400    6.520683
     63          1           0       -7.858767   -4.334434    0.285518
     64          1           0       -7.978722   -2.982418   -2.386737
     65          1           0       -6.539518   -5.795791   -0.848045
     66          1           0       -5.280854   -4.584037   -1.304817
     67          1           0       -6.809662   -4.713895   -2.239731
     68          1           0       -9.835361   -1.719083   -1.562250
     69          1           0       -9.210413   -1.718709    0.061954
     70          1           0      -10.665988   -3.369610    0.479521
     71          1           0       -9.828255   -4.389907   -0.717071
     72          1           0      -11.281333   -3.362801   -1.195832
     73          1           0       -8.040697    1.375291   -3.947361
     74          1           0       -6.627539    2.005969   -4.858186
     75          1           0       -7.729915    3.167498   -4.136892
     76          1           0       -4.750134    5.275504   -0.348134
     77          1           0       -1.049796    6.499076   -2.132135
     78          1           0       -1.483402    7.655934   -0.876506
     79          1           0       -2.139533    7.936023   -2.460844
     80         12           0        4.327086   -1.023292   -1.151416
     81          6           0        7.040168    0.804419    0.035118
     82          6           0        2.316249    1.643922   -0.711038
     83          6           0        1.690913   -3.008284   -1.883455
     84          6           0        6.336510   -3.825098   -1.107994
     85          7           0        4.684374    1.024390   -0.382845
     86          6           0        5.910197    1.597988   -0.159467
     87          6           0        5.759185    3.044047    0.124819
     88          6           0        4.269671    3.366988   -0.040775
     89          6           0        3.659640    1.950518   -0.424723
     90          6           0        3.538911    4.073624    1.090405
     91          6           0        6.744567    3.943480   -0.816533
     92          6           0        7.823050    4.801465   -0.114396
     93          1           0        8.146254    6.191489   -0.604572
     94          7           0        2.311430   -0.702781   -1.397674
     95          6           0        1.643378    0.487339   -1.151581
     96          6           0        0.253229    0.304084   -1.360730
     97          6           0        0.035089   -1.057941   -1.703224
     98          6           0        1.377811   -1.647524   -1.692334
     99          6           0       -0.686026    1.571759   -1.303795
    100          6           0       -1.331319   -1.702320   -1.930325
    101          8           0       -1.529354   -2.906436   -2.152361
    102          6           0       -2.530040   -0.860649   -1.977080
    103          7           0        3.945534   -3.170022   -1.227074
    104          6           0        2.833074   -3.731529   -1.653206
    105          6           0        2.947334   -5.272515   -1.632435
    106          6           0        4.506387   -5.368137   -1.867036
    107          6           0        4.990144   -4.003157   -1.387805
    108          6           0        2.528436   -6.092622   -0.356419
    109          6           0        4.999860   -5.682632   -3.360021
    110          6           0        4.620461   -4.743405   -4.430524
    111          7           0        6.338050   -1.541255   -0.600737
    112          6           0        7.039767   -2.761568   -0.653896
    113          6           0        8.378786   -2.557191   -0.201090
    114          6           0        8.427360   -1.220668    0.141805
    115          6           0        7.178804   -0.619349   -0.224430
    116          6           0        9.349552   -3.588115    0.111157
    117          6           0        9.296609   -0.195913    0.484884
    118          8           0       10.495527   -0.199903    0.782572
    119          6           0        8.455353    1.159931    0.539128
    120          6           0        8.381014    1.522253    1.985590
    121          8           0        7.931358    0.931485    2.945039
    122          8           0        8.978270    2.712060    2.073406
    123          6           0        9.014660    3.330350    3.439161
    124          1           0        1.824986    2.618617   -0.743186
    125          1           0        0.839026   -3.572807   -2.266407
    126          1           0        6.976931   -4.707646   -1.162804
    127          1           0        6.062905    3.154450    1.165072
    128          1           0        4.140019    3.985332   -0.928724
    129          1           0        3.152573    3.170884    1.562121
    130          1           0        2.800093    4.815481    0.786740
    131          1           0        4.107097    4.614411    1.846761
    132          1           0        6.131448    4.581806   -1.452025
    133          1           0        7.387611    3.351100   -1.467927
    134          1           0        8.765357    4.272050   -0.258328
    135          1           0        7.691568    4.819823    0.966672
    136          1           0       -1.505962    1.361267   -0.617398
    137          1           0       -1.052501    1.504778   -2.328226
    138          1           0       -0.272733    2.507150   -0.926392
    139          1           0       -2.644516   -0.290773   -1.056038
    140          1           0       -3.370567   -1.546725   -1.875328
    141          1           0       -2.645164   -0.263484   -2.882012
    142          1           0        2.540774   -5.655447   -2.568582
    143          1           0        4.805665   -6.207531   -1.239833
    144          1           0        2.799231   -5.649436    0.601138
    145          1           0        3.022553   -7.049976   -0.525880
    146          1           0        1.448083   -6.237043   -0.328497
    147          1           0        4.646512   -6.642445   -3.737654
    148          1           0        6.077951   -5.552438   -3.453749
    149          1           0        5.353691   -3.944781   -4.327030
    150          1           0        3.638785   -4.269575   -4.401812
    151          1           0        4.701310   -5.074588   -5.465321
    152          1           0        9.071536   -3.902730    1.117759
    153          1           0       10.390726   -3.266843    0.114518
    154          1           0        9.374578   -4.396412   -0.620507
    155          1           0        8.854196    1.943044   -0.105754
    156          1           0        8.273740    4.128715    3.391686
    157          1           0       10.022568    3.683926    3.655247
    158          1           0        8.709800    2.707119    4.280313
 ---------------------------------------------------------------------

 SCF Done:  E(RwB97XD) =  -4070.60159923     A.U. after   20 cycles

 Excitation energies and oscillator strengths:

 Excited State   1:      Singlet-A      1.5868 eV  781.33 nm  f=0.3444  <S**2>=0.000
     309 -> 316       -0.15852
     311 -> 313        0.68893
     309 <- 316       -0.11217
 This state for optimization and/or second-order correction.
 Total Energy, E(TD-HF/TD-DFT) =  -4070.54328392
 Copying the excited state density for this state as the 1-particle RhoCI density.

 Excited State   2:      Singlet-A      1.6390 eV  756.48 nm  f=0.4360  <S**2>=0.000
     310 -> 315       -0.17965
     312 -> 314        0.68325
     310 <- 315       -0.11530

 Excited State   3:      Singlet-A      2.1083 eV  588.08 nm  f=0.0678  <S**2>=0.000
     309 -> 313        0.60406
     310 -> 314        0.27617
     311 -> 316        0.19426
     312 -> 315        0.11035

 Excited State   4:      Singlet-A      2.1304 eV  581.97 nm  f=0.2324  <S**2>=0.000
     309 -> 313       -0.28038
     310 -> 314        0.58620
     312 -> 315        0.24631

 Excited State   5:      Singlet-A      2.4694 eV  502.07 nm  f=0.0000  <S**2>=0.000
     312 -> 313        0.70427

 The electronic state is 1-A.
 Alpha  occ. eigenvalues --  -46.95601 -46.95415 -19.30771 -19.30204 -19.25406
 Alpha  occ. eigenvalues --  -19.25275 -19.23937 -19.23218 -19.23057 -19.22648
 Alpha  occ. eigenvalues --  -14.47384 -14.46381 -14.46332 -14.46142 -14.44594
 Alpha  occ. eigenvalues --  -14.44589 -14.43994 -14.43315 -10.43785 -10.42354
 Alpha  occ. eigenvalues --  -10.40484 -10.38505 -10.38117 -10.37961 -10.35703
 Alpha  occ. eigenvalues --  -10.35508 -10.35453 -10.35308 -10.35244 -10.35179
 Alpha  occ. eigenvalues --  -10.35013 -10.34983 -10.34854 -10.34742 -10.34309
 Alpha  occ. eigenvalues --  -10.34099 -10.34019 -10.33887 -10.33536 -10.33509
 Alpha  occ. eigenvalues --  -10.33490 -10.33322 -10.32878 -10.32783 -10.32704
 Alpha  occ. eigenvalues --  -10.32591 -10.32565 -10.32511 -10.32497 -10.32452
 Alpha  occ. eigenvalues --  -10.32331 -10.32298 -10.32279 -10.32223 -10.32219
 Alpha  occ. eigenvalues --  -10.31965 -10.31942 -10.31837 -10.31787 -10.31770
 Alpha  occ. eigenvalues --  -10.31737 -10.31642 -10.31394 -10.31350 -10.31316
 Alpha  occ. eigenvalues --  -10.31144 -10.31072 -10.30957 -10.30450 -10.30383
 Alpha  occ. eigenvalues --  -10.30246 -10.30234 -10.30163 -10.30102 -10.30038
 Alpha  occ. eigenvalues --  -10.30001 -10.29903 -10.29886 -10.29703 -10.29588
 Alpha  occ. eigenvalues --  -10.29567 -10.29528 -10.29498 -10.28639 -10.28402
 Alpha  occ. eigenvalues --  -10.28328  -3.21715  -3.21279  -1.95278  -1.94870
 Alpha  occ. eigenvalues --   -1.94836  -1.94700  -1.94377  -1.94263  -1.19474
 Alpha  occ. eigenvalues --   -1.19112  -1.12938  -1.10832  -1.10587  -1.10041
 Alpha  occ. eigenvalues --   -1.09830  -1.09472  -1.07262  -1.07163  -1.06482
 Alpha  occ. eigenvalues --   -1.06030  -1.05955  -1.05139  -1.04959  -1.04402
 Alpha  occ. eigenvalues --   -0.96156  -0.93966  -0.91857  -0.90911  -0.90861
 Alpha  occ. eigenvalues --   -0.90518  -0.90216  -0.90067  -0.89657  -0.89588
 Alpha  occ. eigenvalues --   -0.89298  -0.89078  -0.88484  -0.88241  -0.87018
 Alpha  occ. eigenvalues --   -0.86408  -0.86368  -0.85943  -0.85215  -0.84812
 Alpha  occ. eigenvalues --   -0.84290  -0.83549  -0.83405  -0.83135  -0.82990
 Alpha  occ. eigenvalues --   -0.82359  -0.80748  -0.80323  -0.79816  -0.79516
 Alpha  occ. eigenvalues --   -0.79238  -0.78976  -0.78503  -0.77668  -0.77580
 Alpha  occ. eigenvalues --   -0.77049  -0.75692  -0.75155  -0.73443  -0.73166
 Alpha  occ. eigenvalues --   -0.71447  -0.71075  -0.70881  -0.70801  -0.70570
 Alpha  occ. eigenvalues --   -0.69538  -0.69224  -0.68862  -0.68100  -0.67494
 Alpha  occ. eigenvalues --   -0.67355  -0.67266  -0.67178  -0.66733  -0.66535
 Alpha  occ. eigenvalues --   -0.65761  -0.64577  -0.63880  -0.62982  -0.62131
 Alpha  occ. eigenvalues --   -0.62031  -0.61939  -0.61689  -0.61334  -0.61048
 Alpha  occ. eigenvalues --   -0.60696  -0.60398  -0.60022  -0.60006  -0.59641
 Alpha  occ. eigenvalues --   -0.58346  -0.58166  -0.57958  -0.57546  -0.57383
 Alpha  occ. eigenvalues --   -0.57045  -0.56914  -0.56856  -0.56605  -0.56467
 Alpha  occ. eigenvalues --   -0.56238  -0.56118  -0.55630  -0.55116  -0.55033
 Alpha  occ. eigenvalues --   -0.54869  -0.54782  -0.54706  -0.54381  -0.54263
 Alpha  occ. eigenvalues --   -0.53965  -0.53826  -0.53714  -0.53586  -0.53570
 Alpha  occ. eigenvalues --   -0.53095  -0.52903  -0.52882  -0.52471  -0.52268
 Alpha  occ. eigenvalues --   -0.52179  -0.51938  -0.51767  -0.51699  -0.51607
 Alpha  occ. eigenvalues --   -0.51494  -0.51383  -0.51165  -0.50990  -0.50825
 Alpha  occ. eigenvalues --   -0.50797  -0.50526  -0.50250  -0.50112  -0.50001
 Alpha  occ. eigenvalues --   -0.49991  -0.49715  -0.49469  -0.49284  -0.49018
 Alpha  occ. eigenvalues --   -0.48869  -0.48742  -0.48601  -0.48439  -0.48428
 Alpha  occ. eigenvalues --   -0.48341  -0.48244  -0.47967  -0.47758  -0.47610
 Alpha  occ. eigenvalues --   -0.47581  -0.47302  -0.47249  -0.46993  -0.46739
 Alpha  occ. eigenvalues --   -0.46431  -0.46406  -0.46179  -0.46088  -0.46031
 Alpha  occ. eigenvalues --   -0.45888  -0.45833  -0.45470  -0.45321  -0.45311
 Alpha  occ. eigenvalues --   -0.45070  -0.45039  -0.44902  -0.44756  -0.44646
 Alpha  occ. eigenvalues --   -0.44333  -0.44289  -0.44259  -0.44085  -0.43841
 Alpha  occ. eigenvalues --   -0.43691  -0.43609  -0.43343  -0.43145  -0.42845
 Alpha  occ. eigenvalues --   -0.42783  -0.42706  -0.42453  -0.42359  -0.41977
 Alpha  occ. eigenvalues --   -0.41899  -0.41668  -0.41544  -0.41226  -0.40684
 Alpha  occ. eigenvalues --   -0.40657  -0.40470  -0.40017  -0.39894  -0.39719
 Alpha  occ. eigenvalues --   -0.39553  -0.39372  -0.38929  -0.38728  -0.38574
 Alpha  occ. eigenvalues --   -0.38307  -0.37863  -0.37051  -0.36945  -0.36229
 Alpha  occ. eigenvalues --   -0.36140  -0.35760  -0.35466  -0.34111  -0.33877
 Alpha  occ. eigenvalues --   -0.33404  -0.32638  -0.32441  -0.32339  -0.32319
 Alpha  occ. eigenvalues --   -0.32226  -0.31967  -0.31864  -0.26512  -0.25684
 Alpha  occ. eigenvalues --   -0.23875  -0.22969
 Alpha virt. eigenvalues --   -0.08383  -0.07037   0.00536   0.00764   0.01996
 Alpha virt. eigenvalues --    0.02650   0.03953   0.04651   0.04696   0.05403
 Alpha virt. eigenvalues --    0.05587   0.07249   0.07886   0.07943   0.08719

 Mulliken charges:
               1
     1  Mg   0.964237
     2  C   -0.004692
     3  C   -0.057501
     4  C   -0.038086
     5  C   -0.080994
     6  N   -0.303964
     7  C   -0.051080
     8  C   -0.077357
     9  C   -0.098728
    10  C   -0.024174
    11  C    0.046704
    12  C    0.043491
    13  C   -0.116484
    14  H    0.056197
    15  N   -0.495818
    16  C    0.189250
    17  C   -0.167766
    18  C   -0.081288
    19  C    0.150560
    20  C    0.071576
    21  C    0.009784
    22  O   -0.273311
    23  C    0.009497
    24  N   -0.393803
    25  C    0.047845
    26  C   -0.111629
    27  C   -0.102081
    28  C    0.088731
    29  C    0.048082
    30  C   -0.034856
    31  C   -0.032553
    32  N   -0.398062
    33  C    0.120550
    34  C   -0.204822
    35  C   -0.039184
    36  C    0.118899
    37  C    0.089063
    38  C    0.155913
    39  O   -0.191701
    40  C   -0.062558
    41  C    0.249121
    42  O   -0.269264
    43  O   -0.348344
    44  C    0.133360
    45  H   -0.006468
    46  H    0.015905
    47  H    0.006240
    48  H    0.025665
    49  H    0.025737
    50  H    0.050083
    51  H    0.038162
    52  H    0.035028
    53  H    0.033431
    54  H    0.032263
    55  H    0.047667
    56  H    0.041009
    57  H    0.068534
    58  H    0.042561
    59  H    0.045240
    60  H    0.065501
    61  H    0.055836
    62  H    0.045518
    63  H    0.046807
    64  H    0.026652
    65  H    0.045783
    66  H    0.072305
    67  H    0.027926
    68  H    0.024521
    69  H    0.033860
    70  H    0.042430
    71  H    0.037171
    72  H    0.048817
    73  H    0.032305
    74  H    0.059114
    75  H    0.065318
    76  H    0.072971
    77  H    0.063671
    78  H    0.034762
    79  H    0.064420
    80  Mg   0.937358
    81  C   -0.014713
    82  C   -0.073981
    83  C   -0.063087
    84  C   -0.108725
    85  N   -0.378555
    86  C    0.013326
    87  C   -0.066597
    88  C   -0.052758
    89  C   -0.021433
    90  C    0.000878
    91  C    0.004261
    92  C   -0.135502
    93  H    0.037520
    94  N   -0.464172
    95  C    0.201489
    96  C   -0.192812
    97  C   -0.072233
    98  C    0.131677
    99  C    0.116552
   100  C    0.056492
   101  O   -0.249901
   102  C   -0.036491
   103  N   -0.296829
   104  C    0.020959
   105  C   -0.042505
   106  C   -0.111983
   107  C    0.094892
   108  C    0.042027
   109  C    0.014053
   110  C   -0.088569
   111  N   -0.408591
   112  C    0.113507
   113  C   -0.134489
   114  C    0.021787
   115  C    0.107518
   116  C    0.062644
   117  C    0.079189
   118  O   -0.228624
   119  C   -0.091668
   120  C    0.269252
   121  O   -0.245732
   122  O   -0.346690
   123  C    0.121151
   124  H   -0.004253
   125  H    0.014379
   126  H   -0.003615
   127  H    0.045484
   128  H    0.035333
   129  H    0.048950
   130  H    0.040693
   131  H    0.039708
   132  H    0.041545
   133  H    0.043099
   134  H    0.058201
   135  H    0.037191
   136  H    0.029162
   137  H    0.068800
   138  H    0.037545
   139  H    0.056118
   140  H    0.061918
   141  H    0.081589
   142  H    0.019483
   143  H    0.021968
   144  H    0.048910
   145  H    0.040125
   146  H    0.051795
   147  H    0.035215
   148  H    0.028350
   149  H    0.022451
   150  H    0.035249
   151  H    0.039023
   152  H    0.072942
   153  H    0.054879
   154  H    0.035367
   155  H    0.056144
   156  H    0.045909
   157  H    0.068149
   158  H    0.072795
 Sum of Mulliken charges =  -0.00000

 Dipole moment (field-independent basis, Debye):
    X=             -3.4042    Y=              2.5699    Z=              1.6245  Tot=              4.5642
 Quadrupole moment (field-independent basis, Debye-Ang):
   XX=           -547.4920   YY=           -490.4117   ZZ=           -498.5439
   XY=              2.5502   XZ=            -11.0493   YZ=             33.6907

 Normal termination of Gaussian 16 at Sat Sep 18 16:46:58 2021.
