 Gaussian 16, Revision A.03,
 Gaussian 16:  ES64L-G16RevA.03 25-Dec-2016

 --------------------------------
 #p wB97XD/Def2SVP td=(nstates=5)
 --------------------------------

 --------------------------------
 TDDFT excited states in gaussian
 --------------------------------
 Symbolic Z-matrix:
 Charge =  0 Multiplicity = 1

                         Standard orientation:
 ---------------------------------------------------------------------
 Center     Atomic      Atomic             Coordinates (Angstroms)
 Number     Number       Type             X           Y           Z
 ---------------------------------------------------------------------
      1         12           0      -22.948081    0.578863    0.303258
      2          6           0      -22.097627   -2.464598   -1.131471
      3          6           0      -21.646839    2.209607   -2.346565
      4          6           0      -23.656777    3.451548    1.868606
      5          6           0      -24.126812   -1.198337    3.080691
      6          7           0      -22.009702   -0.138116   -1.538173
      7          6           0      -21.847327   -1.368186   -1.963394
      8          6           0      -21.201660   -1.291415   -3.423082
      9          6           0      -20.477343    0.028911   -3.266366
     10          6           0      -21.462696    0.806769   -2.337203
     11          6           0      -19.055418   -0.202951   -2.711317
     12          6           0      -22.312401   -1.504212   -4.539429
     13          6           0      -21.768244   -1.921827   -5.909050
     14          1           0      -20.269734   -1.863073   -6.150297
     15          7           0      -22.854008    2.525482   -0.240225
     16          6           0      -22.338159    2.995705   -1.445599
     17          6           0      -22.660703    4.451428   -1.535021
     18          6           0      -23.208414    4.859020   -0.244904
     19          6           0      -23.167838    3.581910    0.515867
     20          6           0      -22.365345    5.281100   -2.762065
     21          6           0      -23.771698    6.264354    0.266972
     22          8           0      -24.279212    6.435204    1.380581
     23          6           0      -23.676934    7.422912   -0.703787
     24          7           0      -23.647183    1.053622    2.192098
     25          6           0      -23.845575    2.297627    2.619688
     26          6           0      -24.288398    2.360031    4.114119
     27          6           0      -24.648499    0.885944    4.348495
     28          6           0      -24.173336    0.177808    3.118840
     29          6           0      -23.214778    2.923448    5.086535
     30          6           0      -26.123060    0.534043    4.839073
     31          6           0      -27.069925   -0.024477    3.828262
     32          7           0      -22.918767   -1.393485    0.994700
     33          6           0      -23.477660   -1.973225    2.083484
     34          6           0      -23.293667   -3.380143    2.124284
     35          6           0      -22.736998   -3.645959    0.833717
     36          6           0      -22.563070   -2.412150    0.249434
     37          6           0      -23.565357   -4.444035    3.156047
     38          6           0      -22.277614   -4.636747   -0.093489
     39          8           0      -22.208362   -5.844769   -0.021566
     40          6           0      -21.984670   -3.957794   -1.469378
     41          6           0      -20.659032   -4.364435   -1.945244
     42          8           0      -19.635783   -4.113799   -1.326761
     43          8           0      -20.692885   -5.220561   -3.075589
     44          6           0      -19.395649   -5.752710   -3.521471
     45          1           0      -21.156992    2.700506   -3.188761
     46          1           0      -23.836016    4.405305    2.367751
     47          1           0      -24.458706   -1.714223    3.983726
     48          1           0      -20.525961   -2.132708   -3.571212
     49          1           0      -20.426514    0.624791   -4.177309
     50          1           0      -18.430791    0.089753   -3.555948
     51          1           0      -18.868337   -1.242663   -2.439589
     52          1           0      -18.917967    0.539551   -1.925562
     53          1           0      -22.875974   -0.582572   -4.687295
     54          1           0      -22.911710   -2.341098   -4.180130
     55          1           0      -22.272513   -1.297460   -6.645959
     56          1           0      -22.112199   -2.940714   -6.085302
     57          1           0      -22.470765    4.693883   -3.675010
     58          1           0      -21.397562    5.779814   -2.803650
     59          1           0      -23.128535    6.054887   -2.843740
     60          1           0      -22.629604    7.414819   -1.004746
     61          1           0      -23.864162    8.401584   -0.262869
     62          1           0      -24.391736    7.284292   -1.515090
     63          1           0      -25.164037    2.996101    4.242708
     64          1           0      -23.918666    0.523964    5.071737
     65          1           0      -23.252402    2.268678    5.957484
     66          1           0      -23.319438    3.964260    5.388953
     67          1           0      -22.254625    2.897210    4.571181
     68          1           0      -26.530586    1.405095    5.352322
     69          1           0      -26.068071   -0.278615    5.563052
     70          1           0      -27.264172   -1.061321    4.103733
     71          1           0      -26.668315   -0.179127    2.826057
     72          1           0      -28.039760    0.471908    3.793033
     73          1           0      -23.914584   -4.027141    4.101343
     74          1           0      -22.687695   -5.085350    3.241878
     75          1           0      -24.401258   -5.114419    2.955001
     76          1           0      -22.720977   -4.235932   -2.222964
     77          1           0      -19.412805   -6.262299   -4.484548
     78          1           0      -19.129525   -6.447955   -2.724820
     79          1           0      -18.709067   -4.907995   -3.479278
     80         12           0       22.970667    0.494730   -0.249705
     81          6           0       21.441034   -2.507213    0.314588
     82          6           0       19.735351    1.860423   -0.824366
     83          6           0       24.395678    3.548453   -0.423013
     84          6           0       25.877164   -0.744662    1.217713
     85          7           0       20.716445   -0.218265    0.125726
     86          6           0       20.411121   -1.546176    0.113539
     87          6           0       18.918311   -1.725797    0.099254
     88          6           0       18.349627   -0.280814   -0.244500
     89          6           0       19.658087    0.564876   -0.349044
     90          6           0       17.220065   -0.225951   -1.207103
     91          6           0       18.192024   -2.461394    1.322686
     92          6           0       18.789016   -2.317921    2.691257
     93          1           0       17.842430   -1.943339    3.823050
     94          7           0       22.202650    2.369886   -0.809522
     95          6           0       20.906247    2.721992   -1.024265
     96          6           0       20.770237    4.113299   -1.339530
     97          6           0       22.174289    4.611236   -1.341543
     98          6           0       23.003479    3.489603   -0.848975
     99          6           0       19.561375    4.863281   -1.639789
    100          6           0       22.700599    5.980297   -1.747773
    101          8           0       21.955374    6.865938   -1.975767
    102          6           0       24.142617    6.401986   -1.807630
    103          7           0       24.786408    1.295898    0.427876
    104          6           0       25.181213    2.524687    0.061056
    105          6           0       26.606818    2.891135    0.732142
    106          6           0       27.177360    1.399133    0.899083
    107          6           0       25.874920    0.634782    0.899096
    108          6           0       27.517444    3.804738   -0.092950
    109          6           0       28.109161    1.248821    2.115138
    110          6           0       29.463718    0.542762    1.982891
    111          7           0       23.530662   -1.236478    0.702993
    112          6           0       24.749992   -1.650446    1.224663
    113          6           0       24.729354   -3.018383    1.570939
    114          6           0       23.470624   -3.457080    1.194504
    115          6           0       22.752292   -2.329203    0.660459
    116          6           0       25.846264   -3.840189    2.136300
    117          6           0       22.568274   -4.522169    1.048789
    118          8           0       22.745329   -5.695434    1.370315
    119          6           0       21.176231   -3.956127    0.647952
    120          6           0       20.782868   -4.819414   -0.541716
    121          8           0       19.695016   -5.426015   -0.638601
    122          8           0       21.760724   -4.674726   -1.497462
    123          6           0       21.588859   -5.176932   -2.882644
    124          1           0       18.712657    2.240944   -0.864738
    125          1           0       24.789122    4.557927   -0.287446
    126          1           0       26.814515   -1.142992    1.610705
    127          1           0       18.665109   -2.428787   -0.695187
    128          1           0       17.932756    0.103101    0.686142
    129          1           0       17.360762    0.508818   -1.999743
    130          1           0       16.255836   -0.134444   -0.707090
    131          1           0       17.168233   -1.167867   -1.753269
    132          1           0       18.122781   -3.544340    1.219394
    133          1           0       17.206308   -2.020620    1.474866
    134          1           0       19.720737   -1.754318    2.726470
    135          1           0       19.049321   -3.322467    3.026393
    136          1           0       18.844717    4.194689   -2.115724
    137          1           0       19.721357    5.726248   -2.285059
    138          1           0       19.162944    5.207456   -0.684698
    139          1           0       24.517909    5.417339   -2.087444
    140          1           0       24.535835    6.709854   -0.839269
    141          1           0       24.406177    7.175481   -2.529165
    142          1           0       26.373048    3.277495    1.724663
    143          1           0       27.725701    0.953640    0.069415
    144          1           0       28.311965    3.176580   -0.496682
    145          1           0       27.782815    4.693013    0.479587
    146          1           0       27.019151    4.235677   -0.960828
    147          1           0       27.537140    0.722105    2.879452
    148          1           0       28.241695    2.236963    2.555975
    149          1           0       30.350760    1.035954    2.380696
    150          1           0       29.662083    0.188778    0.970388
    151          1           0       29.264543   -0.410449    2.471563
    152          1           0       25.861517   -4.878718    1.804775
    153          1           0       25.769396   -3.823085    3.223699
    154          1           0       26.834927   -3.477231    1.852367
    155          1           0       20.578515   -4.138711    1.540149
    156          1           0       22.006030   -4.500399   -3.628345
    157          1           0       20.521504   -5.298533   -3.067924
    158          1           0       22.000156   -6.140732   -3.180066
 ---------------------------------------------------------------------

 SCF Done:  E(RwB97XD) =  -4070.56786175     A.U. after   20 cycles

 Excitation energies and oscillator strengths:

 Excited State   1:      Singlet-A      1.5770 eV  786.19 nm  f=0.3840  <S**2>=0.000
     309 -> 315        0.17494
     311 -> 313        0.68654
     309 <- 315        0.11857
 This state for optimization and/or second-order correction.
 Total Energy, E(TD-HF/TD-DFT) =  -4070.50990738
 Copying the excited state density for this state as the 1-particle RhoCI density.

 Excited State   2:      Singlet-A      1.6905 eV  733.44 nm  f=0.3931  <S**2>=0.000
     310 -> 316        0.18170
     312 -> 314        0.68421
     310 <- 316        0.11474

 Excited State   3:      Singlet-A      2.0921 eV  592.64 nm  f=0.1443  <S**2>=0.000
     309 -> 313        0.64989
     311 -> 315       -0.25885

 Excited State   4:      Singlet-A      2.1645 eV  572.80 nm  f=0.1459  <S**2>=0.000
     310 -> 314        0.65219
     312 -> 316       -0.26038

 Excited State   5:      Singlet-A      3.0084 eV  412.13 nm  f=0.0074  <S**2>=0.000
     307 -> 313       -0.21731
     308 -> 313        0.63603
     308 -> 318       -0.12455

 The electronic state is 1-A.
 Alpha  occ. eigenvalues --  -46.96316 -46.94109 -19.31489 -19.29131 -19.25564
 Alpha  occ. eigenvalues --  -19.25339 -19.24390 -19.23622 -19.22902 -19.22197
 Alpha  occ. eigenvalues --  -14.47189 -14.46663 -14.46600 -14.46019 -14.44741
 Alpha  occ. eigenvalues --  -14.44622 -14.44298 -14.43184 -10.44408 -10.42707
 Alpha  occ. eigenvalues --  -10.41283 -10.38365 -10.38066 -10.37480 -10.36580
 Alpha  occ. eigenvalues --  -10.36159 -10.35673 -10.35401 -10.35243 -10.35128
 Alpha  occ. eigenvalues --  -10.35024 -10.34936 -10.34872 -10.34775 -10.34708
 Alpha  occ. eigenvalues --  -10.34636 -10.34566 -10.34440 -10.34163 -10.33786
 Alpha  occ. eigenvalues --  -10.33458 -10.33224 -10.33056 -10.32969 -10.32740
 Alpha  occ. eigenvalues --  -10.32604 -10.32590 -10.32519 -10.32377 -10.32376
 Alpha  occ. eigenvalues --  -10.32259 -10.32035 -10.32020 -10.32008 -10.32005
 Alpha  occ. eigenvalues --  -10.31927 -10.31886 -10.31634 -10.31604 -10.31581
 Alpha  occ. eigenvalues --  -10.31581 -10.31571 -10.31332 -10.31290 -10.31261
 Alpha  occ. eigenvalues --  -10.31072 -10.30971 -10.30770 -10.30767 -10.30764
 Alpha  occ. eigenvalues --  -10.30720 -10.30701 -10.30223 -10.30220 -10.30079
 Alpha  occ. eigenvalues --  -10.29922 -10.29842 -10.29635 -10.29627 -10.29588
 Alpha  occ. eigenvalues --  -10.29574 -10.29517 -10.29017 -10.28951 -10.28285
 Alpha  occ. eigenvalues --  -10.28160  -3.22250  -3.20275  -1.95791  -1.95406
 Alpha  occ. eigenvalues --   -1.95190  -1.93884  -1.93370  -1.93299  -1.17901
 Alpha  occ. eigenvalues --   -1.16619  -1.13592  -1.12757  -1.11764  -1.11668
 Alpha  occ. eigenvalues --   -1.09501  -1.08924  -1.07573  -1.07225  -1.06730
 Alpha  occ. eigenvalues --   -1.06444  -1.06165  -1.05224  -1.04948  -1.04175
 Alpha  occ. eigenvalues --   -0.95758  -0.94078  -0.91732  -0.91084  -0.90641
 Alpha  occ. eigenvalues --   -0.90436  -0.90327  -0.90204  -0.89927  -0.89262
 Alpha  occ. eigenvalues --   -0.89200  -0.89031  -0.88159  -0.87803  -0.86468
 Alpha  occ. eigenvalues --   -0.86201  -0.85926  -0.85506  -0.85020  -0.84689
 Alpha  occ. eigenvalues --   -0.84508  -0.84112  -0.82953  -0.82876  -0.82568
 Alpha  occ. eigenvalues --   -0.82027  -0.80579  -0.80481  -0.79766  -0.79136
 Alpha  occ. eigenvalues --   -0.78930  -0.78668  -0.78560  -0.77750  -0.77450
 Alpha  occ. eigenvalues --   -0.76989  -0.75605  -0.74794  -0.73759  -0.73146
 Alpha  occ. eigenvalues --   -0.71986  -0.71398  -0.71118  -0.70722  -0.70366
 Alpha  occ. eigenvalues --   -0.69882  -0.68655  -0.68579  -0.68218  -0.67524
 Alpha  occ. eigenvalues --   -0.67013  -0.66709  -0.66571  -0.66396  -0.66172
 Alpha  occ. eigenvalues --   -0.65951  -0.65619  -0.63236  -0.62681  -0.62301
 Alpha  occ. eigenvalues --   -0.61536  -0.61471  -0.61110  -0.60872  -0.60066
 Alpha  occ. eigenvalues --   -0.59999  -0.59942  -0.59591  -0.59561  -0.59228
 Alpha  occ. eigenvalues --   -0.58519  -0.57827  -0.57815  -0.57644  -0.57346
 Alpha  occ. eigenvalues --   -0.57276  -0.57081  -0.56669  -0.56414  -0.55972
 Alpha  occ. eigenvalues --   -0.55874  -0.55560  -0.55323  -0.55297  -0.55106
 Alpha  occ. eigenvalues --   -0.54938  -0.54574  -0.54441  -0.54230  -0.54073
 Alpha  occ. eigenvalues --   -0.54062  -0.53770  -0.53745  -0.53722  -0.53342
 Alpha  occ. eigenvalues --   -0.53122  -0.53057  -0.52707  -0.52686  -0.52659
 Alpha  occ. eigenvalues --   -0.52562  -0.52215  -0.51927  -0.51804  -0.51642
 Alpha  occ. eigenvalues --   -0.51465  -0.51404  -0.51137  -0.51096  -0.50975
 Alpha  occ. eigenvalues --   -0.50959  -0.50779  -0.50472  -0.50399  -0.50152
 Alpha  occ. eigenvalues --   -0.49832  -0.49739  -0.49496  -0.49302  -0.49299
 Alpha  occ. eigenvalues --   -0.49168  -0.49053  -0.48832  -0.48783  -0.48389
 Alpha  occ. eigenvalues --   -0.48340  -0.48162  -0.48077  -0.47926  -0.47691
 Alpha  occ. eigenvalues --   -0.47590  -0.47483  -0.47436  -0.47277  -0.46979
 Alpha  occ. eigenvalues --   -0.46842  -0.46830  -0.46569  -0.46249  -0.46137
 Alpha  occ. eigenvalues --   -0.45952  -0.45922  -0.45871  -0.45426  -0.45318
 Alpha  occ. eigenvalues --   -0.45257  -0.45145  -0.44997  -0.44920  -0.44675
 Alpha  occ. eigenvalues --   -0.44565  -0.44419  -0.44386  -0.44057  -0.44013
 Alpha  occ. eigenvalues --   -0.43950  -0.43730  -0.43662  -0.43429  -0.43293
 Alpha  occ. eigenvalues --   -0.43218  -0.42945  -0.42849  -0.42468  -0.42411
 Alpha  occ. eigenvalues --   -0.42192  -0.42079  -0.41866  -0.41092  -0.40957
 Alpha  occ. eigenvalues --   -0.40642  -0.40187  -0.39965  -0.39960  -0.39450
 Alpha  occ. eigenvalues --   -0.39439  -0.38990  -0.38629  -0.38165  -0.38115
 Alpha  occ. eigenvalues --   -0.37607  -0.37551  -0.36813  -0.36429  -0.35877
 Alpha  occ. eigenvalues --   -0.35866  -0.35427  -0.35332  -0.34192  -0.33813
 Alpha  occ. eigenvalues --   -0.33378  -0.33080  -0.32707  -0.32593  -0.32145
 Alpha  occ. eigenvalues --   -0.31683  -0.31543  -0.30411  -0.26399  -0.25812
 Alpha  occ. eigenvalues --   -0.23535  -0.23204
 Alpha virt. eigenvalues --   -0.08052  -0.07163  -0.00035   0.00673   0.02013
 Alpha virt. eigenvalues --    0.02324   0.04063   0.04587   0.04819   0.06617
 Alpha virt. eigenvalues --    0.06641   0.06989   0.07346   0.08052   0.08490

 Mulliken charges:
               1
     1  Mg   0.986000
     2  C   -0.033909
     3  C   -0.089262
     4  C   -0.081506
     5  C   -0.112974
     6  N   -0.312473
     7  C   -0.022031
     8  C   -0.084755
     9  C   -0.106171
    10  C    0.035495
    11  C    0.056867
    12  C    0.017347
    13  C   -0.109406
    14  H    0.037456
    15  N   -0.477357
    16  C    0.189963
    17  C   -0.158448
    18  C   -0.108906
    19  C    0.127308
    20  C    0.049039
    21  C    0.101692
    22  O   -0.227649
    23  C   -0.029493
    24  N   -0.378907
    25  C    0.081082
    26  C   -0.097512
    27  C   -0.032439
    28  C    0.052808
    29  C    0.021161
    30  C   -0.006354
    31  C   -0.048370
    32  N   -0.374888
    33  C    0.116100
    34  C   -0.174753
    35  C   -0.023267
    36  C    0.102204
    37  C    0.084909
    38  C    0.096578
    39  O   -0.204571
    40  C   -0.019834
    41  C    0.245598
    42  O   -0.251725
    43  O   -0.402722
    44  C    0.147364
    45  H    0.004668
    46  H    0.017857
    47  H   -0.007219
    48  H    0.021233
    49  H    0.004259
    50  H    0.035515
    51  H    0.070982
    52  H    0.037009
    53  H    0.035384
    54  H    0.041316
    55  H    0.045556
    56  H    0.053102
    57  H    0.040755
    58  H    0.065841
    59  H    0.031019
    60  H    0.059227
    61  H    0.056223
    62  H    0.081326
    63  H    0.037168
    64  H    0.030710
    65  H    0.038440
    66  H    0.045377
    67  H    0.041247
    68  H    0.033871
    69  H    0.028047
    70  H    0.018043
    71  H    0.047766
    72  H    0.040828
    73  H    0.015377
    74  H    0.066032
    75  H    0.046087
    76  H    0.068311
    77  H    0.063910
    78  H    0.057330
    79  H    0.048112
    80  Mg   0.958605
    81  C    0.008344
    82  C   -0.083347
    83  C   -0.083910
    84  C   -0.096680
    85  N   -0.330823
    86  C   -0.005504
    87  C   -0.018863
    88  C   -0.091824
    89  C    0.035666
    90  C    0.041615
    91  C   -0.010695
    92  C   -0.168686
    93  H    0.030025
    94  N   -0.448398
    95  C    0.171577
    96  C   -0.181763
    97  C   -0.096615
    98  C    0.137284
    99  C    0.086285
   100  C    0.013492
   101  O   -0.209814
   102  C   -0.015078
   103  N   -0.361635
   104  C    0.084245
   105  C   -0.139033
   106  C   -0.084232
   107  C    0.074821
   108  C    0.050073
   109  C   -0.015360
   110  C   -0.044746
   111  N   -0.441979
   112  C    0.139231
   113  C   -0.188013
   114  C    0.058667
   115  C    0.109884
   116  C    0.078483
   117  C    0.062333
   118  O   -0.216412
   119  C   -0.121442
   120  C    0.312934
   121  O   -0.256607
   122  O   -0.379231
   123  C    0.145013
   124  H    0.008420
   125  H    0.003756
   126  H   -0.014217
   127  H    0.042132
   128  H    0.049766
   129  H    0.035460
   130  H    0.041470
   131  H    0.026939
   132  H    0.059168
   133  H    0.045123
   134  H    0.064467
   135  H    0.055831
   136  H    0.031687
   137  H    0.063170
   138  H    0.053812
   139  H    0.032402
   140  H    0.070933
   141  H    0.057988
   142  H    0.056112
   143  H    0.040614
   144  H    0.038897
   145  H    0.039559
   146  H    0.032333
   147  H    0.030274
   148  H    0.027707
   149  H    0.056409
   150  H    0.025815
   151  H    0.030890
   152  H    0.060969
   153  H    0.060903
   154  H    0.031926
   155  H    0.065597
   156  H    0.053553
   157  H    0.053930
   158  H    0.058321
 Sum of Mulliken charges =  -0.00000

 Dipole moment (field-independent basis, Debye):
    X=              3.1524    Y=              5.8956    Z=             -4.4635  Tot=              8.0386
 Quadrupole moment (field-independent basis, Debye-Ang):
   XX=           -271.0151   YY=           -581.4826   ZZ=           -472.7291
   XY=            -75.8660   XZ=             30.9585   YZ=             12.7383

 Normal termination of Gaussian 16 at Mon Sep 20 19:17:59 2021.
