 Gaussian 16, Revision A.03,
 Gaussian 16:  ES64L-G16RevA.03 25-Dec-2016

 --------------------------------
 #p wB97XD/Def2SVP td=(nstates=5)
 --------------------------------

 --------------------------------
 TDDFT excited states in gaussian
 --------------------------------
 Symbolic Z-matrix:
 Charge =  0 Multiplicity = 1

                         Standard orientation:
 ---------------------------------------------------------------------
 Center     Atomic      Atomic             Coordinates (Angstroms)
 Number     Number       Type             X           Y           Z
 ---------------------------------------------------------------------
      1         12           0      -20.038269   -0.425453   -0.046817
      2          6           0      -19.374907    2.745111   -1.028752
      3          6           0      -19.378431    0.456609    3.247318
      4          6           0      -20.695798   -3.598272    0.934173
      5          6           0      -20.214232   -1.416054   -3.359035
      6          7           0      -19.568903    1.390786    0.909493
      7          6           0      -19.299907    2.593610    0.341829
      8          6           0      -19.161187    3.693314    1.362029
      9          6           0      -18.889958    2.908127    2.701218
     10          6           0      -19.341284    1.477109    2.260479
     11          6           0      -17.467627    2.980318    3.398731
     12          6           0      -20.499394    4.551100    1.493034
     13          6           0      -20.237101    5.985815    2.038591
     14          1           0      -19.038010    6.302401    2.948040
     15          7           0      -19.971785   -1.502772    1.830240
     16          6           0      -19.676248   -0.900231    3.081159
     17          6           0      -19.777989   -1.881970    4.118528
     18          6           0      -20.152842   -3.108246    3.462262
     19          6           0      -20.298794   -2.733706    2.010256
     20          6           0      -19.615302   -1.601077    5.571237
     21          6           0      -20.397141   -4.488927    4.060944
     22          8           0      -20.612750   -5.550334    3.405422
     23          6           0      -20.369263   -4.661694    5.570108
     24          7           0      -20.333671   -2.254781   -1.049509
     25          6           0      -20.782793   -3.421536   -0.428908
     26          6           0      -21.364822   -4.489503   -1.399454
     27          6           0      -21.213428   -3.665026   -2.797701
     28          6           0      -20.588058   -2.373307   -2.416818
     29          6           0      -20.510497   -5.760936   -1.315614
     30          6           0      -22.487483   -3.532521   -3.578823
     31          6           0      -22.386486   -4.055334   -4.983253
     32          7           0      -19.753048    0.334587   -1.827652
     33          6           0      -19.875372   -0.134800   -3.129567
     34          6           0      -19.600270    0.904342   -4.051222
     35          6           0      -19.344272    2.083894   -3.301708
     36          6           0      -19.550239    1.727377   -1.952260
     37          6           0      -19.607064    0.865868   -5.531219
     38          6           0      -18.900541    3.458576   -3.377793
     39          8           0      -18.548840    4.200948   -4.273700
     40          6           0      -18.989699    3.933850   -1.850477
     41          6           0      -17.856468    4.814881   -1.464776
     42          8           0      -16.694631    4.654129   -1.738832
     43          8           0      -18.238476    5.899195   -0.772286
     44          6           0      -17.118991    6.792806   -0.359701
     45          1           0      -18.984680    0.792616    4.208966
     46          1           0      -20.773830   -4.640615    1.249956
     47          1           0      -20.362109   -1.618366   -4.421818
     48          1           0      -18.259292    4.287079    1.214222
     49          1           0      -19.634504    3.217553    3.434005
     50          1           0      -16.872460    3.704958    2.842933
     51          1           0      -16.902369    2.054344    3.491707
     52          1           0      -17.644708    3.291750    4.428349
     53          1           0      -21.137943    3.951077    2.141597
     54          1           0      -20.938789    4.614792    0.497481
     55          1           0      -21.166751    6.204081    2.564468
     56          1           0      -20.259490    6.646683    1.172476
     57          1           0      -20.490289   -1.192140    6.076576
     58          1           0      -18.759979   -0.929971    5.638825
     59          1           0      -19.208568   -2.444538    6.128338
     60          1           0      -19.318563   -4.774592    5.836852
     61          1           0      -20.891275   -5.600732    5.752336
     62          1           0      -20.786778   -3.819336    6.121948
     63          1           0      -22.361427   -4.723053   -1.024652
     64          1           0      -20.518833   -4.205543   -3.441612
     65          1           0      -19.590411   -5.679448   -0.736529
     66          1           0      -20.367698   -6.156020   -2.321127
     67          1           0      -21.103879   -6.477496   -0.746951
     68          1           0      -22.803108   -2.498063   -3.715028
     69          1           0      -23.353652   -4.011202   -3.121793
     70          1           0      -23.206646   -4.720208   -5.252630
     71          1           0      -21.464905   -4.617305   -5.132494
     72          1           0      -22.284068   -3.157232   -5.593078
     73          1           0      -19.330231   -0.085192   -5.987109
     74          1           0      -18.723604    1.447182   -5.796743
     75          1           0      -20.564872    1.223779   -5.909002
     76          1           0      -19.868783    4.568039   -1.968646
     77          1           0      -16.761109    7.409887   -1.185082
     78          1           0      -16.340126    6.250003    0.176132
     79          1           0      -17.502045    7.493771    0.382336
     80         12           0       19.329468   -0.668852    0.024355
     81          6           0       21.457871    1.930662   -0.483506
     82          6           0       17.187986    1.185909    1.993363
     83          6           0       17.445890   -3.478141    0.556705
     84          6           0       21.710310   -2.820517   -1.646816
     85          7           0       19.453588    1.258581    0.832343
     86          6           0       20.302154    2.275396    0.279253
     87          6           0       19.835447    3.621241    0.667360
     88          6           0       18.738929    3.266751    1.769263
     89          6           0       18.405479    1.806743    1.557651
     90          6           0       19.247499    3.524151    3.275017
     91          6           0       19.426914    4.540270   -0.524723
     92          6           0       19.935875    5.943869   -0.451657
     93          1           0       19.916991    6.616259    0.977475
     94          7           0       17.517368   -1.070882    1.067062
     95          6           0       16.848041   -0.141880    1.806874
     96          6           0       15.688114   -0.772392    2.337214
     97          6           0       15.658330   -2.144380    1.870327
     98          6           0       16.895789   -2.303362    1.035294
     99          6           0       14.739552   -0.054534    3.322062
    100          6           0       14.677924   -3.262485    2.040595
    101          8           0       14.788816   -4.442217    1.688465
    102          6           0       13.312134   -2.857632    2.713750
    103          7           0       19.590144   -2.921308   -0.388978
    104          6           0       18.639698   -3.792078   -0.156764
    105          6           0       18.890790   -5.128264   -0.852606
    106          6           0       20.260474   -4.896733   -1.552431
    107          6           0       20.565828   -3.451412   -1.164081
    108          6           0       18.914583   -6.387865    0.154228
    109          6           0       20.070740   -5.081299   -3.122513
    110          6           0       19.215074   -4.087191   -3.945981
    111          7           0       21.283462   -0.535846   -0.747278
    112          6           0       22.057078   -1.462750   -1.420019
    113          6           0       23.219302   -0.724356   -1.954620
    114          6           0       23.079707    0.598702   -1.660388
    115          6           0       21.853437    0.655460   -0.903623
    116          6           0       24.413340   -1.374920   -2.563574
    117          6           0       23.647938    1.941802   -1.773085
    118          8           0       24.675431    2.338162   -2.297098
    119          6           0       22.593731    2.842306   -0.991358
    120          6           0       23.297078    3.427502    0.168172
    121          8           0       23.908840    2.832682    1.072553
    122          8           0       23.127866    4.788167    0.010655
    123          6           0       23.586213    5.593075    1.150518
    124          1           0       16.458451    1.750885    2.577091
    125          1           0       16.739187   -4.304104    0.666801
    126          1           0       22.402768   -3.438146   -2.221480
    127          1           0       20.707519    4.084647    1.130453
    128          1           0       17.854367    3.869454    1.565609
    129          1           0       20.151806    4.129905    3.333249
    130          1           0       19.578108    2.555345    3.649204
    131          1           0       18.356347    3.892633    3.781423
    132          1           0       18.340222    4.597224   -0.588266
    133          1           0       19.872695    4.031907   -1.379560
    134          1           0       19.336322    6.645462   -1.030327
    135          1           0       20.922252    6.214070   -0.828937
    136          1           0       14.058394    0.672856    2.880596
    137          1           0       15.436370    0.372396    4.043172
    138          1           0       14.014879   -0.726719    3.781035
    139          1           0       13.479504   -2.688667    3.777518
    140          1           0       12.556437   -3.576467    2.397579
    141          1           0       12.866255   -1.957614    2.289863
    142          1           0       18.121178   -5.272300   -1.610554
    143          1           0       21.038172   -5.589425   -1.230641
    144          1           0       17.978449   -6.921076   -0.015260
    145          1           0       18.940847   -6.041888    1.188036
    146          1           0       19.684674   -7.150713    0.047001
    147          1           0       19.728633   -6.068488   -3.432765
    148          1           0       21.091851   -4.923819   -3.471359
    149          1           0       19.954735   -3.630570   -4.603774
    150          1           0       18.685462   -3.369458   -3.320759
    151          1           0       18.439675   -4.563204   -4.546159
    152          1           0       24.736639   -0.636148   -3.296272
    153          1           0       24.184752   -2.336684   -3.023145
    154          1           0       25.217724   -1.321783   -1.831087
    155          1           0       22.433875    3.614227   -1.743678
    156          1           0       23.470835    6.608860    0.771296
    157          1           0       24.651683    5.386107    1.250752
    158          1           0       23.131057    5.356028    2.112375
 ---------------------------------------------------------------------

 SCF Done:  E(RwB97XD) =  -4070.60805712     A.U. after   19 cycles

 Excitation energies and oscillator strengths:

 Excited State   1:      Singlet-A      1.5874 eV  781.05 nm  f=0.3870  <S**2>=0.000
     310 -> 316       -0.17575
     311 -> 313        0.68654
     310 <- 316       -0.11663
 This state for optimization and/or second-order correction.
 Total Energy, E(TD-HF/TD-DFT) =  -4070.54972121
 Copying the excited state density for this state as the 1-particle RhoCI density.

 Excited State   2:      Singlet-A      1.6461 eV  753.22 nm  f=0.3821  <S**2>=0.000
     309 -> 315        0.19182
     312 -> 314        0.68167
     309 <- 315        0.11821

 Excited State   3:      Singlet-A      2.1692 eV  571.58 nm  f=0.1091  <S**2>=0.000
     310 -> 313        0.63605
     311 -> 316        0.29407

 Excited State   4:      Singlet-A      2.2139 eV  560.03 nm  f=0.0445  <S**2>=0.000
     309 -> 314        0.60812
     312 -> 315       -0.34955

 Excited State   5:      Singlet-A      3.3098 eV  374.60 nm  f=0.0147  <S**2>=0.000
     306 -> 313        0.10141
     308 -> 313        0.67090
     311 -> 316       -0.11059

 The electronic state is 1-A.
 Alpha  occ. eigenvalues --  -46.95595 -46.93540 -19.30864 -19.30405 -19.25200
 Alpha  occ. eigenvalues --  -19.24584 -19.24572 -19.24314 -19.23729 -19.23580
 Alpha  occ. eigenvalues --  -14.47491 -14.46897 -14.46784 -14.46327 -14.44141
 Alpha  occ. eigenvalues --  -14.44111 -14.44062 -14.43435 -10.43368 -10.42451
 Alpha  occ. eigenvalues --  -10.39730 -10.39420 -10.39249 -10.39206 -10.36064
 Alpha  occ. eigenvalues --  -10.35850 -10.35812 -10.35574 -10.35412 -10.34981
 Alpha  occ. eigenvalues --  -10.34889 -10.34746 -10.34547 -10.34426 -10.34151
 Alpha  occ. eigenvalues --  -10.34139 -10.33964 -10.33928 -10.33560 -10.33446
 Alpha  occ. eigenvalues --  -10.33364 -10.33051 -10.32994 -10.32922 -10.32866
 Alpha  occ. eigenvalues --  -10.32778 -10.32447 -10.32391 -10.32338 -10.32216
 Alpha  occ. eigenvalues --  -10.32170 -10.32131 -10.32006 -10.31946 -10.31944
 Alpha  occ. eigenvalues --  -10.31939 -10.31841 -10.31802 -10.31790 -10.31649
 Alpha  occ. eigenvalues --  -10.31630 -10.31620 -10.31570 -10.31530 -10.31489
 Alpha  occ. eigenvalues --  -10.31423 -10.31401 -10.31396 -10.31173 -10.30713
 Alpha  occ. eigenvalues --  -10.30465 -10.30431 -10.30340 -10.30000 -10.29749
 Alpha  occ. eigenvalues --  -10.29741 -10.29716 -10.29658 -10.29525 -10.29473
 Alpha  occ. eigenvalues --  -10.29418 -10.29354 -10.29311 -10.29299 -10.28943
 Alpha  occ. eigenvalues --  -10.28735  -3.21453  -3.19789  -1.95042  -1.94563
 Alpha  occ. eigenvalues --   -1.94421  -1.93378  -1.92904  -1.92811  -1.19511
 Alpha  occ. eigenvalues --   -1.18123  -1.12418  -1.12418  -1.11860  -1.09652
 Alpha  occ. eigenvalues --   -1.09649  -1.09486  -1.07127  -1.06550  -1.05776
 Alpha  occ. eigenvalues --   -1.05633  -1.04950  -1.04758  -1.03728  -1.03453
 Alpha  occ. eigenvalues --   -0.95389  -0.94328  -0.91611  -0.91031  -0.90757
 Alpha  occ. eigenvalues --   -0.90662  -0.90478  -0.89897  -0.89625  -0.89201
 Alpha  occ. eigenvalues --   -0.89198  -0.88842  -0.88391  -0.88226  -0.86577
 Alpha  occ. eigenvalues --   -0.86266  -0.85753  -0.85275  -0.84411  -0.84289
 Alpha  occ. eigenvalues --   -0.83620  -0.83469  -0.83176  -0.83035  -0.82495
 Alpha  occ. eigenvalues --   -0.81925  -0.80338  -0.80045  -0.79738  -0.79304
 Alpha  occ. eigenvalues --   -0.79279  -0.79130  -0.78495  -0.77725  -0.77187
 Alpha  occ. eigenvalues --   -0.76913  -0.74908  -0.74440  -0.74166  -0.73846
 Alpha  occ. eigenvalues --   -0.71787  -0.71216  -0.71107  -0.70619  -0.70319
 Alpha  occ. eigenvalues --   -0.70175  -0.69444  -0.68710  -0.67817  -0.67334
 Alpha  occ. eigenvalues --   -0.67253  -0.66945  -0.66805  -0.66671  -0.66365
 Alpha  occ. eigenvalues --   -0.66114  -0.64506  -0.64361  -0.62362  -0.62321
 Alpha  occ. eigenvalues --   -0.61919  -0.61381  -0.60968  -0.60906  -0.60766
 Alpha  occ. eigenvalues --   -0.60395  -0.59997  -0.59931  -0.59751  -0.59481
 Alpha  occ. eigenvalues --   -0.58109  -0.57903  -0.57473  -0.57390  -0.57188
 Alpha  occ. eigenvalues --   -0.57017  -0.56942  -0.56902  -0.56365  -0.55888
 Alpha  occ. eigenvalues --   -0.55456  -0.55314  -0.55148  -0.55118  -0.54988
 Alpha  occ. eigenvalues --   -0.54839  -0.54488  -0.54393  -0.54303  -0.54195
 Alpha  occ. eigenvalues --   -0.54137  -0.54081  -0.53936  -0.53904  -0.53450
 Alpha  occ. eigenvalues --   -0.53277  -0.53115  -0.52984  -0.52836  -0.52267
 Alpha  occ. eigenvalues --   -0.52047  -0.51956  -0.51822  -0.51631  -0.51569
 Alpha  occ. eigenvalues --   -0.51224  -0.50975  -0.50888  -0.50829  -0.50488
 Alpha  occ. eigenvalues --   -0.50463  -0.50394  -0.50340  -0.50166  -0.50080
 Alpha  occ. eigenvalues --   -0.49932  -0.49783  -0.49614  -0.49308  -0.49286
 Alpha  occ. eigenvalues --   -0.49172  -0.49158  -0.48799  -0.48700  -0.48664
 Alpha  occ. eigenvalues --   -0.48572  -0.48330  -0.48122  -0.47872  -0.47770
 Alpha  occ. eigenvalues --   -0.47508  -0.47177  -0.47112  -0.46881  -0.46740
 Alpha  occ. eigenvalues --   -0.46698  -0.46506  -0.46485  -0.46026  -0.45857
 Alpha  occ. eigenvalues --   -0.45851  -0.45495  -0.45415  -0.45237  -0.45165
 Alpha  occ. eigenvalues --   -0.45152  -0.44938  -0.44872  -0.44727  -0.44397
 Alpha  occ. eigenvalues --   -0.44297  -0.44284  -0.44062  -0.44015  -0.44007
 Alpha  occ. eigenvalues --   -0.43868  -0.43867  -0.43604  -0.43439  -0.43362
 Alpha  occ. eigenvalues --   -0.42982  -0.42865  -0.42688  -0.42531  -0.42401
 Alpha  occ. eigenvalues --   -0.42355  -0.42309  -0.41952  -0.41683  -0.41399
 Alpha  occ. eigenvalues --   -0.40238  -0.39914  -0.39844  -0.39664  -0.39521
 Alpha  occ. eigenvalues --   -0.39201  -0.39096  -0.39016  -0.38712  -0.38676
 Alpha  occ. eigenvalues --   -0.38350  -0.38267  -0.36652  -0.36623  -0.36238
 Alpha  occ. eigenvalues --   -0.36198  -0.35713  -0.35464  -0.33714  -0.33420
 Alpha  occ. eigenvalues --   -0.33122  -0.32961  -0.32848  -0.32671  -0.32520
 Alpha  occ. eigenvalues --   -0.32166  -0.32084  -0.31786  -0.26346  -0.26263
 Alpha  occ. eigenvalues --   -0.22867  -0.22758
 Alpha virt. eigenvalues --   -0.07354  -0.06828  -0.00460   0.00265   0.01809
 Alpha virt. eigenvalues --    0.02138   0.04230   0.04307   0.05062   0.06095
 Alpha virt. eigenvalues --    0.06940   0.07404   0.07449   0.07809   0.07818

 Mulliken charges:
               1
     1  Mg   0.985663
     2  C    0.012934
     3  C   -0.095366
     4  C   -0.062309
     5  C   -0.128252
     6  N   -0.378446
     7  C   -0.008542
     8  C   -0.043444
     9  C   -0.121977
    10  C    0.058015
    11  C    0.021169
    12  C    0.005432
    13  C   -0.092548
    14  H    0.043432
    15  N   -0.389516
    16  C    0.163956
    17  C   -0.155419
    18  C   -0.073743
    19  C    0.099884
    20  C    0.064806
    21  C    0.052945
    22  O   -0.274718
    23  C   -0.022155
    24  N   -0.391998
    25  C    0.057843
    26  C   -0.092105
    27  C   -0.027211
    28  C    0.109020
    29  C    0.008962
    30  C   -0.008548
    31  C   -0.062951
    32  N   -0.527569
    33  C    0.189896
    34  C   -0.191364
    35  C   -0.055057
    36  C    0.141476
    37  C    0.072778
    38  C    0.153113
    39  O   -0.183139
    40  C   -0.107266
    41  C    0.224538
    42  O   -0.229938
    43  O   -0.358801
    44  C    0.140871
    45  H   -0.003573
    46  H    0.017295
    47  H   -0.016857
    48  H    0.024529
    49  H    0.035451
    50  H    0.042289
    51  H    0.048417
    52  H    0.037246
    53  H    0.035734
    54  H    0.041473
    55  H    0.044279
    56  H    0.060630
    57  H    0.073862
    58  H    0.034829
    59  H    0.031935
    60  H    0.066650
    61  H    0.059233
    62  H    0.050443
    63  H    0.056073
    64  H    0.035261
    65  H    0.060706
    66  H    0.037253
    67  H    0.041411
    68  H    0.033233
    69  H    0.028320
    70  H    0.043841
    71  H    0.022319
    72  H    0.037621
    73  H    0.026948
    74  H    0.061451
    75  H    0.068405
    76  H    0.069242
    77  H    0.070792
    78  H    0.058519
    79  H    0.040393
    80  Mg   0.932844
    81  C   -0.005058
    82  C   -0.105862
    83  C   -0.037027
    84  C   -0.077802
    85  N   -0.442521
    86  C   -0.000910
    87  C   -0.039829
    88  C   -0.135918
    89  C    0.130617
    90  C    0.033353
    91  C    0.069953
    92  C   -0.138321
    93  H    0.000449
    94  N   -0.460884
    95  C    0.168959
    96  C   -0.150515
    97  C   -0.078135
    98  C    0.134072
    99  C    0.056646
   100  C    0.061953
   101  O   -0.237546
   102  C   -0.054910
   103  N   -0.260696
   104  C    0.017884
   105  C   -0.075244
   106  C   -0.047673
   107  C    0.027360
   108  C   -0.001703
   109  C   -0.063187
   110  C   -0.056330
   111  N   -0.406488
   112  C    0.141188
   113  C   -0.240982
   114  C   -0.006266
   115  C    0.120041
   116  C    0.082685
   117  C    0.139213
   118  O   -0.194730
   119  C   -0.109533
   120  C    0.275678
   121  O   -0.259104
   122  O   -0.369942
   123  C    0.139932
   124  H    0.001494
   125  H    0.024237
   126  H    0.003072
   127  H    0.030687
   128  H    0.027193
   129  H    0.043587
   130  H    0.045647
   131  H    0.050279
   132  H    0.039619
   133  H    0.041773
   134  H    0.043919
   135  H    0.061494
   136  H    0.055393
   137  H    0.062183
   138  H    0.016812
   139  H    0.079290
   140  H    0.051827
   141  H    0.042047
   142  H    0.050185
   143  H    0.039058
   144  H    0.042715
   145  H    0.048618
   146  H    0.040715
   147  H    0.041671
   148  H    0.020565
   149  H    0.044565
   150  H    0.039801
   151  H    0.038726
   152  H    0.047123
   153  H    0.040286
   154  H    0.066224
   155  H    0.068447
   156  H    0.059483
   157  H    0.056198
   158  H    0.059352
 Sum of Mulliken charges =  -0.00000

 Dipole moment (field-independent basis, Debye):
    X=             -7.0053    Y=              2.7174    Z=              3.9462  Tot=              8.4871
 Quadrupole moment (field-independent basis, Debye-Ang):
   XX=           -589.5019   YY=           -497.6397   ZZ=           -490.1751
   XY=             -8.6324   XZ=            -62.9213   YZ=             56.9135

 Normal termination of Gaussian 16 at Sun Sep 19 21:44:43 2021.
