 Gaussian 16, Revision A.03,
 Gaussian 16:  ES64L-G16RevA.03 25-Dec-2016

 --------------------------------
 #p wB97XD/Def2SVP td=(nstates=5)
 --------------------------------

 --------------------------------
 TDDFT excited states in gaussian
 --------------------------------
 Symbolic Z-matrix:
 Charge =  0 Multiplicity = 1

                         Standard orientation:
 ---------------------------------------------------------------------
 Center     Atomic      Atomic             Coordinates (Angstroms)
 Number     Number       Type             X           Y           Z
 ---------------------------------------------------------------------
      1         12           0       25.113658   -0.774374    0.041088
      2          6           0       26.738831    2.306140   -0.579555
      3          6           0       23.406610    0.722467    2.640535
      4          6           0       23.793246   -3.801700    0.798341
      5          6           0       27.026770   -2.301468   -2.468372
      6          7           0       25.224348    1.257514    0.913550
      7          6           0       25.781391    2.415572    0.376292
      8          6           0       25.364211    3.697296    1.207291
      9          6           0       24.537695    3.071694    2.362283
     10          6           0       24.404859    1.573993    2.006408
     11          6           0       25.067654    3.248074    3.834413
     12          6           0       24.716281    4.891891    0.394377
     13          6           0       25.459062    6.191565    0.468462
     14          1           0       24.570451    7.497326    0.511464
     15          7           0       23.822724   -1.382922    1.501278
     16          6           0       23.157658   -0.632742    2.449784
     17          6           0       22.332854   -1.508251    3.267634
     18          6           0       22.407293   -2.840403    2.771019
     19          6           0       23.364044   -2.725618    1.609484
     20          6           0       21.390519   -1.012367    4.382879
     21          6           0       21.684812   -4.102904    3.229944
     22          8           0       21.767986   -5.173157    2.663362
     23          6           0       20.655813   -4.152956    4.432708
     24          7           0       25.454696   -2.808413   -0.679960
     25          6           0       24.791318   -3.856647   -0.209834
     26          6           0       25.176715   -5.182110   -0.958653
     27          6           0       26.077974   -4.652067   -2.143143
     28          6           0       26.189797   -3.141843   -1.774358
     29          6           0       25.790068   -6.239014    0.004779
     30          6           0       25.480579   -4.964813   -3.500804
     31          6           0       26.499850   -5.435227   -4.536915
     32          7           0       26.692981   -0.252936   -1.213167
     33          6           0       27.307654   -0.934040   -2.246332
     34          6           0       28.320666   -0.075639   -2.778745
     35          6           0       28.131096    1.209941   -2.213880
     36          6           0       27.110577    1.075122   -1.231669
     37          6           0       29.319973   -0.442141   -3.809494
     38          6           0       28.550905    2.620537   -2.282279
     39          8           0       29.462404    3.191401   -2.874038
     40          6           0       27.536366    3.415031   -1.151285
     41          6           0       28.337008    4.088243   -0.176785
     42          8           0       28.508598    3.703954    0.959723
     43          8           0       28.778157    5.299814   -0.658917
     44          6           0       29.661604    6.009743    0.299323
     45          1           0       22.756204    1.181527    3.388244
     46          1           0       23.437397   -4.807583    1.028527
     47          1           0       27.514526   -2.833606   -3.288543
     48          1           0       26.282440    3.994091    1.712969
     49          1           0       23.524840    3.474458    2.372032
     50          1           0       24.193832    3.441901    4.457262
     51          1           0       25.775776    4.076245    3.848423
     52          1           0       25.578967    2.373091    4.236229
     53          1           0       23.695200    4.982666    0.765112
     54          1           0       24.716397    4.592716   -0.653901
     55          1           0       26.102806    6.296882   -0.405798
     56          1           0       26.064697    6.084827    1.367972
     57          1           0       20.386204   -1.209545    4.009631
     58          1           0       21.448046    0.075018    4.437203
     59          1           0       21.496545   -1.505456    5.349970
     60          1           0       19.865897   -3.429689    4.227326
     61          1           0       21.144210   -4.151956    5.407615
     62          1           0       20.323851   -5.190393    4.459721
     63          1           0       24.330026   -5.671262   -1.439846
     64          1           0       27.061388   -5.096319   -1.988137
     65          1           0       26.726042   -6.593644   -0.427771
     66          1           0       25.103400   -7.048729    0.252949
     67          1           0       26.024078   -5.770349    0.959248
     68          1           0       24.932368   -4.118627   -3.913673
     69          1           0       24.688974   -5.715426   -3.479527
     70          1           0       27.521333   -5.301869   -4.180554
     71          1           0       26.361836   -4.796753   -5.409952
     72          1           0       26.295984   -6.444841   -4.893943
     73          1           0       29.298664   -1.464137   -4.187748
     74          1           0       30.271537   -0.036166   -3.464146
     75          1           0       28.928526    0.044062   -4.703390
     76          1           0       26.915924    4.138733   -1.680643
     77          1           0       30.536439    5.397374    0.518998
     78          1           0       29.036959    6.254706    1.158302
     79          1           0       30.063086    6.939397   -0.102095
     80         12           0      -26.116053   -0.313738   -0.174823
     81          6           0      -24.534033    2.691135   -0.908595
     82          6           0      -26.473056    0.794308    3.052859
     83          6           0      -27.452357   -3.391224    0.636517
     84          6           0      -25.226831   -1.596982   -3.291415
     85          7           0      -25.644477    1.573511    0.893410
     86          6           0      -25.108689    2.699546    0.392204
     87          6           0      -25.107029    3.905190    1.360733
     88          6           0      -25.521350    3.198545    2.721930
     89          6           0      -25.879165    1.714644    2.230719
     90          6           0      -24.326213    3.299019    3.735598
     91          6           0      -26.186429    4.965454    0.797719
     92          6           0      -25.680540    6.421003    0.573994
     93          1           0      -24.383622    6.779913    1.385739
     94          7           0      -26.801100   -1.243648    1.580918
     95          6           0      -26.941672   -0.559900    2.806246
     96          6           0      -27.698265   -1.391760    3.717563
     97          6           0      -27.944991   -2.609308    3.070707
     98          6           0      -27.460203   -2.439744    1.650918
     99          6           0      -27.826351   -1.030953    5.204368
    100          6           0      -28.623029   -3.879371    3.649585
    101          8           0      -28.821252   -4.935813    3.020900
    102          6           0      -29.166133   -3.820401    5.087706
    103          7           0      -26.217067   -2.225749   -1.199024
    104          6           0      -26.901719   -3.334492   -0.614587
    105          6           0      -26.741642   -4.589642   -1.497645
    106          6           0      -26.275616   -3.919843   -2.873569
    107          6           0      -25.922096   -2.471622   -2.444515
    108          6           0      -25.791127   -5.565658   -0.824110
    109          6           0      -27.447319   -3.913637   -3.943674
    110          6           0      -28.889617   -3.351194   -3.702797
    111          7           0      -25.042601    0.323976   -1.746480
    112          6           0      -24.731505   -0.294791   -2.961172
    113          6           0      -23.978812    0.611760   -3.766004
    114          6           0      -23.910908    1.789580   -3.043927
    115          6           0      -24.479013    1.555385   -1.767310
    116          6           0      -23.332090    0.333234   -5.107474
    117          6           0      -23.435878    3.115641   -3.083126
    118          8           0      -22.766111    3.615309   -3.930020
    119          6           0      -23.722853    3.712762   -1.643493
    120          6           0      -22.376810    3.935086   -1.011095
    121          8           0      -21.914637    3.234444   -0.134972
    122          8           0      -21.817955    4.988556   -1.618468
    123          6           0      -20.387310    5.044432   -1.443082
    124          1           0      -26.664670    1.167468    4.060832
    125          1           0      -27.651313   -4.409301    0.975722
    126          1           0      -24.930561   -1.988057   -4.267522
    127          1           0      -24.157355    4.433811    1.440806
    128          1           0      -26.420520    3.598785    3.190897
    129          1           0      -24.115780    2.386853    4.294467
    130          1           0      -24.719031    4.091119    4.372443
    131          1           0      -23.482895    3.714612    3.184571
    132          1           0      -27.065764    4.896919    1.437824
    133          1           0      -26.526309    4.580274   -0.163957
    134          1           0      -26.543922    6.992088    0.913638
    135          1           0      -25.483206    6.685616   -0.464401
    136          1           0      -27.432688   -1.874762    5.771604
    137          1           0      -28.882378   -0.957078    5.467539
    138          1           0      -27.296399   -0.100813    5.407174
    139          1           0      -28.300435   -3.836557    5.751122
    140          1           0      -29.673231   -4.771898    5.246850
    141          1           0      -29.933327   -3.049541    5.156183
    142          1           0      -27.759063   -4.954032   -1.642644
    143          1           0      -25.494847   -4.524972   -3.332934
    144          1           0      -25.797530   -5.488450    0.263257
    145          1           0      -24.769392   -5.404071   -1.166931
    146          1           0      -26.091613   -6.594803   -1.019678
    147          1           0      -27.544345   -4.928081   -4.330570
    148          1           0      -27.062392   -3.237604   -4.707202
    149          1           0      -29.502165   -4.151498   -3.287344
    150          1           0      -29.253822   -3.062787   -4.689534
    151          1           0      -28.955125   -2.423751   -3.132989
    152          1           0      -24.060463    0.041654   -5.864362
    153          1           0      -22.667227   -0.505961   -4.904017
    154          1           0      -22.883368    1.194646   -5.604150
    155          1           0      -24.239277    4.671001   -1.584262
    156          1           0      -19.856812    5.499838   -2.278981
    157          1           0      -19.819448    4.183487   -1.090653
    158          1           0      -20.076481    5.689880   -0.621284
 ---------------------------------------------------------------------

 SCF Done:  E(RwB97XD) =  -4070.61299189     A.U. after   19 cycles

 Excitation energies and oscillator strengths:

 Excited State   1:      Singlet-A      1.6514 eV  750.80 nm  f=0.3884  <S**2>=0.000
     310 -> 316        0.18083
     312 -> 313        0.68426
     310 <- 316        0.11557
 This state for optimization and/or second-order correction.
 Total Energy, E(TD-HF/TD-DFT) =  -4070.55230564
 Copying the excited state density for this state as the 1-particle RhoCI density.

 Excited State   2:      Singlet-A      1.7609 eV  704.10 nm  f=0.3724  <S**2>=0.000
     309 -> 315       -0.17859
     311 -> 314        0.68336
     309 <- 315       -0.10772

 Excited State   3:      Singlet-A      2.1706 eV  571.20 nm  f=0.1241  <S**2>=0.000
     310 -> 313        0.64462
     312 -> 316       -0.27783

 Excited State   4:      Singlet-A      2.2095 eV  561.13 nm  f=0.1125  <S**2>=0.000
     309 -> 314        0.63741
     311 -> 315        0.28423

 Excited State   5:      Singlet-A      3.4492 eV  359.46 nm  f=0.0261  <S**2>=0.000
     303 -> 314       -0.29742
     308 -> 314        0.60873

 The electronic state is 1-A.
 Alpha  occ. eigenvalues --  -46.94577 -46.94432 -19.31412 -19.29485 -19.25036
 Alpha  occ. eigenvalues --  -19.24964 -19.24461 -19.24357 -19.24080 -19.23592
 Alpha  occ. eigenvalues --  -14.46896 -14.46852 -14.46338 -14.46032 -14.45017
 Alpha  occ. eigenvalues --  -14.44129 -14.43716 -14.43276 -10.43184 -10.42070
 Alpha  occ. eigenvalues --  -10.40455 -10.39967 -10.39060 -10.38880 -10.36667
 Alpha  occ. eigenvalues --  -10.36171 -10.35684 -10.35360 -10.35285 -10.35124
 Alpha  occ. eigenvalues --  -10.34960 -10.34706 -10.34461 -10.34343 -10.34292
 Alpha  occ. eigenvalues --  -10.34146 -10.33900 -10.33835 -10.33746 -10.33626
 Alpha  occ. eigenvalues --  -10.33616 -10.33079 -10.32977 -10.32665 -10.32630
 Alpha  occ. eigenvalues --  -10.32587 -10.32457 -10.32386 -10.32361 -10.32219
 Alpha  occ. eigenvalues --  -10.32089 -10.32013 -10.31923 -10.31908 -10.31855
 Alpha  occ. eigenvalues --  -10.31768 -10.31721 -10.31665 -10.31644 -10.31639
 Alpha  occ. eigenvalues --  -10.31395 -10.31166 -10.31089 -10.31051 -10.30883
 Alpha  occ. eigenvalues --  -10.30794 -10.30761 -10.30692 -10.30656 -10.30593
 Alpha  occ. eigenvalues --  -10.30585 -10.30496 -10.30301 -10.30211 -10.30129
 Alpha  occ. eigenvalues --  -10.29876 -10.29683 -10.29672 -10.29629 -10.29436
 Alpha  occ. eigenvalues --  -10.29192 -10.29094 -10.29081 -10.28916 -10.28842
 Alpha  occ. eigenvalues --  -10.28794  -3.20543  -3.20464  -1.94141  -1.94057
 Alpha  occ. eigenvalues --   -1.93659  -1.93567  -1.93521  -1.93457  -1.20381
 Alpha  occ. eigenvalues --   -1.17955  -1.14319  -1.13795  -1.11434  -1.11299
 Alpha  occ. eigenvalues --   -1.10494  -1.09556  -1.06199  -1.06082  -1.05343
 Alpha  occ. eigenvalues --   -1.04756  -1.04542  -1.03962  -1.03150  -1.02940
 Alpha  occ. eigenvalues --   -0.94837  -0.93754  -0.90985  -0.90445  -0.90293
 Alpha  occ. eigenvalues --   -0.90010  -0.90001  -0.89640  -0.89260  -0.89036
 Alpha  occ. eigenvalues --   -0.88822  -0.88442  -0.87934  -0.87471  -0.86278
 Alpha  occ. eigenvalues --   -0.85897  -0.85500  -0.85274  -0.84413  -0.84166
 Alpha  occ. eigenvalues --   -0.83173  -0.82997  -0.82816  -0.82660  -0.82054
 Alpha  occ. eigenvalues --   -0.81883  -0.80450  -0.79653  -0.79030  -0.78828
 Alpha  occ. eigenvalues --   -0.78672  -0.78353  -0.77798  -0.77655  -0.76899
 Alpha  occ. eigenvalues --   -0.76678  -0.74977  -0.74211  -0.73288  -0.73155
 Alpha  occ. eigenvalues --   -0.71093  -0.70834  -0.70738  -0.70647  -0.69947
 Alpha  occ. eigenvalues --   -0.69428  -0.69145  -0.68338  -0.67825  -0.67528
 Alpha  occ. eigenvalues --   -0.66742  -0.66602  -0.66557  -0.66470  -0.66347
 Alpha  occ. eigenvalues --   -0.65879  -0.64383  -0.63123  -0.62088  -0.61998
 Alpha  occ. eigenvalues --   -0.61428  -0.61154  -0.60918  -0.60768  -0.60401
 Alpha  occ. eigenvalues --   -0.60010  -0.59941  -0.59748  -0.59253  -0.59006
 Alpha  occ. eigenvalues --   -0.58223  -0.57945  -0.57675  -0.57663  -0.56920
 Alpha  occ. eigenvalues --   -0.56714  -0.56379  -0.56129  -0.55906  -0.55615
 Alpha  occ. eigenvalues --   -0.55327  -0.55234  -0.55166  -0.55074  -0.54948
 Alpha  occ. eigenvalues --   -0.54495  -0.54450  -0.54113  -0.54047  -0.53909
 Alpha  occ. eigenvalues --   -0.53840  -0.53694  -0.53611  -0.53314  -0.53040
 Alpha  occ. eigenvalues --   -0.52879  -0.52774  -0.52594  -0.52501  -0.52044
 Alpha  occ. eigenvalues --   -0.51861  -0.51776  -0.51519  -0.51468  -0.51451
 Alpha  occ. eigenvalues --   -0.51353  -0.51074  -0.50752  -0.50631  -0.50561
 Alpha  occ. eigenvalues --   -0.50496  -0.50235  -0.49960  -0.49911  -0.49864
 Alpha  occ. eigenvalues --   -0.49674  -0.49673  -0.49472  -0.49408  -0.49104
 Alpha  occ. eigenvalues --   -0.48690  -0.48594  -0.48330  -0.48196  -0.48121
 Alpha  occ. eigenvalues --   -0.48103  -0.47913  -0.47762  -0.47498  -0.47463
 Alpha  occ. eigenvalues --   -0.47154  -0.47096  -0.46908  -0.46750  -0.46656
 Alpha  occ. eigenvalues --   -0.46535  -0.46452  -0.46411  -0.46263  -0.45959
 Alpha  occ. eigenvalues --   -0.45873  -0.45686  -0.45587  -0.45474  -0.45383
 Alpha  occ. eigenvalues --   -0.45189  -0.45154  -0.45008  -0.44979  -0.44923
 Alpha  occ. eigenvalues --   -0.44584  -0.44300  -0.44297  -0.44189  -0.43889
 Alpha  occ. eigenvalues --   -0.43811  -0.43718  -0.43402  -0.43279  -0.43131
 Alpha  occ. eigenvalues --   -0.42705  -0.42613  -0.42460  -0.42199  -0.42196
 Alpha  occ. eigenvalues --   -0.41934  -0.41561  -0.41463  -0.41308  -0.41056
 Alpha  occ. eigenvalues --   -0.40598  -0.39677  -0.39649  -0.39405  -0.39203
 Alpha  occ. eigenvalues --   -0.39113  -0.38992  -0.38893  -0.38454  -0.38222
 Alpha  occ. eigenvalues --   -0.38166  -0.37835  -0.36770  -0.36162  -0.36097
 Alpha  occ. eigenvalues --   -0.35778  -0.35328  -0.34944  -0.33912  -0.33821
 Alpha  occ. eigenvalues --   -0.33492  -0.33066  -0.32879  -0.32496  -0.32320
 Alpha  occ. eigenvalues --   -0.32178  -0.31705  -0.30748  -0.26015  -0.25698
 Alpha  occ. eigenvalues --   -0.23151  -0.22792
 Alpha virt. eigenvalues --   -0.06912  -0.06834   0.00154   0.00595   0.02096
 Alpha virt. eigenvalues --    0.02603   0.04216   0.04590   0.05608   0.06020
 Alpha virt. eigenvalues --    0.06925   0.07097   0.07915   0.08217   0.08310

 Mulliken charges:
               1
     1  Mg   0.955428
     2  C    0.013631
     3  C   -0.100322
     4  C   -0.065461
     5  C   -0.066973
     6  N   -0.380705
     7  C   -0.011788
     8  C   -0.052026
     9  C   -0.156822
    10  C    0.113124
    11  C    0.022927
    12  C    0.049726
    13  C   -0.135408
    14  H    0.029606
    15  N   -0.510119
    16  C    0.184423
    17  C   -0.168078
    18  C   -0.051440
    19  C    0.184718
    20  C    0.065892
    21  C    0.037480
    22  O   -0.218198
    23  C   -0.019128
    24  N   -0.317973
    25  C    0.037504
    26  C   -0.121227
    27  C   -0.060524
    28  C    0.021310
    29  C    0.018074
    30  C    0.000701
    31  C   -0.057013
    32  N   -0.463789
    33  C    0.166340
    34  C   -0.208581
    35  C   -0.042179
    36  C    0.161396
    37  C    0.091179
    38  C    0.152354
    39  O   -0.199089
    40  C   -0.162649
    41  C    0.269417
    42  O   -0.250503
    43  O   -0.372317
    44  C    0.150488
    45  H   -0.008647
    46  H    0.020410
    47  H   -0.018295
    48  H    0.051673
    49  H    0.032778
    50  H    0.036886
    51  H    0.043458
    52  H    0.050796
    53  H    0.038837
    54  H    0.034458
    55  H    0.066045
    56  H    0.050614
    57  H    0.052528
    58  H    0.034064
    59  H    0.066408
    60  H    0.061635
    61  H    0.055637
    62  H    0.047393
    63  H    0.040344
    64  H    0.034389
    65  H    0.035215
    66  H    0.050603
    67  H    0.041481
    68  H    0.030953
    69  H    0.027966
    70  H    0.041058
    71  H    0.031092
    72  H    0.041234
    73  H    0.019060
    74  H    0.070168
    75  H    0.044833
    76  H    0.079893
    77  H    0.060083
    78  H    0.049458
    79  H    0.052085
    80  Mg   0.964300
    81  C   -0.022326
    82  C   -0.067131
    83  C   -0.064496
    84  C   -0.108218
    85  N   -0.333604
    86  C    0.014082
    87  C   -0.076004
    88  C   -0.120616
    89  C    0.066926
    90  C    0.027395
    91  C   -0.000230
    92  C   -0.127180
    93  H    0.034980
    94  N   -0.460880
    95  C    0.133559
    96  C   -0.174176
    97  C   -0.090077
    98  C    0.138194
    99  C    0.086298
   100  C    0.051164
   101  O   -0.252411
   102  C   -0.016146
   103  N   -0.338712
   104  C    0.022023
   105  C   -0.061300
   106  C   -0.072467
   107  C    0.096904
   108  C    0.042003
   109  C   -0.059383
   110  C   -0.054455
   111  N   -0.488470
   112  C    0.148361
   113  C   -0.183985
   114  C   -0.008230
   115  C    0.148141
   116  C    0.079480
   117  C    0.095161
   118  O   -0.162841
   119  C   -0.097350
   120  C    0.245585
   121  O   -0.237020
   122  O   -0.309746
   123  C    0.140969
   124  H   -0.012935
   125  H    0.030872
   126  H    0.003278
   127  H    0.039824
   128  H    0.038839
   129  H    0.052148
   130  H    0.032879
   131  H    0.049460
   132  H    0.033244
   133  H    0.042338
   134  H    0.057041
   135  H    0.070061
   136  H    0.044622
   137  H    0.039391
   138  H    0.041548
   139  H    0.061768
   140  H    0.044446
   141  H    0.063962
   142  H    0.035111
   143  H    0.030275
   144  H    0.046252
   145  H    0.035047
   146  H    0.037262
   147  H    0.038907
   148  H    0.021490
   149  H    0.047731
   150  H    0.037264
   151  H    0.043654
   152  H    0.037587
   153  H    0.056833
   154  H    0.057394
   155  H    0.056486
   156  H    0.058009
   157  H    0.054688
   158  H    0.025154
 Sum of Mulliken charges =  -0.00000

 Dipole moment (field-independent basis, Debye):
    X=             -5.4774    Y=              1.0379    Z=              3.1331  Tot=              6.3949
 Quadrupole moment (field-independent basis, Debye-Ang):
   XX=           -678.9919   YY=           -501.4982   ZZ=           -481.6911
   XY=           -100.2218   XZ=             43.0281   YZ=             44.9398

 Normal termination of Gaussian 16 at Mon Sep 20 14:25:00 2021.
