 Gaussian 16, Revision A.03,
 Gaussian 16:  ES64L-G16RevA.03 25-Dec-2016

 --------------------------------
 #p wB97XD/Def2SVP td=(nstates=5)
 --------------------------------

 --------------------------------
 TDDFT excited states in gaussian
 --------------------------------
 Symbolic Z-matrix:
 Charge =  0 Multiplicity = 1

                         Standard orientation:
 ---------------------------------------------------------------------
 Center     Atomic      Atomic             Coordinates (Angstroms)
 Number     Number       Type             X           Y           Z
 ---------------------------------------------------------------------
      1         12           0      -12.817763   -0.304139   -0.326591
      2          6           0       -9.439705   -0.336661    0.900687
      3          6           0      -13.448521    2.178175    2.125174
      4          6           0      -16.179002   -0.205632   -1.269290
      5          6           0      -12.208287   -2.913874   -2.321114
      6          7           0      -11.541637    0.645699    1.498156
      7          6           0      -10.206603    0.544224    1.673354
      8          6           0       -9.764037    1.394363    2.918176
      9          6           0      -11.148066    1.986869    3.365439
     10          6           0      -12.129303    1.657525    2.217116
     11          6           0      -11.607356    1.440460    4.762242
     12          6           0       -8.737992    2.475819    2.580604
     13          6           0       -7.594075    2.619995    3.529957
     14          1           0       -6.477328    3.619387    3.195311
     15          7           0      -14.502024    0.926691    0.155564
     16          6           0      -14.534609    1.859800    1.186524
     17          6           0      -15.846223    2.476737    1.193379
     18          6           0      -16.614508    1.908442    0.190807
     19          6           0      -15.792693    0.759430   -0.318878
     20          6           0      -16.325224    3.456445    2.225774
     21          6           0      -18.113512    2.168134   -0.248463
     22          8           0      -18.725031    1.628825   -1.138015
     23          6           0      -18.859745    3.326127    0.377982
     24          7           0      -14.053916   -1.444521   -1.454209
     25          6           0      -15.383293   -1.274881   -1.741208
     26          6           0      -15.966242   -2.466292   -2.536545
     27          6           0      -14.661498   -3.191764   -3.077566
     28          6           0      -13.556028   -2.438352   -2.243922
     29          6           0      -16.927423   -3.356957   -1.686012
     30          6           0      -14.444419   -3.070639   -4.616667
     31          6           0      -14.117913   -1.670396   -5.130985
     32          7           0      -11.239608   -1.440254   -0.666606
     33          6           0      -11.079721   -2.496925   -1.605848
     34          6           0       -9.718212   -3.025295   -1.557492
     35          6           0       -9.056205   -2.182390   -0.646799
     36          6           0       -9.985653   -1.236512   -0.138899
     37          6           0       -9.196509   -4.131570   -2.351213
     38          6           0       -7.746152   -1.972297   -0.039081
     39          8           0       -6.688489   -2.537761   -0.260618
     40          6           0       -7.948708   -0.809334    1.074042
     41          6           0       -6.849998    0.160405    0.632301
     42          8           0       -6.826269    0.896809   -0.370332
     43          8           0       -5.835257    0.064592    1.473678
     44          6           0       -4.737306    1.113886    1.436135
     45          1           0      -13.611569    2.993407    2.832745
     46          1           0      -17.212123   -0.254023   -1.622170
     47          1           0      -12.060930   -3.714524   -3.048513
     48          1           0       -9.266182    0.675153    3.567674
     49          1           0      -11.122074    3.076163    3.417057
     50          1           0      -11.834368    2.192238    5.518148
     51          1           0      -10.979494    0.640325    5.154712
     52          1           0      -12.586475    0.961874    4.792023
     53          1           0       -9.276835    3.372969    2.885865
     54          1           0       -8.479368    2.507768    1.521636
     55          1           0       -7.051185    1.735606    3.867383
     56          1           0       -8.072386    3.013278    4.427046
     57          1           0      -15.509463    3.787616    2.867879
     58          1           0      -17.120574    3.092048    2.877816
     59          1           0      -16.724339    4.393395    1.836927
     60          1           0      -18.372373    4.283271    0.192711
     61          1           0      -18.889979    3.021576    1.424183
     62          1           0      -19.874760    3.197731    0.001961
     63          1           0      -16.613760   -1.989639   -3.273338
     64          1           0      -14.448560   -4.190875   -2.696746
     65          1           0      -17.965819   -3.281554   -2.008627
     66          1           0      -16.884992   -3.269585   -0.600913
     67          1           0      -16.524544   -4.348317   -1.894153
     68          1           0      -15.234153   -3.643632   -5.102771
     69          1           0      -13.560011   -3.657407   -4.864332
     70          1           0      -14.175865   -0.867684   -4.396768
     71          1           0      -14.869072   -1.458621   -5.891508
     72          1           0      -13.093122   -1.515731   -5.466632
     73          1           0       -8.152007   -4.381410   -2.163849
     74          1           0       -9.330650   -3.821316   -3.387405
     75          1           0       -9.840287   -4.994114   -2.173214
     76          1           0       -7.638091   -1.129313    2.068628
     77          1           0       -4.212720    1.023796    2.387597
     78          1           0       -5.124258    2.132173    1.412914
     79          1           0       -4.076099    1.020771    0.573821
     80         12           0       12.375259   -0.235899    0.353077
     81          6           0       11.514561    2.673100   -1.191889
     82          6           0        9.115509   -0.415778    1.523939
     83          6           0       13.121749   -3.282660    1.549989
     84          6           0       15.415421   -0.296557   -1.418788
     85          7           0       10.453301    0.878180   -0.043001
     86          6           0       10.413366    2.062963   -0.684928
     87          6           0        9.034472    2.602288   -0.799630
     88          6           0        8.328864    1.761134    0.436120
     89          6           0        9.358838    0.639312    0.685507
     90          6           0        8.012852    2.653954    1.672245
     91          6           0        8.452517    2.239368   -2.156604
     92          6           0        8.415690    0.705643   -2.606121
     93          1           0        7.206160    0.147752   -3.345846
     94          7           0       11.288176   -1.651595    1.385330
     95          6           0        9.979541   -1.487458    1.905726
     96          6           0        9.736361   -2.587838    2.777607
     97          6           0       10.819573   -3.457877    2.783106
     98          6           0       11.842498   -2.829174    1.930501
     99          6           0        8.406022   -2.642118    3.500824
    100          6           0       10.913707   -4.807005    3.454834
    101          8           0        9.892815   -5.169911    4.090677
    102          6           0       11.946380   -5.769320    3.263600
    103          7           0       13.956764   -1.680242   -0.089602
    104          6           0       14.058041   -2.849309    0.605619
    105          6           0       15.328863   -3.634274    0.201214
    106          6           0       16.050533   -2.636000   -0.765548
    107          6           0       15.054481   -1.490507   -0.829789
    108          6           0       16.169137   -4.073253    1.381380
    109          6           0       16.356413   -3.326270   -2.199948
    110          6           0       17.739209   -2.993105   -2.771661
    111          7           0       13.377342    0.942149   -1.067325
    112          6           0       14.650785    0.924203   -1.539195
    113          6           0       14.883798    2.198923   -2.161824
    114          6           0       13.696092    3.000545   -2.042447
    115          6           0       12.807909    2.163009   -1.388143
    116          6           0       16.048266    2.532344   -3.030221
    117          6           0       13.007566    4.207633   -2.369422
    118          8           0       13.517438    5.165775   -2.963857
    119          6           0       11.607084    4.051623   -1.806234
    120          6           0       11.362216    5.149229   -0.839232
    121          8           0       11.470520    6.301471   -1.210147
    122          8           0       10.942178    4.740023    0.389465
    123          6           0       10.674816    5.816008    1.345859
    124          1           0        8.197743   -0.335939    2.110073
    125          1           0       13.433821   -4.150669    2.134184
    126          1           0       16.407043   -0.158283   -1.855436
    127          1           0        8.892478    3.678548   -0.701113
    128          1           0        7.321215    1.444020    0.164315
    129          1           0        6.946841    2.618718    1.893929
    130          1           0        8.259688    3.678254    1.391735
    131          1           0        8.584365    2.410186    2.568760
    132          1           0        8.950085    2.869477   -2.894109
    133          1           0        7.478291    2.726922   -2.122962
    134          1           0        8.522506   -0.025078   -1.804303
    135          1           0        9.236618    0.669573   -3.321683
    136          1           0        7.715594   -3.111217    2.799603
    137          1           0        8.063082   -1.624681    3.684543
    138          1           0        8.392445   -3.175490    4.451787
    139          1           0       11.577843   -6.788563    3.383694
    140          1           0       12.850317   -5.560030    3.837062
    141          1           0       12.164781   -5.728716    2.197338
    142          1           0       14.926020   -4.485625   -0.348550
    143          1           0       16.934221   -2.230745   -0.273010
    144          1           0       15.713762   -3.870194    2.350292
    145          1           0       17.227050   -3.820772    1.448048
    146          1           0       16.066271   -5.158321    1.349728
    147          1           0       15.640275   -3.062704   -2.978337
    148          1           0       16.243713   -4.409720   -2.165028
    149          1           0       18.361866   -3.883303   -2.686736
    150          1           0       18.202887   -2.247030   -2.125961
    151          1           0       17.703416   -2.670453   -3.812313
    152          1           0       17.022215    2.628866   -2.551937
    153          1           0       15.774908    3.465058   -3.525037
    154          1           0       16.220510    1.774376   -3.794442
    155          1           0       10.927708    4.160013   -2.652197
    156          1           0        9.923375    6.472203    0.905780
    157          1           0       11.570854    6.354263    1.655303
    158          1           0       10.373523    5.406612    2.309966
 ---------------------------------------------------------------------

 SCF Done:  E(RwB97XD) =  -4070.59491416     A.U. after   20 cycles

 Excitation energies and oscillator strengths:

 Excited State   1:      Singlet-A      1.5888 eV  780.38 nm  f=0.3747  <S**2>=0.000
     310 -> 315       -0.18987
     312 -> 314        0.68293
     310 <- 315       -0.12268
 This state for optimization and/or second-order correction.
 Total Energy, E(TD-HF/TD-DFT) =  -4070.53652836
 Copying the excited state density for this state as the 1-particle RhoCI density.

 Excited State   2:      Singlet-A      1.6887 eV  734.20 nm  f=0.3897  <S**2>=0.000
     309 -> 316       -0.18189
     311 -> 313        0.68296
     309 <- 316       -0.11269

 Excited State   3:      Singlet-A      2.1588 eV  574.31 nm  f=0.1046  <S**2>=0.000
     309 -> 313       -0.11591
     310 -> 314        0.61447
     312 -> 315        0.31678

 Excited State   4:      Singlet-A      2.1635 eV  573.07 nm  f=0.1129  <S**2>=0.000
     309 -> 313        0.63729
     310 -> 314        0.11094
     311 -> 316        0.25234

 Excited State   5:      Singlet-A      3.2090 eV  386.36 nm  f=0.0007  <S**2>=0.000
     306 -> 313       -0.33900
     308 -> 313        0.59817

 The electronic state is 1-A.
 Alpha  occ. eigenvalues --  -46.95406 -46.94637 -19.31535 -19.30181 -19.24545
 Alpha  occ. eigenvalues --  -19.24417 -19.24361 -19.23247 -19.23169 -19.22999
 Alpha  occ. eigenvalues --  -14.47078 -14.46603 -14.46588 -14.46146 -14.44742
 Alpha  occ. eigenvalues --  -14.44380 -14.44310 -14.43109 -10.43237 -10.42352
 Alpha  occ. eigenvalues --  -10.39582 -10.39434 -10.38751 -10.38374 -10.36435
 Alpha  occ. eigenvalues --  -10.36037 -10.35678 -10.35479 -10.35390 -10.35281
 Alpha  occ. eigenvalues --  -10.35272 -10.35167 -10.35148 -10.35139 -10.34707
 Alpha  occ. eigenvalues --  -10.34436 -10.34414 -10.34114 -10.34040 -10.33953
 Alpha  occ. eigenvalues --  -10.33100 -10.32953 -10.32930 -10.32908 -10.32764
 Alpha  occ. eigenvalues --  -10.32677 -10.32530 -10.32513 -10.32498 -10.32472
 Alpha  occ. eigenvalues --  -10.32448 -10.32418 -10.32407 -10.32391 -10.32378
 Alpha  occ. eigenvalues --  -10.32348 -10.32243 -10.32100 -10.32017 -10.31745
 Alpha  occ. eigenvalues --  -10.31661 -10.31461 -10.31374 -10.31348 -10.31306
 Alpha  occ. eigenvalues --  -10.31200 -10.31100 -10.30872 -10.30859 -10.30771
 Alpha  occ. eigenvalues --  -10.30716 -10.30689 -10.30371 -10.30279 -10.30155
 Alpha  occ. eigenvalues --  -10.30107 -10.30049 -10.29928 -10.29885 -10.29606
 Alpha  occ. eigenvalues --  -10.29472 -10.29449 -10.29369 -10.29214 -10.28755
 Alpha  occ. eigenvalues --  -10.28489  -3.21310  -3.20766  -1.94871  -1.94450
 Alpha  occ. eigenvalues --   -1.94343  -1.94261  -1.93906  -1.93738  -1.19521
 Alpha  occ. eigenvalues --   -1.18165  -1.13690  -1.12287  -1.11176  -1.10567
 Alpha  occ. eigenvalues --   -1.10142  -1.07505  -1.06914  -1.06479  -1.05789
 Alpha  occ. eigenvalues --   -1.05134  -1.04676  -1.04273  -1.03754  -1.03535
 Alpha  occ. eigenvalues --   -0.95984  -0.92835  -0.91173  -0.91121  -0.90851
 Alpha  occ. eigenvalues --   -0.90612  -0.90562  -0.89940  -0.89643  -0.89309
 Alpha  occ. eigenvalues --   -0.88904  -0.88409  -0.88275  -0.87717  -0.86955
 Alpha  occ. eigenvalues --   -0.86055  -0.85950  -0.85476  -0.85225  -0.84638
 Alpha  occ. eigenvalues --   -0.84288  -0.83448  -0.83328  -0.82995  -0.82789
 Alpha  occ. eigenvalues --   -0.82144  -0.80510  -0.80113  -0.79907  -0.79226
 Alpha  occ. eigenvalues --   -0.78914  -0.78900  -0.77982  -0.77919  -0.77077
 Alpha  occ. eigenvalues --   -0.76864  -0.74592  -0.74413  -0.74052  -0.73637
 Alpha  occ. eigenvalues --   -0.72004  -0.71976  -0.71014  -0.70746  -0.70728
 Alpha  occ. eigenvalues --   -0.69518  -0.69101  -0.68421  -0.68271  -0.67442
 Alpha  occ. eigenvalues --   -0.67280  -0.67141  -0.67075  -0.66612  -0.66295
 Alpha  occ. eigenvalues --   -0.66089  -0.65743  -0.63805  -0.62159  -0.61641
 Alpha  occ. eigenvalues --   -0.61611  -0.61304  -0.61270  -0.60931  -0.60670
 Alpha  occ. eigenvalues --   -0.60311  -0.59965  -0.59723  -0.59378  -0.58684
 Alpha  occ. eigenvalues --   -0.58514  -0.58213  -0.57709  -0.57652  -0.57435
 Alpha  occ. eigenvalues --   -0.57054  -0.57029  -0.56591  -0.56406  -0.56154
 Alpha  occ. eigenvalues --   -0.55917  -0.55639  -0.55379  -0.55287  -0.55171
 Alpha  occ. eigenvalues --   -0.54962  -0.54860  -0.54672  -0.54391  -0.54340
 Alpha  occ. eigenvalues --   -0.54064  -0.53747  -0.53658  -0.53480  -0.53265
 Alpha  occ. eigenvalues --   -0.52956  -0.52912  -0.52852  -0.52754  -0.52256
 Alpha  occ. eigenvalues --   -0.52070  -0.51754  -0.51570  -0.51509  -0.51369
 Alpha  occ. eigenvalues --   -0.51228  -0.51180  -0.50985  -0.50926  -0.50633
 Alpha  occ. eigenvalues --   -0.50588  -0.50528  -0.50382  -0.50354  -0.50083
 Alpha  occ. eigenvalues --   -0.50000  -0.49483  -0.49462  -0.49370  -0.48969
 Alpha  occ. eigenvalues --   -0.48685  -0.48596  -0.48589  -0.48347  -0.48315
 Alpha  occ. eigenvalues --   -0.48306  -0.48131  -0.47940  -0.47763  -0.47612
 Alpha  occ. eigenvalues --   -0.47496  -0.47439  -0.47232  -0.47069  -0.46849
 Alpha  occ. eigenvalues --   -0.46756  -0.46522  -0.46459  -0.46410  -0.46346
 Alpha  occ. eigenvalues --   -0.46075  -0.45904  -0.45627  -0.45609  -0.45483
 Alpha  occ. eigenvalues --   -0.45449  -0.45086  -0.44975  -0.44915  -0.44679
 Alpha  occ. eigenvalues --   -0.44516  -0.44264  -0.44169  -0.44128  -0.44077
 Alpha  occ. eigenvalues --   -0.43792  -0.43772  -0.43677  -0.43323  -0.43235
 Alpha  occ. eigenvalues --   -0.43004  -0.42857  -0.42848  -0.42285  -0.42273
 Alpha  occ. eigenvalues --   -0.42120  -0.41480  -0.41370  -0.41107  -0.41036
 Alpha  occ. eigenvalues --   -0.40587  -0.40538  -0.39988  -0.39729  -0.39631
 Alpha  occ. eigenvalues --   -0.39568  -0.39402  -0.38926  -0.38731  -0.38058
 Alpha  occ. eigenvalues --   -0.37816  -0.37671  -0.36656  -0.35914  -0.35911
 Alpha  occ. eigenvalues --   -0.35351  -0.35233  -0.34739  -0.33928  -0.33613
 Alpha  occ. eigenvalues --   -0.32997  -0.32820  -0.32751  -0.32519  -0.32332
 Alpha  occ. eigenvalues --   -0.32243  -0.32161  -0.31071  -0.26157  -0.26035
 Alpha  occ. eigenvalues --   -0.23410  -0.22767
 Alpha virt. eigenvalues --   -0.07430  -0.07074  -0.00135   0.00117   0.02282
 Alpha virt. eigenvalues --    0.02695   0.04188   0.04472   0.04522   0.06498
 Alpha virt. eigenvalues --    0.07422   0.07579   0.07942   0.08099   0.08492

 Mulliken charges:
               1
     1  Mg   0.988062
     2  C    0.030678
     3  C   -0.071711
     4  C   -0.057207
     5  C   -0.104898
     6  N   -0.311542
     7  C   -0.008602
     8  C   -0.088596
     9  C   -0.082923
    10  C    0.047740
    11  C    0.016108
    12  C    0.051593
    13  C   -0.150146
    14  H    0.031181
    15  N   -0.450305
    16  C    0.180627
    17  C   -0.160848
    18  C   -0.081891
    19  C    0.134237
    20  C    0.055205
    21  C    0.057105
    22  O   -0.215958
    23  C   -0.009523
    24  N   -0.398469
    25  C    0.036508
    26  C   -0.083173
    27  C   -0.076534
    28  C    0.060713
    29  C    0.027323
    30  C   -0.006048
    31  C   -0.051471
    32  N   -0.527318
    33  C    0.158589
    34  C   -0.163552
    35  C   -0.041841
    36  C    0.162097
    37  C    0.081394
    38  C    0.128608
    39  O   -0.198816
    40  C   -0.130090
    41  C    0.252122
    42  O   -0.286927
    43  O   -0.341607
    44  C    0.147870
    45  H   -0.001411
    46  H    0.022973
    47  H   -0.006012
    48  H    0.039108
    49  H    0.035187
    50  H    0.033057
    51  H    0.038300
    52  H    0.025721
    53  H    0.023409
    54  H    0.069082
    55  H    0.048268
    56  H    0.037592
    57  H    0.022342
    58  H    0.055803
    59  H    0.037873
    60  H    0.076540
    61  H    0.035081
    62  H    0.053244
    63  H    0.040881
    64  H    0.043014
    65  H    0.048315
    66  H    0.047192
    67  H    0.024291
    68  H    0.039542
    69  H    0.022317
    70  H    0.040639
    71  H    0.045514
    72  H    0.042442
    73  H    0.065336
    74  H    0.051858
    75  H    0.044495
    76  H    0.067514
    77  H    0.057424
    78  H    0.052475
    79  H    0.072829
    80  Mg   0.931652
    81  C   -0.001176
    82  C   -0.065552
    83  C   -0.091556
    84  C   -0.077561
    85  N   -0.307434
    86  C    0.004095
    87  C   -0.074146
    88  C   -0.126484
    89  C    0.080411
    90  C    0.020556
    91  C    0.007864
    92  C   -0.131378
    93  H    0.037768
    94  N   -0.514600
    95  C    0.148932
    96  C   -0.151889
    97  C   -0.055425
    98  C    0.178154
    99  C    0.087377
   100  C    0.034438
   101  O   -0.270940
   102  C    0.017061
   103  N   -0.324737
   104  C    0.043626
   105  C   -0.057483
   106  C   -0.088566
   107  C    0.106031
   108  C    0.017479
   109  C   -0.009864
   110  C   -0.055777
   111  N   -0.439745
   112  C    0.094716
   113  C   -0.179812
   114  C    0.011847
   115  C    0.117581
   116  C    0.048070
   117  C    0.070944
   118  O   -0.202008
   119  C   -0.080992
   120  C    0.256990
   121  O   -0.227916
   122  O   -0.352592
   123  C    0.139002
   124  H   -0.003769
   125  H   -0.037315
   126  H   -0.005324
   127  H    0.022011
   128  H    0.037886
   129  H    0.038029
   130  H    0.026328
   131  H    0.038897
   132  H    0.024993
   133  H    0.032884
   134  H    0.077976
   135  H    0.066304
   136  H    0.054079
   137  H    0.029769
   138  H    0.063822
   139  H    0.061142
   140  H    0.077126
   141  H    0.047690
   142  H    0.049802
   143  H    0.040665
   144  H    0.036069
   145  H    0.051805
   146  H    0.027100
   147  H    0.036577
   148  H    0.027978
   149  H    0.034875
   150  H    0.031295
   151  H    0.047283
   152  H    0.038183
   153  H    0.058137
   154  H    0.037780
   155  H    0.089744
   156  H    0.063392
   157  H    0.058941
   158  H    0.050887
 Sum of Mulliken charges =  -0.00000

 Dipole moment (field-independent basis, Debye):
    X=             -1.7578    Y=             -2.8065    Z=              5.9319  Tot=              6.7937
 Quadrupole moment (field-independent basis, Debye-Ang):
   XX=           -418.6944   YY=           -524.9187   ZZ=           -502.4634
   XY=            -79.1512   XZ=             11.0574   YZ=             59.6381

 Normal termination of Gaussian 16 at Sun Sep 19 10:25:56 2021.
