 Gaussian 16, Revision A.03,
 Gaussian 16:  ES64L-G16RevA.03 25-Dec-2016

 --------------------------------
 #p wB97XD/Def2SVP td=(nstates=5)
 --------------------------------

 --------------------------------
 TDDFT excited states in gaussian
 --------------------------------
 Symbolic Z-matrix:
 Charge =  0 Multiplicity = 1

                         Standard orientation:
 ---------------------------------------------------------------------
 Center     Atomic      Atomic             Coordinates (Angstroms)
 Number     Number       Type             X           Y           Z
 ---------------------------------------------------------------------
      1         12           0       20.350041   -0.756380    0.254167
      2          6           0       19.600884    2.357438   -1.092233
      3          6           0       21.022741    0.913574    3.218691
      4          6           0       21.573209   -3.697730    1.445202
      5          6           0       19.794067   -2.194641   -2.840699
      6          7           0       20.365715    1.401480    0.956030
      7          6           0       19.983949    2.527264    0.242252
      8          6           0       20.163078    3.878727    1.039329
      9          6           0       20.933624    3.341969    2.307330
     10          6           0       20.813450    1.780638    2.156834
     11          6           0       22.400033    3.707989    2.554672
     12          6           0       18.800923    4.547579    1.299718
     13          6           0       18.481873    5.786767    0.505502
     14          1           0       17.702608    6.896015    1.234118
     15          7           0       21.003723   -1.400695    2.113249
     16          6           0       21.116766   -0.558463    3.175108
     17          6           0       21.631815   -1.388555    4.281483
     18          6           0       21.896046   -2.677917    3.793717
     19          6           0       21.497797   -2.672460    2.439757
     20          6           0       21.687122   -0.866011    5.659626
     21          6           0       22.504976   -3.865751    4.479425
     22          8           0       22.585329   -5.009045    3.950243
     23          6           0       23.085964   -3.822069    5.784419
     24          7           0       20.561979   -2.642523   -0.528395
     25          6           0       21.062938   -3.708113    0.154323
     26          6           0       21.129195   -4.947586   -0.648153
     27          6           0       20.502872   -4.503849   -2.018789
     28          6           0       20.339373   -3.046683   -1.800261
     29          6           0       22.443665   -5.752603   -0.868712
     30          6           0       19.193846   -5.318719   -2.475819
     31          6           0       17.757261   -4.960663   -1.991922
     32          7           0       19.852387   -0.124793   -1.614984
     33          6           0       19.623558   -0.819009   -2.767997
     34          6           0       19.069916    0.023619   -3.735813
     35          6           0       19.137434    1.326566   -3.107683
     36          6           0       19.593739    1.162631   -1.814972
     37          6           0       18.523427   -0.354847   -5.111148
     38          6           0       18.747171    2.690726   -3.320404
     39          8           0       18.156203    3.281245   -4.201534
     40          6           0       19.266763    3.464536   -2.058316
     41          6           0       20.442322    4.281505   -2.419266
     42          8           0       21.617676    4.105802   -2.029494
     43          8           0       20.180068    5.292198   -3.276463
     44          6           0       21.228102    6.337234   -3.536891
     45          1           0       21.293973    1.451921    4.128525
     46          1           0       21.986634   -4.659766    1.755677
     47          1           0       19.435506   -2.596704   -3.791085
     48          1           0       20.948512    4.504823    0.614717
     49          1           0       20.334938    3.653807    3.163098
     50          1           0       23.034330    2.831776    2.418354
     51          1           0       22.486862    3.895185    3.623947
     52          1           0       22.784948    4.537133    1.959984
     53          1           0       18.838094    4.864747    2.342549
     54          1           0       18.027842    3.783097    1.222193
     55          1           0       17.885291    5.478071   -0.353329
     56          1           0       19.336670    6.287438    0.050588
     57          1           0       21.008212   -1.503116    6.224972
     58          1           0       21.431484    0.176659    5.852646
     59          1           0       22.692590   -0.998363    6.059064
     60          1           0       23.689903   -2.915149    5.797211
     61          1           0       23.536689   -4.780125    6.040177
     62          1           0       22.333056   -3.606419    6.542568
     63          1           0       20.433975   -5.559697   -0.074361
     64          1           0       21.251407   -4.601632   -2.804186
     65          1           0       22.405018   -6.736008   -0.400099
     66          1           0       23.296656   -5.245854   -0.416095
     67          1           0       22.717002   -5.856720   -1.918672
     68          1           0       19.397736   -6.312366   -2.076257
     69          1           0       19.321098   -5.303504   -3.558364
     70          1           0       17.668484   -4.022364   -1.444979
     71          1           0       17.203658   -5.761378   -1.500710
     72          1           0       17.195386   -4.868260   -2.920436
     73          1           0       19.016766    0.197474   -5.911621
     74          1           0       17.477127   -0.051267   -5.141692
     75          1           0       18.521956   -1.424996   -5.319894
     76          1           0       18.517738    4.216507   -1.809525
     77          1           0       20.567343    7.069260   -4.001470
     78          1           0       22.044707    6.021493   -4.185338
     79          1           0       21.653543    6.674411   -2.591178
     80         12           0      -20.900574   -0.402343   -0.163673
     81          6           0      -18.534320    2.034043    0.025962
     82          6           0      -23.267127    1.701888    1.181145
     83          6           0      -23.099337   -2.975201   -0.245001
     84          6           0      -18.341318   -2.658569   -1.086392
     85          7           0      -20.835467    1.583522    0.734259
     86          6           0      -19.855747    2.460166    0.386848
     87          6           0      -20.228301    3.886417    0.611631
     88          6           0      -21.703834    3.681614    1.237637
     89          6           0      -21.980067    2.226050    1.049036
     90          6           0      -21.786216    4.105324    2.773772
     91          6           0      -20.271286    4.637426   -0.800099
     92          6           0      -20.106746    6.158757   -0.790700
     93          1           0      -20.213509    7.042385    0.477095
     94          7           0      -22.930860   -0.631771    0.283207
     95          6           0      -23.726367    0.372468    0.858672
     96          6           0      -25.041486   -0.191889    1.055302
     97          6           0      -25.015097   -1.532361    0.619643
     98          6           0      -23.649437   -1.725362    0.151729
     99          6           0      -26.207042    0.667032    1.598945
    100          6           0      -26.202314   -2.626566    0.718890
    101          8           0      -26.132404   -3.738879    0.180987
    102          6           0      -27.520806   -2.394613    1.438271
    103          7           0      -20.721338   -2.545890   -0.686229
    104          6           0      -21.795430   -3.365048   -0.586754
    105          6           0      -21.390510   -4.833388   -0.705706
    106          6           0      -19.878811   -4.707133   -1.318328
    107          6           0      -19.612494   -3.204466   -1.137538
    108          6           0      -21.576210   -5.723308    0.607372
    109          6           0      -19.717601   -4.990063   -2.897419
    110          6           0      -18.634762   -5.933174   -3.388490
    111          7           0      -18.845875   -0.394607   -0.539164
    112          6           0      -17.951325   -1.338667   -0.880260
    113          6           0      -16.609425   -0.711571   -1.093966
    114          6           0      -16.857058    0.647206   -0.785956
    115          6           0      -18.199130    0.726564   -0.340422
    116          6           0      -15.321556   -1.294005   -1.558422
    117          6           0      -16.179268    1.887914   -0.730392
    118          8           0      -14.991503    2.170848   -0.989499
    119          6           0      -17.235631    2.851294   -0.195125
    120          6           0      -16.768980    3.407596    1.054252
    121          8           0      -16.408018    2.875479    2.057088
    122          8           0      -16.919442    4.786725    0.943731
    123          6           0      -16.593707    5.728246    2.082508
    124          1           0      -24.112364    2.361828    1.385396
    125          1           0      -23.788855   -3.819595   -0.176395
    126          1           0      -17.478159   -3.320577   -1.175554
    127          1           0      -19.642881    4.533918    1.264114
    128          1           0      -22.448300    4.265686    0.696623
    129          1           0      -22.720782    4.567872    3.090318
    130          1           0      -20.903350    4.691088    3.029297
    131          1           0      -21.712530    3.181529    3.348520
    132          1           0      -21.195282    4.424594   -1.338072
    133          1           0      -19.455593    4.200672   -1.376844
    134          1           0      -20.822149    6.533100   -1.524030
    135          1           0      -19.141208    6.404146   -1.231352
    136          1           0      -25.955323    1.715378    1.758736
    137          1           0      -26.534335    0.194568    2.524505
    138          1           0      -27.027212    0.577980    0.886187
    139          1           0      -28.036304   -1.655178    0.826527
    140          1           0      -27.401376   -1.813157    2.352683
    141          1           0      -27.982865   -3.345491    1.702875
    142          1           0      -22.007909   -5.282770   -1.484424
    143          1           0      -19.187739   -5.363825   -0.789498
    144          1           0      -20.631548   -6.167809    0.921523
    145          1           0      -22.320318   -6.499226    0.431142
    146          1           0      -21.883460   -5.104194    1.450560
    147          1           0      -19.648461   -4.065181   -3.469869
    148          1           0      -20.674071   -5.394009   -3.227850
    149          1           0      -18.028399   -5.365215   -4.093214
    150          1           0      -19.033280   -6.841737   -3.839074
    151          1           0      -17.966654   -6.185212   -2.563766
    152          1           0      -15.371187   -2.342392   -1.852110
    153          1           0      -14.563700   -1.234469   -0.776832
    154          1           0      -14.976110   -0.718365   -2.416913
    155          1           0      -17.438888    3.667174   -0.889371
    156          1           0      -16.295060    5.165099    2.966954
    157          1           0      -17.488359    6.286029    2.362443
    158          1           0      -15.785829    6.359568    1.712650
 ---------------------------------------------------------------------

 SCF Done:  E(RwB97XD) =  -4070.61247431     A.U. after   19 cycles

 Excitation energies and oscillator strengths:

 Excited State   1:      Singlet-A      1.6445 eV  753.95 nm  f=0.3861  <S**2>=0.000
     310 -> 316       -0.18304
     312 -> 313        0.68253
     310 <- 316       -0.11718
 This state for optimization and/or second-order correction.
 Total Energy, E(TD-HF/TD-DFT) =  -4070.55204123
 Copying the excited state density for this state as the 1-particle RhoCI density.

 Excited State   2:      Singlet-A      1.6817 eV  737.26 nm  f=0.3940  <S**2>=0.000
     309 -> 315        0.19774
     311 -> 314        0.68059
     309 <- 315        0.11934

 Excited State   3:      Singlet-A      2.1516 eV  576.26 nm  f=0.1359  <S**2>=0.000
     310 -> 313        0.64865
     312 -> 316        0.26447

 Excited State   4:      Singlet-A      2.1739 eV  570.32 nm  f=0.0999  <S**2>=0.000
     309 -> 314        0.63668
     311 -> 315       -0.29860

 Excited State   5:      Singlet-A      3.3480 eV  370.32 nm  f=0.0040  <S**2>=0.000
     306 -> 313       -0.19042
     308 -> 313        0.65702

 The electronic state is 1-A.
 Alpha  occ. eigenvalues --  -46.95731 -46.93852 -19.29235 -19.28932 -19.24525
 Alpha  occ. eigenvalues --  -19.24207 -19.23898 -19.23243 -19.23166 -19.22970
 Alpha  occ. eigenvalues --  -14.47043 -14.46577 -14.46421 -14.46276 -14.44127
 Alpha  occ. eigenvalues --  -14.44124 -14.43981 -14.42925 -10.42484 -10.42329
 Alpha  occ. eigenvalues --  -10.40218 -10.38529 -10.38442 -10.38156 -10.35795
 Alpha  occ. eigenvalues --  -10.35724 -10.35661 -10.34974 -10.34766 -10.34670
 Alpha  occ. eigenvalues --  -10.34660 -10.34641 -10.34459 -10.34207 -10.34103
 Alpha  occ. eigenvalues --  -10.34054 -10.34038 -10.33888 -10.33723 -10.33059
 Alpha  occ. eigenvalues --  -10.32987 -10.32846 -10.32796 -10.32509 -10.32483
 Alpha  occ. eigenvalues --  -10.32383 -10.32340 -10.32328 -10.32287 -10.32242
 Alpha  occ. eigenvalues --  -10.32191 -10.32021 -10.32014 -10.31862 -10.31855
 Alpha  occ. eigenvalues --  -10.31835 -10.31680 -10.31596 -10.31427 -10.31401
 Alpha  occ. eigenvalues --  -10.31391 -10.31324 -10.31311 -10.31299 -10.31094
 Alpha  occ. eigenvalues --  -10.31060 -10.30805 -10.30786 -10.30769 -10.30747
 Alpha  occ. eigenvalues --  -10.30518 -10.30468 -10.30164 -10.30115 -10.30044
 Alpha  occ. eigenvalues --  -10.30023 -10.29955 -10.29929 -10.29914 -10.29823
 Alpha  occ. eigenvalues --  -10.29754 -10.29503 -10.29489 -10.29162 -10.28833
 Alpha  occ. eigenvalues --  -10.28627  -3.21586  -3.19979  -1.95195  -1.94689
 Alpha  occ. eigenvalues --   -1.94566  -1.93584  -1.93114  -1.92958  -1.17786
 Alpha  occ. eigenvalues --   -1.17259  -1.11731  -1.11716  -1.10593  -1.10120
 Alpha  occ. eigenvalues --   -1.09416  -1.07620  -1.07229  -1.06852  -1.06469
 Alpha  occ. eigenvalues --   -1.06087  -1.05585  -1.05222  -1.04647  -1.04254
 Alpha  occ. eigenvalues --   -0.95512  -0.95040  -0.90856  -0.90539  -0.90304
 Alpha  occ. eigenvalues --   -0.90174  -0.90128  -0.89508  -0.89431  -0.88988
 Alpha  occ. eigenvalues --   -0.88901  -0.88790  -0.88157  -0.88017  -0.86273
 Alpha  occ. eigenvalues --   -0.86251  -0.85534  -0.85351  -0.84704  -0.84313
 Alpha  occ. eigenvalues --   -0.84248  -0.83518  -0.83127  -0.82896  -0.82467
 Alpha  occ. eigenvalues --   -0.82266  -0.80493  -0.80368  -0.79402  -0.79393
 Alpha  occ. eigenvalues --   -0.79057  -0.78745  -0.78124  -0.78102  -0.77203
 Alpha  occ. eigenvalues --   -0.77103  -0.75060  -0.74603  -0.73956  -0.73286
 Alpha  occ. eigenvalues --   -0.71993  -0.71276  -0.70694  -0.70562  -0.70158
 Alpha  occ. eigenvalues --   -0.69936  -0.69075  -0.67960  -0.67248  -0.67162
 Alpha  occ. eigenvalues --   -0.67104  -0.66990  -0.66594  -0.66511  -0.66339
 Alpha  occ. eigenvalues --   -0.66245  -0.63835  -0.63445  -0.62463  -0.61928
 Alpha  occ. eigenvalues --   -0.61886  -0.61577  -0.61174  -0.61114  -0.60799
 Alpha  occ. eigenvalues --   -0.60559  -0.60435  -0.59737  -0.59695  -0.59260
 Alpha  occ. eigenvalues --   -0.58121  -0.58016  -0.57527  -0.57510  -0.57233
 Alpha  occ. eigenvalues --   -0.56844  -0.56315  -0.56141  -0.55741  -0.55701
 Alpha  occ. eigenvalues --   -0.55159  -0.54956  -0.54896  -0.54812  -0.54702
 Alpha  occ. eigenvalues --   -0.54422  -0.54348  -0.54109  -0.54076  -0.53932
 Alpha  occ. eigenvalues --   -0.53779  -0.53591  -0.53549  -0.53346  -0.52974
 Alpha  occ. eigenvalues --   -0.52764  -0.52758  -0.52479  -0.52264  -0.52061
 Alpha  occ. eigenvalues --   -0.51724  -0.51687  -0.51605  -0.51539  -0.51364
 Alpha  occ. eigenvalues --   -0.51338  -0.51064  -0.50880  -0.50815  -0.50687
 Alpha  occ. eigenvalues --   -0.50329  -0.50240  -0.50090  -0.50064  -0.49881
 Alpha  occ. eigenvalues --   -0.49803  -0.49676  -0.49548  -0.49239  -0.49144
 Alpha  occ. eigenvalues --   -0.48869  -0.48665  -0.48498  -0.48430  -0.48392
 Alpha  occ. eigenvalues --   -0.48144  -0.48132  -0.48085  -0.47890  -0.47579
 Alpha  occ. eigenvalues --   -0.47512  -0.47276  -0.47153  -0.47130  -0.47058
 Alpha  occ. eigenvalues --   -0.46671  -0.46634  -0.46267  -0.46229  -0.46145
 Alpha  occ. eigenvalues --   -0.45903  -0.45869  -0.45825  -0.45789  -0.45669
 Alpha  occ. eigenvalues --   -0.45648  -0.45321  -0.45068  -0.44808  -0.44660
 Alpha  occ. eigenvalues --   -0.44586  -0.44365  -0.44317  -0.43675  -0.43563
 Alpha  occ. eigenvalues --   -0.43491  -0.43381  -0.43297  -0.43063  -0.43003
 Alpha  occ. eigenvalues --   -0.42920  -0.42750  -0.42659  -0.42206  -0.42104
 Alpha  occ. eigenvalues --   -0.41981  -0.41649  -0.41563  -0.41338  -0.40798
 Alpha  occ. eigenvalues --   -0.40320  -0.40104  -0.39779  -0.39743  -0.39524
 Alpha  occ. eigenvalues --   -0.38819  -0.38762  -0.38568  -0.38510  -0.38359
 Alpha  occ. eigenvalues --   -0.38117  -0.37579  -0.36463  -0.36276  -0.36223
 Alpha  occ. eigenvalues --   -0.35420  -0.35405  -0.34729  -0.33384  -0.33185
 Alpha  occ. eigenvalues --   -0.33132  -0.33017  -0.32518  -0.32359  -0.32225
 Alpha  occ. eigenvalues --   -0.32129  -0.31898  -0.31458  -0.25749  -0.25524
 Alpha  occ. eigenvalues --   -0.22935  -0.22887
 Alpha virt. eigenvalues --   -0.07016  -0.06860   0.00194   0.00639   0.02043
 Alpha virt. eigenvalues --    0.02780   0.04444   0.04489   0.05827   0.06663
 Alpha virt. eigenvalues --    0.07322   0.07521   0.08014   0.08117   0.08370

 Mulliken charges:
               1
     1  Mg   0.984130
     2  C   -0.026385
     3  C   -0.065004
     4  C   -0.072298
     5  C   -0.099284
     6  N   -0.335690
     7  C   -0.019241
     8  C   -0.045986
     9  C   -0.130677
    10  C    0.025572
    11  C    0.037442
    12  C    0.055325
    13  C   -0.144190
    14  H    0.038450
    15  N   -0.481708
    16  C    0.183275
    17  C   -0.191677
    18  C   -0.022523
    19  C    0.131705
    20  C    0.056955
    21  C    0.038572
    22  O   -0.281148
    23  C    0.024375
    24  N   -0.375049
    25  C    0.076324
    26  C   -0.094242
    27  C   -0.055049
    28  C    0.063538
    29  C    0.027629
    30  C   -0.032288
    31  C   -0.043707
    32  N   -0.452904
    33  C    0.130719
    34  C   -0.169494
    35  C   -0.056348
    36  C    0.215883
    37  C    0.092251
    38  C    0.091612
    39  O   -0.190059
    40  C   -0.123870
    41  C    0.263167
    42  O   -0.290800
    43  O   -0.356961
    44  C    0.146664
    45  H   -0.009058
    46  H    0.021557
    47  H   -0.013520
    48  H    0.038377
    49  H    0.026781
    50  H    0.047584
    51  H    0.032115
    52  H    0.052264
    53  H    0.035798
    54  H    0.047054
    55  H    0.065182
    56  H    0.052627
    57  H    0.057281
    58  H    0.043325
    59  H    0.035603
    60  H    0.042656
    61  H    0.066617
    62  H    0.043788
    63  H    0.047309
    64  H    0.036158
    65  H    0.044649
    66  H    0.039186
    67  H    0.036212
    68  H    0.035228
    69  H    0.040145
    70  H    0.056377
    71  H    0.040436
    72  H    0.028998
    73  H    0.060696
    74  H    0.053825
    75  H    0.024485
    76  H    0.056548
    77  H    0.066046
    78  H    0.067002
    79  H    0.053664
    80  Mg   0.950970
    81  C   -0.080487
    82  C   -0.065223
    83  C   -0.054655
    84  C   -0.099720
    85  N   -0.357722
    86  C    0.029602
    87  C   -0.079524
    88  C   -0.109768
    89  C    0.090082
    90  C    0.022803
    91  C   -0.013500
    92  C   -0.098893
    93  H    0.035605
    94  N   -0.438861
    95  C    0.108794
    96  C   -0.179336
    97  C   -0.083539
    98  C    0.122329
    99  C    0.062472
   100  C    0.076004
   101  O   -0.249657
   102  C    0.010409
   103  N   -0.332139
   104  C    0.030923
   105  C   -0.062534
   106  C   -0.122943
   107  C    0.110938
   108  C    0.017307
   109  C   -0.023477
   110  C   -0.037694
   111  N   -0.390743
   112  C    0.092628
   113  C   -0.157296
   114  C   -0.058345
   115  C    0.195218
   116  C    0.082447
   117  C    0.129119
   118  O   -0.229513
   119  C   -0.055387
   120  C    0.260464
   121  O   -0.202728
   122  O   -0.416602
   123  C    0.130321
   124  H   -0.007829
   125  H    0.015254
   126  H    0.000064
   127  H    0.042230
   128  H    0.032267
   129  H    0.044441
   130  H    0.032988
   131  H    0.038521
   132  H    0.033238
   133  H    0.032463
   134  H    0.043001
   135  H    0.053482
   136  H    0.042704
   137  H    0.051369
   138  H    0.048445
   139  H    0.054881
   140  H    0.026298
   141  H    0.075597
   142  H    0.037500
   143  H    0.035304
   144  H    0.033684
   145  H    0.050446
   146  H    0.045464
   147  H    0.038406
   148  H    0.020849
   149  H    0.037118
   150  H    0.048336
   151  H    0.024419
   152  H    0.023627
   153  H    0.065350
   154  H    0.063762
   155  H    0.069668
   156  H    0.065920
   157  H    0.053338
   158  H    0.069244
 Sum of Mulliken charges =  -0.00000

 Dipole moment (field-independent basis, Debye):
    X=             -3.3534    Y=              1.5420    Z=              2.9048  Tot=              4.6970
 Quadrupole moment (field-independent basis, Debye-Ang):
   XX=           -367.3911   YY=           -472.1823   ZZ=           -491.7649
   XY=            -39.7733   XZ=             44.7040   YZ=             35.1454

 Normal termination of Gaussian 16 at Sat Sep 18 20:10:45 2021.
