 Gaussian 16, Revision A.03,
 Gaussian 16:  ES64L-G16RevA.03 25-Dec-2016

 --------------------------------
 #p wB97XD/Def2SVP td=(nstates=5)
 --------------------------------

 --------------------------------
 TDDFT excited states in gaussian
 --------------------------------
 Symbolic Z-matrix:
 Charge =  0 Multiplicity = 1

                         Standard orientation:
 ---------------------------------------------------------------------
 Center     Atomic      Atomic             Coordinates (Angstroms)
 Number     Number       Type             X           Y           Z
 ---------------------------------------------------------------------
      1         12           0      -16.471216   -0.755499   -0.142955
      2          6           0      -18.849279    1.731754    0.842239
      3          6           0      -14.719978    1.739581   -1.676189
      4          6           0      -14.606375   -2.988256   -1.405407
      5          6           0      -18.936595   -3.142270    0.466052
      6          7           0      -16.838980    1.420075   -0.322604
      7          6           0      -17.755497    2.258180    0.151471
      8          6           0      -17.405521    3.757127   -0.089462
      9          6           0      -16.434528    3.590571   -1.343029
     10          6           0      -15.939790    2.178977   -1.081191
     11          6           0      -17.160996    3.615612   -2.683969
     12          6           0      -16.661479    4.397445    1.130425
     13          6           0      -16.574508    5.926335    1.113541
     14          1           0      -16.657111    6.646429    2.375281
     15          7           0      -14.666415   -0.619989   -0.934902
     16          6           0      -14.110240    0.478662   -1.499633
     17          6           0      -12.758349    0.071075   -1.938887
     18          6           0      -12.645053   -1.402469   -1.754700
     19          6           0      -13.994458   -1.737305   -1.377382
     20          6           0      -11.722509    1.040191   -2.420137
     21          6           0      -11.504589   -2.358736   -1.906446
     22          8           0      -11.676790   -3.625475   -1.923596
     23          6           0      -10.173638   -1.764295   -2.126111
     24          7           0      -16.791124   -2.756781   -0.643118
     25          6           0      -15.798753   -3.515858   -1.120595
     26          6           0      -16.180586   -4.966322   -1.137800
     27          6           0      -17.560673   -5.069617   -0.341280
     28          6           0      -17.784210   -3.563209   -0.060150
     29          6           0      -16.344401   -5.598822   -2.526728
     30          6           0      -17.612339   -6.057989    0.850723
     31          6           0      -16.711430   -5.568704    1.962505
     32          7           0      -18.471571   -0.761659    0.699417
     33          6           0      -19.325611   -1.865608    0.835747
     34          6           0      -20.608231   -1.357812    1.356417
     35          6           0      -20.415451    0.017450    1.471895
     36          6           0      -19.104909    0.351153    1.025335
     37          6           0      -21.774255   -2.135246    1.602219
     38          6           0      -21.020171    1.285765    1.845453
     39          8           0      -22.078956    1.617341    2.380734
     40          6           0      -20.073006    2.461127    1.338273
     41          6           0      -19.901126    3.429606    2.476612
     42          8           0      -19.285363    3.098912    3.510460
     43          8           0      -20.275994    4.654899    2.078273
     44          6           0      -20.102526    5.669444    3.151940
     45          1           0      -14.213937    2.394689   -2.388016
     46          1           0      -13.958746   -3.805060   -1.730745
     47          1           0      -19.723568   -3.839119    0.760212
     48          1           0      -18.255469    4.384856   -0.357730
     49          1           0      -15.603858    4.295321   -1.310826
     50          1           0      -18.242783    3.614371   -2.551094
     51          1           0      -16.840468    2.713545   -3.205535
     52          1           0      -16.819131    4.452014   -3.294164
     53          1           0      -15.601264    4.150680    1.074633
     54          1           0      -17.109871    4.072196    2.069831
     55          1           0      -17.259861    6.356490    0.382674
     56          1           0      -15.584408    6.208168    0.755111
     57          1           0      -12.149813    2.025465   -2.602322
     58          1           0      -11.399015    0.698424   -3.403120
     59          1           0      -10.865444    1.091944   -1.748502
     60          1           0      -10.196682   -1.153965   -3.029170
     61          1           0       -9.468937   -2.595098   -2.122528
     62          1           0       -9.949961   -1.085265   -1.302802
     63          1           0      -15.430620   -5.574138   -0.633285
     64          1           0      -18.381719   -5.386201   -0.984966
     65          1           0      -15.709185   -6.469988   -2.688825
     66          1           0      -16.149949   -4.828802   -3.272750
     67          1           0      -17.363369   -5.891840   -2.778245
     68          1           0      -17.244348   -7.037514    0.547309
     69          1           0      -18.615450   -6.191482    1.255939
     70          1           0      -15.731451   -5.937621    1.661883
     71          1           0      -17.015471   -6.000817    2.916470
     72          1           0      -16.657973   -4.480006    1.981570
     73          1           0      -22.169829   -1.797378    2.559995
     74          1           0      -21.543214   -3.200052    1.622485
     75          1           0      -22.386842   -1.857129    0.744755
     76          1           0      -20.570767    2.918133    0.483580
     77          1           0      -21.069794    6.150195    3.298584
     78          1           0      -19.265022    6.299046    2.850954
     79          1           0      -19.910698    5.283242    4.153633
     80         12           0       17.156652   -0.547931    0.350563
     81          6           0       16.265648    2.471440   -1.200106
     82          6           0       19.029894    1.071180    2.584607
     83          6           0       17.929015   -3.434508    1.593444
     84          6           0       15.976311   -2.149592   -2.671052
     85          7           0       17.648685    1.540375    0.548465
     86          6           0       17.083374    2.604346   -0.035659
     87          6           0       17.675544    3.899332    0.457474
     88          6           0       18.859217    3.401185    1.380257
     89          6           0       18.500864    1.936004    1.536534
     90          6           0       20.327775    3.618556    0.890728
     91          6           0       16.598461    4.713742    1.340684
     92          6           0       16.487019    6.223688    0.949030
     93          1           0       15.191929    6.924015    1.633626
     94          7           0       18.083478   -1.072829    1.976805
     95          6           0       18.790305   -0.254822    2.841687
     96          6           0       19.114033   -1.010349    4.020433
     97          6           0       18.776249   -2.410412    3.814640
     98          6           0       18.119374   -2.371783    2.452152
     99          6           0       19.885772   -0.308464    5.174606
    100          6           0       18.909701   -3.697153    4.621116
    101          8           0       18.468940   -4.816647    4.303745
    102          6           0       19.547532   -3.476131    5.946876
    103          7           0       17.089671   -2.447752   -0.554079
    104          6           0       17.504311   -3.474700    0.257520
    105          6           0       17.481485   -4.807454   -0.491759
    106          6           0       16.580402   -4.458788   -1.705383
    107          6           0       16.583372   -2.928856   -1.703039
    108          6           0       18.958155   -5.302030   -0.760057
    109          6           0       15.109455   -5.055497   -1.676712
    110          6           0       14.406858   -5.229912   -3.032639
    111          7           0       16.256305   -0.005092   -1.553366
    112          6           0       15.857535   -0.761018   -2.613819
    113          6           0       15.184594    0.045500   -3.607286
    114          6           0       15.274798    1.323420   -3.025731
    115          6           0       15.984344    1.259019   -1.818003
    116          6           0       14.520888   -0.311803   -4.957107
    117          6           0       14.892411    2.692872   -3.229087
    118          8           0       14.153996    3.238951   -4.006344
    119          6           0       15.691773    3.522308   -2.095639
    120          6           0       14.645487    4.443352   -1.643930
    121          8           0       13.721878    4.246834   -0.814246
    122          8           0       14.865114    5.579283   -2.328239
    123          6           0       13.946317    6.700031   -2.123810
    124          1           0       19.570532    1.598725    3.373375
    125          1           0       18.119322   -4.412109    2.041696
    126          1           0       15.551471   -2.695201   -3.516200
    127          1           0       18.002812    4.587154   -0.322698
    128          1           0       18.861698    3.780323    2.402366
    129          1           0       20.742299    2.641014    0.644453
    130          1           0       20.850983    4.040820    1.748482
    131          1           0       20.499612    4.240323    0.012803
    132          1           0       16.720026    4.644791    2.422333
    133          1           0       15.654789    4.178729    1.233588
    134          1           0       16.401384    6.333067   -0.131886
    135          1           0       17.305236    6.854677    1.295288
    136          1           0       19.151358    0.112881    5.859668
    137          1           0       20.369922    0.621965    4.875421
    138          1           0       20.729775   -0.846110    5.606057
    139          1           0       19.002809   -2.801396    6.606316
    140          1           0       20.536536   -3.114554    5.662757
    141          1           0       19.725923   -4.395041    6.506054
    142          1           0       17.003444   -5.509998    0.191018
    143          1           0       17.027403   -4.866667   -2.611938
    144          1           0       19.208314   -5.186804   -1.814612
    145          1           0       19.211062   -6.338776   -0.539542
    146          1           0       19.759950   -4.724640   -0.299316
    147          1           0       14.541991   -4.263574   -1.187142
    148          1           0       14.955726   -5.994993   -1.145412
    149          1           0       13.544568   -4.570008   -3.136421
    150          1           0       14.037404   -6.215322   -3.317229
    151          1           0       15.112024   -4.850339   -3.770744
    152          1           0       15.005648   -1.229823   -5.289300
    153          1           0       14.657385    0.488214   -5.685938
    154          1           0       13.471016   -0.506492   -4.738346
    155          1           0       16.482092    4.110287   -2.562640
    156          1           0       14.477921    7.488906   -1.591955
    157          1           0       13.003541    6.384891   -1.677910
    158          1           0       13.726657    7.139829   -3.096576
 ---------------------------------------------------------------------

 SCF Done:  E(RwB97XD) =  -4070.60581337     A.U. after   19 cycles

 Excitation energies and oscillator strengths:

 Excited State   1:      Singlet-A      1.6217 eV  764.55 nm  f=0.3891  <S**2>=0.000
     310 -> 316        0.18178
     312 -> 313        0.68307
     310 <- 316        0.11453
 This state for optimization and/or second-order correction.
 Total Energy, E(TD-HF/TD-DFT) =  -4070.54621803
 Copying the excited state density for this state as the 1-particle RhoCI density.

 Excited State   2:      Singlet-A      1.6708 eV  742.05 nm  f=0.3758  <S**2>=0.000
     309 -> 315        0.20296
     311 -> 314        0.67857
     309 <- 315        0.11998

 Excited State   3:      Singlet-A      2.1387 eV  579.71 nm  f=0.0944  <S**2>=0.000
     310 -> 313        0.63830
     312 -> 316       -0.28207

 Excited State   4:      Singlet-A      2.1931 eV  565.33 nm  f=0.0611  <S**2>=0.000
     309 -> 314        0.61591
     311 -> 315       -0.33610

 Excited State   5:      Singlet-A      3.3009 eV  375.61 nm  f=0.0078  <S**2>=0.000
     307 -> 313       -0.44199
     308 -> 313        0.48803
     312 -> 316       -0.17180

 The electronic state is 1-A.
 Alpha  occ. eigenvalues --  -46.94063 -46.93948 -19.31440 -19.30117 -19.24756
 Alpha  occ. eigenvalues --  -19.24098 -19.23932 -19.23816 -19.23436 -19.23162
 Alpha  occ. eigenvalues --  -14.47212 -14.46981 -14.46337 -14.45987 -14.44122
 Alpha  occ. eigenvalues --  -14.43958 -14.43096 -14.43022 -10.42877 -10.42456
 Alpha  occ. eigenvalues --  -10.40013 -10.39361 -10.38691 -10.38350 -10.35787
 Alpha  occ. eigenvalues --  -10.35390 -10.35375 -10.35225 -10.34850 -10.34844
 Alpha  occ. eigenvalues --  -10.34778 -10.34697 -10.34549 -10.34482 -10.34280
 Alpha  occ. eigenvalues --  -10.34277 -10.34179 -10.34132 -10.33834 -10.33765
 Alpha  occ. eigenvalues --  -10.33490 -10.33249 -10.33179 -10.32820 -10.32752
 Alpha  occ. eigenvalues --  -10.32718 -10.32443 -10.32403 -10.32268 -10.32083
 Alpha  occ. eigenvalues --  -10.32018 -10.31911 -10.31821 -10.31804 -10.31799
 Alpha  occ. eigenvalues --  -10.31780 -10.31726 -10.31708 -10.31676 -10.31645
 Alpha  occ. eigenvalues --  -10.31489 -10.31448 -10.31413 -10.31364 -10.31357
 Alpha  occ. eigenvalues --  -10.31129 -10.30793 -10.30571 -10.30549 -10.30381
 Alpha  occ. eigenvalues --  -10.30379 -10.30288 -10.30199 -10.30023 -10.30009
 Alpha  occ. eigenvalues --  -10.29954 -10.29930 -10.29894 -10.29751 -10.29620
 Alpha  occ. eigenvalues --  -10.29215 -10.29212 -10.28804 -10.28742 -10.28507
 Alpha  occ. eigenvalues --  -10.28416  -3.20222  -3.20191  -1.93799  -1.93773
 Alpha  occ. eigenvalues --   -1.93365  -1.93335  -1.93202  -1.93180  -1.18764
 Alpha  occ. eigenvalues --   -1.18150  -1.13034  -1.11652  -1.10791  -1.09363
 Alpha  occ. eigenvalues --   -1.08775  -1.07752  -1.07227  -1.06505  -1.06338
 Alpha  occ. eigenvalues --   -1.05706  -1.05639  -1.05194  -1.04496  -1.04372
 Alpha  occ. eigenvalues --   -0.94720  -0.93864  -0.91348  -0.91084  -0.90985
 Alpha  occ. eigenvalues --   -0.90151  -0.90107  -0.89920  -0.89727  -0.89526
 Alpha  occ. eigenvalues --   -0.89401  -0.89161  -0.88957  -0.88241  -0.86812
 Alpha  occ. eigenvalues --   -0.86481  -0.85759  -0.85752  -0.84826  -0.84496
 Alpha  occ. eigenvalues --   -0.84414  -0.84194  -0.83459  -0.83260  -0.82489
 Alpha  occ. eigenvalues --   -0.82271  -0.80704  -0.80211  -0.79261  -0.79076
 Alpha  occ. eigenvalues --   -0.78855  -0.78785  -0.77879  -0.77791  -0.77346
 Alpha  occ. eigenvalues --   -0.76749  -0.74800  -0.74687  -0.74141  -0.73565
 Alpha  occ. eigenvalues --   -0.71734  -0.71249  -0.70765  -0.70742  -0.69877
 Alpha  occ. eigenvalues --   -0.69581  -0.69225  -0.69106  -0.68017  -0.67488
 Alpha  occ. eigenvalues --   -0.67155  -0.66906  -0.66774  -0.66528  -0.66465
 Alpha  occ. eigenvalues --   -0.66161  -0.64217  -0.63787  -0.62368  -0.62288
 Alpha  occ. eigenvalues --   -0.61820  -0.61693  -0.61172  -0.60907  -0.60646
 Alpha  occ. eigenvalues --   -0.60428  -0.60014  -0.59483  -0.59204  -0.59138
 Alpha  occ. eigenvalues --   -0.58349  -0.58227  -0.57877  -0.57795  -0.57468
 Alpha  occ. eigenvalues --   -0.57427  -0.57199  -0.56404  -0.56315  -0.55868
 Alpha  occ. eigenvalues --   -0.55748  -0.55406  -0.55202  -0.55176  -0.55096
 Alpha  occ. eigenvalues --   -0.54810  -0.54785  -0.54610  -0.54517  -0.54259
 Alpha  occ. eigenvalues --   -0.54176  -0.53771  -0.53548  -0.53463  -0.53364
 Alpha  occ. eigenvalues --   -0.53066  -0.53007  -0.52704  -0.52461  -0.52339
 Alpha  occ. eigenvalues --   -0.52146  -0.51973  -0.51876  -0.51810  -0.51388
 Alpha  occ. eigenvalues --   -0.51382  -0.51105  -0.51042  -0.50951  -0.50871
 Alpha  occ. eigenvalues --   -0.50450  -0.50428  -0.50352  -0.50320  -0.50110
 Alpha  occ. eigenvalues --   -0.49957  -0.49553  -0.49341  -0.49215  -0.49175
 Alpha  occ. eigenvalues --   -0.48839  -0.48631  -0.48436  -0.48410  -0.48285
 Alpha  occ. eigenvalues --   -0.48248  -0.48039  -0.47867  -0.47675  -0.47673
 Alpha  occ. eigenvalues --   -0.47484  -0.47092  -0.47040  -0.46880  -0.46438
 Alpha  occ. eigenvalues --   -0.46346  -0.45987  -0.45986  -0.45931  -0.45872
 Alpha  occ. eigenvalues --   -0.45714  -0.45530  -0.45440  -0.45315  -0.45260
 Alpha  occ. eigenvalues --   -0.45038  -0.44898  -0.44836  -0.44807  -0.44620
 Alpha  occ. eigenvalues --   -0.44597  -0.44498  -0.44190  -0.44050  -0.43902
 Alpha  occ. eigenvalues --   -0.43852  -0.43646  -0.43363  -0.43282  -0.43184
 Alpha  occ. eigenvalues --   -0.42964  -0.42791  -0.42732  -0.42675  -0.42487
 Alpha  occ. eigenvalues --   -0.42389  -0.42227  -0.42057  -0.41528  -0.41320
 Alpha  occ. eigenvalues --   -0.40750  -0.40298  -0.39795  -0.39624  -0.39488
 Alpha  occ. eigenvalues --   -0.39293  -0.39125  -0.38973  -0.38650  -0.38125
 Alpha  occ. eigenvalues --   -0.37547  -0.37248  -0.36220  -0.36181  -0.36000
 Alpha  occ. eigenvalues --   -0.35719  -0.35282  -0.34989  -0.33744  -0.33528
 Alpha  occ. eigenvalues --   -0.33289  -0.33119  -0.32647  -0.32491  -0.31942
 Alpha  occ. eigenvalues --   -0.31800  -0.31553  -0.31417  -0.26144  -0.25942
 Alpha  occ. eigenvalues --   -0.22958  -0.22860
 Alpha virt. eigenvalues --   -0.07042  -0.06813  -0.00421   0.00243   0.01726
 Alpha virt. eigenvalues --    0.02050   0.04373   0.04534   0.06191   0.06328
 Alpha virt. eigenvalues --    0.07165   0.07316   0.07342   0.07574   0.08212

 Mulliken charges:
               1
     1  Mg   0.978290
     2  C   -0.019932
     3  C   -0.101248
     4  C   -0.061241
     5  C   -0.071070
     6  N   -0.323240
     7  C   -0.008684
     8  C   -0.058010
     9  C   -0.138248
    10  C    0.061943
    11  C    0.058298
    12  C    0.014057
    13  C   -0.126933
    14  H    0.052351
    15  N   -0.518343
    16  C    0.183475
    17  C   -0.195973
    18  C   -0.036999
    19  C    0.166725
    20  C    0.060793
    21  C    0.056695
    22  O   -0.280024
    23  C    0.001763
    24  N   -0.409985
    25  C    0.066008
    26  C   -0.084822
    27  C   -0.063961
    28  C    0.089732
    29  C    0.031886
    30  C   -0.016703
    31  C   -0.058092
    32  N   -0.398669
    33  C    0.097302
    34  C   -0.188040
    35  C   -0.040090
    36  C    0.126159
    37  C    0.081467
    38  C    0.128845
    39  O   -0.224849
    40  C   -0.076873
    41  C    0.275780
    42  O   -0.284575
    43  O   -0.335612
    44  C    0.120646
    45  H    0.007934
    46  H    0.010698
    47  H   -0.017413
    48  H    0.025966
    49  H    0.022665
    50  H    0.047075
    51  H    0.037801
    52  H    0.040102
    53  H    0.035427
    54  H    0.067680
    55  H    0.038913
    56  H    0.040666
    57  H    0.029690
    58  H    0.049043
    59  H    0.062271
    60  H    0.057841
    61  H    0.061935
    62  H    0.053111
    63  H    0.042962
    64  H    0.035623
    65  H    0.045324
    66  H    0.034335
    67  H    0.025662
    68  H    0.032581
    69  H    0.029362
    70  H    0.029228
    71  H    0.042154
    72  H    0.049682
    73  H    0.070844
    74  H    0.031358
    75  H    0.069350
    76  H    0.065828
    77  H    0.061218
    78  H    0.062825
    79  H    0.070258
    80  Mg   0.994386
    81  C    0.048486
    82  C   -0.082905
    83  C   -0.068742
    84  C   -0.108814
    85  N   -0.341581
    86  C    0.046056
    87  C   -0.121722
    88  C   -0.075794
    89  C    0.029352
    90  C    0.026868
    91  C    0.023953
    92  C   -0.140364
    93  H    0.018636
    94  N   -0.559269
    95  C    0.189723
    96  C   -0.126401
    97  C   -0.130532
    98  C    0.181240
    99  C    0.043800
   100  C    0.089203
   101  O   -0.240663
   102  C   -0.020701
   103  N   -0.364045
   104  C    0.073105
   105  C   -0.083655
   106  C   -0.059593
   107  C    0.063239
   108  C    0.017210
   109  C   -0.011453
   110  C   -0.064817
   111  N   -0.360324
   112  C    0.130793
   113  C   -0.202702
   114  C   -0.018017
   115  C    0.092149
   116  C    0.097830
   117  C    0.101656
   118  O   -0.185197
   119  C   -0.133308
   120  C    0.263553
   121  O   -0.285067
   122  O   -0.350108
   123  C    0.138345
   124  H   -0.014446
   125  H    0.026633
   126  H   -0.019371
   127  H    0.037170
   128  H    0.028920
   129  H    0.042225
   130  H    0.037607
   131  H    0.042998
   132  H    0.031571
   133  H    0.058125
   134  H    0.053249
   135  H    0.056625
   136  H    0.054103
   137  H    0.028132
   138  H    0.054204
   139  H    0.074564
   140  H    0.050187
   141  H    0.047533
   142  H    0.043314
   143  H    0.027341
   144  H    0.021192
   145  H    0.044029
   146  H    0.041031
   147  H    0.036395
   148  H    0.043340
   149  H    0.035168
   150  H    0.044674
   151  H    0.027540
   152  H    0.034236
   153  H    0.066222
   154  H    0.064379
   155  H    0.073462
   156  H    0.048563
   157  H    0.075896
   158  H    0.049377
 Sum of Mulliken charges =  -0.00000

 Dipole moment (field-independent basis, Debye):
    X=              7.4622    Y=              2.2886    Z=             -1.5966  Tot=              7.9669
 Quadrupole moment (field-independent basis, Debye-Ang):
   XX=           -461.1523   YY=           -469.3386   ZZ=           -509.0195
   XY=             18.8753   XZ=             99.2174   YZ=             11.3232

 Normal termination of Gaussian 16 at Sun Sep 19 09:25:45 2021.
