 Gaussian 16, Revision A.03,
 Gaussian 16:  ES64L-G16RevA.03 25-Dec-2016

 --------------------------------
 #p wB97XD/Def2SVP td=(nstates=5)
 --------------------------------

 --------------------------------
 TDDFT excited states in gaussian
 --------------------------------
 Symbolic Z-matrix:
 Charge =  0 Multiplicity = 1

                         Standard orientation:
 ---------------------------------------------------------------------
 Center     Atomic      Atomic             Coordinates (Angstroms)
 Number     Number       Type             X           Y           Z
 ---------------------------------------------------------------------
      1         12           0       21.060162   -0.649566    0.382359
      2          6           0       19.976006    1.829793   -1.705539
      3          6           0       22.203928    1.585454    2.572973
      4          6           0       22.220407   -3.150672    2.120416
      5          6           0       20.349917   -2.903340   -2.285713
      6          7           0       21.245918    1.512597    0.357484
      7          6           0       20.495085    2.285832   -0.466151
      8          6           0       20.324878    3.679574    0.073466
      9          6           0       21.302061    3.637948    1.316113
     10          6           0       21.689008    2.177077    1.395528
     11          6           0       22.493509    4.622195    1.234432
     12          6           0       18.760513    4.108883    0.366460
     13          6           0       18.267938    5.475040   -0.134770
     14          1           0       19.349647    6.578819   -0.354938
     15          7           0       21.879578   -0.771555    2.115799
     16          6           0       22.309849    0.232870    2.923077
     17          6           0       23.024054   -0.237005    4.085126
     18          6           0       22.858096   -1.588967    4.070963
     19          6           0       22.406339   -1.887830    2.676533
     20          6           0       23.735446    0.804144    4.929817
     21          6           0       23.262667   -2.623720    5.139714
     22          8           0       23.128911   -3.818404    5.011027
     23          6           0       23.883069   -2.020387    6.365140
     24          7           0       21.398685   -2.716444   -0.136181
     25          6           0       21.784325   -3.534784    0.859392
     26          6           0       21.737784   -4.999332    0.412534
     27          6           0       20.844281   -4.943857   -0.872902
     28          6           0       20.875226   -3.427003   -1.151192
     29          6           0       23.110894   -5.764289    0.186392
     30          6           0       19.350722   -5.416304   -0.707978
     31          6           0       18.395464   -4.777213    0.265309
     32          7           0       20.239222   -0.660580   -1.581622
     33          6           0       20.086158   -1.612975   -2.594371
     34          6           0       19.514736   -1.021731   -3.811040
     35          6           0       19.443931    0.344886   -3.501876
     36          6           0       19.892717    0.469713   -2.149393
     37          6           0       19.055328   -1.721309   -5.064459
     38          6           0       19.107031    1.608469   -3.976312
     39          8           0       18.714055    2.016559   -5.058038
     40          6           0       19.206597    2.587811   -2.778175
     41          6           0       19.943475    3.732190   -3.361698
     42          8           0       21.163651    3.784396   -3.533950
     43          8           0       19.085689    4.698900   -3.800311
     44          6           0       19.587294    5.767348   -4.670323
     45          1           0       22.388055    2.332062    3.348588
     46          1           0       22.536178   -4.040971    2.666889
     47          1           0       20.144169   -3.708011   -2.995737
     48          1           0       20.768568    4.410195   -0.602958
     49          1           0       20.727335    3.833053    2.221239
     50          1           0       23.392800    4.065424    0.971312
     51          1           0       22.642666    5.065495    2.218994
     52          1           0       22.241274    5.349317    0.462476
     53          1           0       18.664170    4.069930    1.451564
     54          1           0       18.077004    3.399767   -0.099450
     55          1           0       17.621006    5.937887    0.609976
     56          1           0       17.639087    5.339914   -1.014681
     57          1           0       24.514903    1.365549    4.414437
     58          1           0       24.387954    0.500172    5.748094
     59          1           0       22.887697    1.381907    5.298126
     60          1           0       23.216982   -1.281201    6.809521
     61          1           0       24.839039   -1.667981    5.978355
     62          1           0       24.070330   -2.658504    7.228022
     63          1           0       21.261957   -5.473906    1.271451
     64          1           0       21.376197   -5.434526   -1.688318
     65          1           0       23.940250   -5.093087    0.408156
     66          1           0       23.256140   -5.992554   -0.868829
     67          1           0       23.238510   -6.704735    0.724630
     68          1           0       19.522139   -6.465411   -0.465603
     69          1           0       18.796992   -5.364445   -1.644876
     70          1           0       18.940764   -4.088338    0.911767
     71          1           0       17.952798   -5.530683    0.916616
     72          1           0       17.608027   -4.157162   -0.162688
     73          1           0       19.726017   -1.550506   -5.905375
     74          1           0       18.048880   -1.391303   -5.322425
     75          1           0       19.149323   -2.775514   -4.802648
     76          1           0       18.225980    2.830111   -2.368151
     77          1           0       18.802269    6.189134   -5.299075
     78          1           0       20.499638    5.476729   -5.188910
     79          1           0       19.984700    6.612177   -4.108096
     80         12           0      -21.345076   -0.557181   -0.265293
     81          6           0      -19.094961    2.071705    0.374169
     82          6           0      -23.877659    1.497246    0.941334
     83          6           0      -23.369005   -3.171134   -0.579193
     84          6           0      -18.551121   -2.780377   -0.641722
     85          7           0      -21.465984    1.504508    0.573553
     86          6           0      -20.409097    2.424813    0.612312
     87          6           0      -20.975237    3.827214    0.736956
     88          6           0      -22.448404    3.627614    1.193736
     89          6           0      -22.614603    2.110430    0.878504
     90          6           0      -22.790417    4.074809    2.649683
     91          6           0      -20.812417    4.715100   -0.545207
     92          6           0      -20.652155    6.270370   -0.244915
     93          1           0      -20.727337    6.728195    1.214109
     94          7           0      -23.302369   -0.750225   -0.001580
     95          6           0      -24.191435    0.221307    0.424844
     96          6           0      -25.540605   -0.262007    0.362604
     97          6           0      -25.423002   -1.653660    0.047864
     98          6           0      -24.015547   -1.884449   -0.224568
     99          6           0      -26.783479    0.589864    0.763580
    100          6           0      -26.493492   -2.693930   -0.009047
    101          8           0      -26.219095   -3.910022   -0.146174
    102          6           0      -28.032435   -2.530979    0.163112
    103          7           0      -21.025361   -2.720235   -0.296798
    104          6           0      -22.039282   -3.572542   -0.538508
    105          6           0      -21.492879   -4.958010   -0.965810
    106          6           0      -19.963722   -4.851039   -0.966469
    107          6           0      -19.833000   -3.295862   -0.651133
    108          6           0      -22.118333   -6.071196   -0.181856
    109          6           0      -19.227789   -5.285728   -2.252076
    110          6           0      -19.623982   -4.514042   -3.534930
    111          7           0      -19.214925   -0.462698   -0.106996
    112          6           0      -18.276310   -1.379668   -0.438583
    113          6           0      -16.998845   -0.670588   -0.493264
    114          6           0      -17.220944    0.706626   -0.212368
    115          6           0      -18.605794    0.787954    0.072210
    116          6           0      -15.664329   -1.272266   -0.925641
    117          6           0      -16.609471    1.989875   -0.075221
    118          8           0      -15.482075    2.424905   -0.294527
    119          6           0      -17.860982    2.979296    0.400380
    120          6           0      -17.474989    3.688251    1.684916
    121          8           0      -17.542964    3.173306    2.783743
    122          8           0      -17.143841    5.001478    1.439468
    123          6           0      -16.389874    5.739788    2.447429
    124          1           0      -24.604189    2.264685    1.215699
    125          1           0      -24.092608   -3.967922   -0.761992
    126          1           0      -17.762772   -3.490321   -0.899301
    127          1           0      -20.439418    4.363069    1.520312
    128          1           0      -23.072921    4.193133    0.502768
    129          1           0      -23.204197    3.163799    3.080752
    130          1           0      -23.601199    4.804314    2.647649
    131          1           0      -21.996820    4.429156    3.307473
    132          1           0      -21.702859    4.676398   -1.171908
    133          1           0      -19.980373    4.327522   -1.131669
    134          1           0      -21.512458    6.774694   -0.685232
    135          1           0      -19.709963    6.588960   -0.690204
    136          1           0      -27.478881   -0.070126    1.283601
    137          1           0      -27.313495    0.990074   -0.100062
    138          1           0      -26.683722    1.483806    1.379040
    139          1           0      -28.423144   -1.800097   -0.545450
    140          1           0      -28.314065   -2.281580    1.186104
    141          1           0      -28.618395   -3.358205   -0.235694
    142          1           0      -21.927996   -5.149504   -1.945839
    143          1           0      -19.654471   -5.324267   -0.033858
    144          1           0      -22.893051   -6.598124   -0.739179
    145          1           0      -22.501665   -5.689009    0.764373
    146          1           0      -21.414245   -6.835692    0.148521
    147          1           0      -19.537363   -6.323909   -2.373989
    148          1           0      -18.148818   -5.238578   -2.101811
    149          1           0      -18.701737   -4.049992   -3.883949
    150          1           0      -20.367759   -3.774270   -3.238768
    151          1           0      -20.127216   -5.121258   -4.287516
    152          1           0      -15.104345   -0.615619   -1.590867
    153          1           0      -15.807644   -2.158498   -1.543161
    154          1           0      -15.125696   -1.578372   -0.028408
    155          1           0      -17.914395    3.734628   -0.384077
    156          1           0      -16.798156    5.446382    3.414906
    157          1           0      -16.468412    6.824570    2.374615
    158          1           0      -15.345513    5.477837    2.277565
 ---------------------------------------------------------------------

 SCF Done:  E(RwB97XD) =  -4070.60985257     A.U. after   20 cycles

 Excitation energies and oscillator strengths:

 Excited State   1:      Singlet-A      1.6020 eV  773.96 nm  f=0.4042  <S**2>=0.000
     309 -> 316        0.17289
     311 -> 313        0.68565
     309 <- 316        0.11419
 This state for optimization and/or second-order correction.
 Total Energy, E(TD-HF/TD-DFT) =  -4070.55098188
 Copying the excited state density for this state as the 1-particle RhoCI density.

 Excited State   2:      Singlet-A      1.7217 eV  720.14 nm  f=0.3728  <S**2>=0.000
     310 -> 315        0.19588
     312 -> 314        0.67980
     310 <- 315        0.11419

 Excited State   3:      Singlet-A      2.1365 eV  580.32 nm  f=0.1494  <S**2>=0.000
     309 -> 313        0.65484
     311 -> 316       -0.24834

 Excited State   4:      Singlet-A      2.2242 eV  557.43 nm  f=0.0565  <S**2>=0.000
     310 -> 314        0.61468
     312 -> 315       -0.33870

 Excited State   5:      Singlet-A      3.2948 eV  376.30 nm  f=0.0030  <S**2>=0.000
     305 -> 313        0.52477
     305 -> 316       -0.13536
     305 -> 317        0.34597
     305 -> 319       -0.20433

 The electronic state is 1-A.
 Alpha  occ. eigenvalues --  -46.95258 -46.94279 -19.29486 -19.29094 -19.24964
 Alpha  occ. eigenvalues --  -19.24404 -19.24186 -19.23425 -19.23249 -19.22655
 Alpha  occ. eigenvalues --  -14.47177 -14.46255 -14.45986 -14.45609 -14.44901
 Alpha  occ. eigenvalues --  -14.44620 -14.43960 -14.43298 -10.42961 -10.42067
 Alpha  occ. eigenvalues --  -10.39933 -10.39608 -10.39491 -10.37492 -10.35645
 Alpha  occ. eigenvalues --  -10.35130 -10.34959 -10.34913 -10.34800 -10.34769
 Alpha  occ. eigenvalues --  -10.34594 -10.34552 -10.34425 -10.34358 -10.34344
 Alpha  occ. eigenvalues --  -10.34267 -10.34210 -10.33836 -10.33734 -10.33249
 Alpha  occ. eigenvalues --  -10.33092 -10.33020 -10.32964 -10.32878 -10.32639
 Alpha  occ. eigenvalues --  -10.32327 -10.32307 -10.32202 -10.32108 -10.32040
 Alpha  occ. eigenvalues --  -10.31987 -10.31968 -10.31882 -10.31864 -10.31822
 Alpha  occ. eigenvalues --  -10.31721 -10.31694 -10.31627 -10.31620 -10.31576
 Alpha  occ. eigenvalues --  -10.31572 -10.31508 -10.31474 -10.31423 -10.31360
 Alpha  occ. eigenvalues --  -10.31328 -10.30895 -10.30646 -10.30581 -10.30548
 Alpha  occ. eigenvalues --  -10.30393 -10.30208 -10.30159 -10.30128 -10.30122
 Alpha  occ. eigenvalues --  -10.29881 -10.29879 -10.29711 -10.29592 -10.29437
 Alpha  occ. eigenvalues --  -10.29418 -10.29318 -10.28982 -10.28980 -10.28744
 Alpha  occ. eigenvalues --  -10.28028  -3.21270  -3.20537  -1.94829  -1.94393
 Alpha  occ. eigenvalues --   -1.94249  -1.94099  -1.93682  -1.93548  -1.17614
 Alpha  occ. eigenvalues --   -1.16973  -1.13755  -1.11680  -1.11183  -1.10640
 Alpha  occ. eigenvalues --   -1.09645  -1.08068  -1.07616  -1.06728  -1.06358
 Alpha  occ. eigenvalues --   -1.06083  -1.05480  -1.05233  -1.04986  -1.04129
 Alpha  occ. eigenvalues --   -0.94283  -0.94149  -0.91581  -0.91043  -0.90412
 Alpha  occ. eigenvalues --   -0.90326  -0.90112  -0.89865  -0.89826  -0.89366
 Alpha  occ. eigenvalues --   -0.89280  -0.88784  -0.88457  -0.87249  -0.86262
 Alpha  occ. eigenvalues --   -0.85702  -0.85447  -0.85225  -0.84612  -0.84470
 Alpha  occ. eigenvalues --   -0.84089  -0.82993  -0.82964  -0.82577  -0.82457
 Alpha  occ. eigenvalues --   -0.81965  -0.80984  -0.80672  -0.79350  -0.78866
 Alpha  occ. eigenvalues --   -0.78854  -0.78677  -0.77764  -0.77602  -0.77111
 Alpha  occ. eigenvalues --   -0.76937  -0.74588  -0.74510  -0.73639  -0.73041
 Alpha  occ. eigenvalues --   -0.71824  -0.71532  -0.71119  -0.70984  -0.70326
 Alpha  occ. eigenvalues --   -0.70096  -0.69521  -0.69289  -0.67317  -0.67210
 Alpha  occ. eigenvalues --   -0.66879  -0.66857  -0.66722  -0.66145  -0.66059
 Alpha  occ. eigenvalues --   -0.65720  -0.63669  -0.63633  -0.63134  -0.62936
 Alpha  occ. eigenvalues --   -0.61450  -0.61263  -0.61239  -0.60795  -0.60046
 Alpha  occ. eigenvalues --   -0.59849  -0.59764  -0.59503  -0.59394  -0.58918
 Alpha  occ. eigenvalues --   -0.58301  -0.57896  -0.57673  -0.57207  -0.57064
 Alpha  occ. eigenvalues --   -0.56786  -0.56737  -0.56559  -0.56373  -0.55854
 Alpha  occ. eigenvalues --   -0.55567  -0.55398  -0.55091  -0.54990  -0.54681
 Alpha  occ. eigenvalues --   -0.54566  -0.54536  -0.54490  -0.54308  -0.54275
 Alpha  occ. eigenvalues --   -0.54149  -0.53915  -0.53576  -0.53272  -0.53167
 Alpha  occ. eigenvalues --   -0.52956  -0.52607  -0.52506  -0.52392  -0.52107
 Alpha  occ. eigenvalues --   -0.51995  -0.51494  -0.51467  -0.51230  -0.51161
 Alpha  occ. eigenvalues --   -0.51113  -0.50982  -0.50932  -0.50691  -0.50669
 Alpha  occ. eigenvalues --   -0.50554  -0.50459  -0.50134  -0.49988  -0.49913
 Alpha  occ. eigenvalues --   -0.49826  -0.49689  -0.49670  -0.49352  -0.49068
 Alpha  occ. eigenvalues --   -0.48718  -0.48611  -0.48550  -0.48404  -0.48314
 Alpha  occ. eigenvalues --   -0.48256  -0.47781  -0.47592  -0.47387  -0.47372
 Alpha  occ. eigenvalues --   -0.47140  -0.47117  -0.46740  -0.46671  -0.46425
 Alpha  occ. eigenvalues --   -0.46413  -0.46147  -0.46047  -0.45985  -0.45900
 Alpha  occ. eigenvalues --   -0.45777  -0.45738  -0.45482  -0.45386  -0.45113
 Alpha  occ. eigenvalues --   -0.45043  -0.44963  -0.44814  -0.44771  -0.44520
 Alpha  occ. eigenvalues --   -0.44348  -0.44298  -0.44039  -0.43864  -0.43790
 Alpha  occ. eigenvalues --   -0.43754  -0.43567  -0.43506  -0.43482  -0.43127
 Alpha  occ. eigenvalues --   -0.42955  -0.42664  -0.42648  -0.42524  -0.42422
 Alpha  occ. eigenvalues --   -0.41987  -0.41513  -0.41465  -0.41151  -0.41086
 Alpha  occ. eigenvalues --   -0.40564  -0.40352  -0.40068  -0.39752  -0.39588
 Alpha  occ. eigenvalues --   -0.38999  -0.38900  -0.38392  -0.38279  -0.38263
 Alpha  occ. eigenvalues --   -0.37975  -0.37113  -0.36314  -0.36033  -0.35702
 Alpha  occ. eigenvalues --   -0.35411  -0.35251  -0.34921  -0.34613  -0.33679
 Alpha  occ. eigenvalues --   -0.33383  -0.32965  -0.32903  -0.32765  -0.32246
 Alpha  occ. eigenvalues --   -0.32035  -0.31834  -0.31645  -0.26036  -0.25735
 Alpha  occ. eigenvalues --   -0.23188  -0.22403
 Alpha virt. eigenvalues --   -0.07605  -0.06140   0.00181   0.00519   0.02007
 Alpha virt. eigenvalues --    0.02324   0.04082   0.04609   0.04677   0.05902
 Alpha virt. eigenvalues --    0.07371   0.07597   0.07770   0.08516   0.08602

 Mulliken charges:
               1
     1  Mg   0.992847
     2  C    0.011023
     3  C   -0.117643
     4  C   -0.080830
     5  C   -0.116937
     6  N   -0.330491
     7  C   -0.016905
     8  C   -0.037179
     9  C   -0.154014
    10  C    0.076314
    11  C    0.047339
    12  C    0.007287
    13  C   -0.126096
    14  H    0.026381
    15  N   -0.509611
    16  C    0.179944
    17  C   -0.131328
    18  C   -0.119639
    19  C    0.182639
    20  C    0.046186
    21  C    0.071788
    22  O   -0.201878
    23  C   -0.025508
    24  N   -0.321256
    25  C    0.020892
    26  C   -0.086060
    27  C   -0.050050
    28  C   -0.008442
    29  C    0.024219
    30  C   -0.010796
    31  C   -0.046769
    32  N   -0.398815
    33  C    0.159903
    34  C   -0.186964
    35  C    0.034877
    36  C    0.091481
    37  C    0.104710
    38  C    0.050726
    39  O   -0.214260
    40  C   -0.074911
    41  C    0.264641
    42  O   -0.268219
    43  O   -0.355839
    44  C    0.151844
    45  H   -0.008513
    46  H    0.016486
    47  H   -0.010533
    48  H    0.043126
    49  H    0.031892
    50  H    0.045705
    51  H    0.038563
    52  H    0.045929
    53  H    0.033238
    54  H    0.041176
    55  H    0.049151
    56  H    0.062554
    57  H    0.060502
    58  H    0.029703
    59  H    0.066596
    60  H    0.061578
    61  H    0.069452
    62  H    0.048053
    63  H    0.035058
    64  H    0.029180
    65  H    0.038277
    66  H    0.025906
    67  H    0.050224
    68  H    0.032270
    69  H    0.032307
    70  H    0.028525
    71  H    0.041183
    72  H    0.043865
    73  H    0.059433
    74  H    0.063984
    75  H    0.019694
    76  H    0.072721
    77  H    0.061571
    78  H    0.057138
    79  H    0.029404
    80  Mg   0.971918
    81  C    0.006983
    82  C   -0.061567
    83  C   -0.063014
    84  C   -0.063068
    85  N   -0.337720
    86  C   -0.003285
    87  C   -0.035441
    88  C   -0.097882
    89  C    0.010338
    90  C    0.027404
    91  C   -0.006657
    92  C   -0.129164
    93  H    0.034077
    94  N   -0.495044
    95  C    0.189719
    96  C   -0.136826
    97  C   -0.054389
    98  C    0.137705
    99  C    0.058852
   100  C    0.036153
   101  O   -0.271630
   102  C   -0.006847
   103  N   -0.340747
   104  C    0.077674
   105  C   -0.129649
   106  C   -0.020162
   107  C    0.012819
   108  C    0.021369
   109  C   -0.019466
   110  C   -0.045924
   111  N   -0.428928
   112  C    0.150670
   113  C   -0.205242
   114  C    0.004396
   115  C    0.122914
   116  C    0.072253
   117  C    0.116732
   118  O   -0.207624
   119  C   -0.128523
   120  C    0.274797
   121  O   -0.237562
   122  O   -0.379793
   123  C    0.133603
   124  H   -0.002986
   125  H    0.023060
   126  H   -0.004372
   127  H    0.030730
   128  H    0.033146
   129  H    0.030639
   130  H    0.034884
   131  H    0.058454
   132  H    0.029801
   133  H    0.037239
   134  H    0.054529
   135  H    0.069176
   136  H    0.037191
   137  H    0.051176
   138  H    0.045665
   139  H    0.030942
   140  H    0.073468
   141  H    0.048600
   142  H    0.037236
   143  H    0.038759
   144  H    0.043490
   145  H    0.041840
   146  H    0.022287
   147  H    0.033276
   148  H    0.039378
   149  H    0.046944
   150  H    0.038537
   151  H    0.043028
   152  H    0.057647
   153  H    0.018538
   154  H    0.059378
   155  H    0.065593
   156  H    0.060220
   157  H    0.053713
   158  H    0.064568
 Sum of Mulliken charges =  -0.00000

 Dipole moment (field-independent basis, Debye):
    X=             -4.2559    Y=              2.3415    Z=              3.2514  Tot=              5.8453
 Quadrupole moment (field-independent basis, Debye-Ang):
   XX=           -333.4099   YY=           -469.6985   ZZ=           -516.7726
   XY=            -59.9944   XZ=            163.0013   YZ=             37.2196

 Normal termination of Gaussian 16 at Sat Sep 18 07:08:07 2021.
