 Gaussian 16, Revision A.03,
 Gaussian 16:  ES64L-G16RevA.03 25-Dec-2016

 --------------------------------
 #p wB97XD/Def2SVP td=(nstates=5)
 --------------------------------

 --------------------------------
 TDDFT excited states in gaussian
 --------------------------------
 Symbolic Z-matrix:
 Charge =  0 Multiplicity = 1

                         Standard orientation:
 ---------------------------------------------------------------------
 Center     Atomic      Atomic             Coordinates (Angstroms)
 Number     Number       Type             X           Y           Z
 ---------------------------------------------------------------------
      1         12           0      -31.393893   -0.003011    0.108612
      2          6           0      -28.147254   -0.955705   -0.828401
      3          6           0      -31.258007   -2.316755    2.592652
      4          6           0      -34.220642    1.285759    1.130841
      5          6           0      -30.858872    2.853314   -2.017786
      6          7           0      -29.907578   -1.480488    0.725302
      7          6           0      -28.652660   -1.687327    0.226070
      8          6           0      -27.888210   -2.588147    1.207643
      9          6           0      -29.022253   -3.365538    1.866658
     10          6           0      -30.103461   -2.269859    1.800215
     11          6           0      -29.432575   -4.624416    1.068223
     12          6           0      -27.062955   -1.738764    2.243682
     13          6           0      -25.458400   -1.810513    2.184958
     14          1           0      -24.662663   -0.524424    1.904161
     15          7           0      -32.550989   -0.411770    1.681138
     16          6           0      -32.343160   -1.424087    2.589617
     17          6           0      -33.492563   -1.505998    3.435548
     18          6           0      -34.470911   -0.554759    2.994230
     19          6           0      -33.783145    0.178109    1.891978
     20          6           0      -33.621030   -2.528493    4.616186
     21          6           0      -35.919856   -0.414086    3.586985
     22          8           0      -36.309282   -1.190566    4.404007
     23          6           0      -36.852263    0.489325    2.923830
     24          7           0      -32.253495    1.982267   -0.146054
     25          6           0      -33.582422    2.018270    0.112099
     26          6           0      -34.338040    2.996532   -0.771628
     27          6           0      -33.225673    3.743537   -1.491519
     28          6           0      -32.002171    2.805485   -1.204215
     29          6           0      -35.321687    2.285582   -1.773054
     30          6           0      -32.925168    5.269856   -1.113100
     31          6           0      -33.278023    6.404808   -2.036653
     32          7           0      -29.965550    0.705853   -1.303216
     33          6           0      -29.875854    1.864971   -2.084664
     34          6           0      -28.626434    1.923251   -2.812107
     35          6           0      -27.940112    0.821119   -2.364843
     36          6           0      -28.749744    0.098037   -1.428120
     37          6           0      -28.221163    2.998666   -3.731971
     38          6           0      -26.684437    0.096810   -2.488755
     39          8           0      -25.728575    0.300302   -3.247475
     40          6           0      -26.808329   -1.121557   -1.598223
     41          6           0      -26.710419   -2.349945   -2.496288
     42          8           0      -27.503279   -2.520876   -3.419509
     43          8           0      -25.571029   -3.115314   -2.203117
     44          6           0      -25.397614   -4.274106   -3.037648
     45          1           0      -31.243896   -3.169410    3.274272
     46          1           0      -35.284615    1.471709    1.285318
     47          1           0      -30.753042    3.663278   -2.742785
     48          1           0      -27.142917   -3.126752    0.621834
     49          1           0      -28.707525   -3.630610    2.875236
     50          1           0      -29.409491   -5.346967    1.883250
     51          1           0      -28.635575   -4.757764    0.336172
     52          1           0      -30.398943   -4.595368    0.564702
     53          1           0      -27.325282   -2.100737    3.237719
     54          1           0      -27.427332   -0.713009    2.193408
     55          1           0      -25.232735   -2.455612    1.335490
     56          1           0      -24.992640   -2.284369    3.048211
     57          1           0      -33.925872   -2.148830    5.590903
     58          1           0      -32.633360   -2.978743    4.720807
     59          1           0      -34.313585   -3.340905    4.395334
     60          1           0      -36.517755    1.525847    2.875866
     61          1           0      -37.803537    0.450055    3.454457
     62          1           0      -37.161380    0.072313    1.966350
     63          1           0      -34.991231    3.658015   -0.201542
     64          1           0      -33.377306    3.698658   -2.570000
     65          1           0      -36.355967    2.277867   -1.429521
     66          1           0      -34.922714    1.307749   -2.042761
     67          1           0      -35.313042    2.869154   -2.694755
     68          1           0      -31.956990    5.507918   -0.673897
     69          1           0      -33.626760    5.305265   -0.279238
     70          1           0      -34.061970    7.053980   -1.647930
     71          1           0      -33.634499    6.004757   -2.986163
     72          1           0      -32.341185    6.945979   -2.167195
     73          1           0      -28.758944    3.902039   -3.442925
     74          1           0      -28.585077    2.693734   -4.713546
     75          1           0      -27.137915    3.104450   -3.769279
     76          1           0      -25.918492   -1.046488   -0.974667
     77          1           0      -26.046541   -5.114187   -2.788708
     78          1           0      -24.375016   -4.648112   -2.996137
     79          1           0      -25.555136   -4.090540   -4.100125
     80         12           0       30.568341    0.844360    0.243217
     81          6           0       30.925600   -2.463883   -0.871664
     82          6           0       29.469207    1.809587   -2.753740
     83          6           0       30.383461    3.849830    1.429214
     84          6           0       32.690244   -0.130180    3.006634
     85          7           0       30.352236   -0.235583   -1.608622
     86          6           0       30.375007   -1.556196   -1.828339
     87          6           0       30.086636   -1.893279   -3.268496
     88          6           0       30.027843   -0.465437   -3.945675
     89          6           0       29.927094    0.425525   -2.722715
     90          6           0       31.187664   -0.048478   -4.907191
     91          6           0       28.653432   -2.622201   -3.402767
     92          6           0       28.691777   -3.911980   -4.286368
     93          1           0       27.324253   -4.775373   -4.142085
     94          7           0       29.791381    2.485454   -0.451284
     95          6           0       29.327213    2.717090   -1.734893
     96          6           0       28.634389    3.976010   -1.748193
     97          6           0       28.835821    4.660941   -0.480550
     98          6           0       29.611239    3.628194    0.307808
     99          6           0       27.981962    4.460836   -3.074700
    100          6           0       28.430756    6.005934    0.111760
    101          8           0       28.627558    6.387929    1.279498
    102          6           0       27.636539    6.831525   -0.837417
    103          7           0       31.570944    1.689427    1.890283
    104          6           0       31.272885    3.010625    2.115758
    105          6           0       32.084469    3.562063    3.288541
    106          6           0       32.558754    2.253010    3.972525
    107          6           0       32.327758    1.199211    2.887696
    108          6           0       33.172044    4.580351    2.761837
    109          6           0       31.837956    1.877442    5.336332
    110          6           0       32.615577    0.970032    6.303035
    111          7           0       31.587606   -0.926819    0.987710
    112          6           0       32.369797   -1.126564    2.084651
    113          6           0       32.714091   -2.522775    2.234171
    114          6           0       32.086249   -3.079443    1.104853
    115          6           0       31.471547   -2.073838    0.345176
    116          6           0       33.535012   -3.279797    3.303374
    117          6           0       31.844291   -4.330204    0.441511
    118          8           0       32.013081   -5.479360    0.755422
    119          6           0       31.204641   -3.928275   -0.987108
    120          6           0       30.130550   -4.919361   -1.092720
    121          8           0       28.976344   -4.892026   -0.595620
    122          8           0       30.645678   -5.909748   -1.841472
    123          6           0       29.815251   -7.086947   -2.099635
    124          1           0       29.023194    2.115065   -3.702689
    125          1           0       30.260006    4.841874    1.869053
    126          1           0       33.247797   -0.386929    3.909777
    127          1           0       30.806593   -2.561188   -3.742238
    128          1           0       29.122324   -0.239607   -4.509142
    129          1           0       31.761518    0.735221   -4.412642
    130          1           0       30.690849    0.353032   -5.790231
    131          1           0       31.915691   -0.801949   -5.205742
    132          1           0       27.829673   -1.993736   -3.743279
    133          1           0       28.318276   -2.817743   -2.384112
    134          1           0       29.528054   -4.548442   -3.997869
    135          1           0       28.746531   -3.737268   -5.360612
    136          1           0       26.956053    4.095744   -3.095293
    137          1           0       28.349423    3.939694   -3.959570
    138          1           0       28.155860    5.497158   -3.363408
    139          1           0       26.695211    6.382590   -1.152393
    140          1           0       28.347313    6.985398   -1.650259
    141          1           0       27.405647    7.829324   -0.463270
    142          1           0       31.367038    4.111668    3.898051
    143          1           0       33.613004    2.346856    4.232844
    144          1           0       34.165165    4.135312    2.821768
    145          1           0       33.280314    5.538986    3.268520
    146          1           0       33.130921    4.837601    1.703221
    147          1           0       31.008012    1.254371    5.001953
    148          1           0       31.455668    2.695275    5.947537
    149          1           0       32.141071   -0.004779    6.422925
    150          1           0       32.803062    1.313873    7.320455
    151          1           0       33.549196    0.740862    5.791205
    152          1           0       34.208891   -2.539821    3.735144
    153          1           0       34.093318   -4.104677    2.858717
    154          1           0       32.820850   -3.613172    4.056252
    155          1           0       31.927027   -4.125992   -1.779244
    156          1           0       29.538585   -7.089092   -3.153792
    157          1           0       28.987717   -7.170734   -1.395977
    158          1           0       30.440111   -7.973142   -1.989386
 ---------------------------------------------------------------------

 SCF Done:  E(RwB97XD) =  -4070.60496447     A.U. after   19 cycles

 Excitation energies and oscillator strengths:

 Excited State   1:      Singlet-A      1.6667 eV  743.88 nm  f=0.3540  <S**2>=0.000
     309 -> 316        0.19739
     312 -> 314        0.68046
     309 <- 316        0.12057
 This state for optimization and/or second-order correction.
 Total Energy, E(TD-HF/TD-DFT) =  -4070.54371312
 Copying the excited state density for this state as the 1-particle RhoCI density.

 Excited State   2:      Singlet-A      1.6707 eV  742.09 nm  f=0.3840  <S**2>=0.000
     310 -> 315        0.20289
     311 -> 313        0.67830
     310 <- 315        0.11994

 Excited State   3:      Singlet-A      2.1931 eV  565.34 nm  f=0.0611  <S**2>=0.000
     310 -> 313        0.61587
     311 -> 315       -0.33612

 Excited State   4:      Singlet-A      2.2261 eV  556.96 nm  f=0.0509  <S**2>=0.000
     309 -> 314        0.60366
     312 -> 316       -0.35678

 Excited State   5:      Singlet-A      3.4187 eV  362.66 nm  f=0.4053  <S**2>=0.000
     305 -> 313       -0.13477
     308 -> 313        0.33985
     310 -> 313        0.25500
     311 -> 315        0.52605

 The electronic state is 1-A.
 Alpha  occ. eigenvalues --  -46.95032 -46.93918 -19.31290 -19.30077 -19.25557
 Alpha  occ. eigenvalues --  -19.24728 -19.24068 -19.24064 -19.23857 -19.23397
 Alpha  occ. eigenvalues --  -14.47176 -14.46732 -14.46677 -14.46309 -14.44091
 Alpha  occ. eigenvalues --  -14.43994 -14.43977 -14.42995 -10.44155 -10.42418
 Alpha  occ. eigenvalues --  -10.39985 -10.38980 -10.38657 -10.38614 -10.35754
 Alpha  occ. eigenvalues --  -10.35258 -10.35194 -10.35174 -10.35142 -10.34874
 Alpha  occ. eigenvalues --  -10.34820 -10.34735 -10.34697 -10.34666 -10.34571
 Alpha  occ. eigenvalues --  -10.34251 -10.34247 -10.34147 -10.33838 -10.33547
 Alpha  occ. eigenvalues --  -10.33454 -10.33284 -10.33220 -10.32787 -10.32688
 Alpha  occ. eigenvalues --  -10.32628 -10.32493 -10.32411 -10.32200 -10.32148
 Alpha  occ. eigenvalues --  -10.31987 -10.31948 -10.31946 -10.31945 -10.31921
 Alpha  occ. eigenvalues --  -10.31879 -10.31790 -10.31771 -10.31752 -10.31677
 Alpha  occ. eigenvalues --  -10.31659 -10.31648 -10.31330 -10.31217 -10.31027
 Alpha  occ. eigenvalues --  -10.30942 -10.30937 -10.30908 -10.30758 -10.30733
 Alpha  occ. eigenvalues --  -10.30515 -10.30366 -10.30351 -10.30350 -10.30258
 Alpha  occ. eigenvalues --  -10.30126 -10.30087 -10.29928 -10.29864 -10.29861
 Alpha  occ. eigenvalues --  -10.29725 -10.29501 -10.29427 -10.29205 -10.29183
 Alpha  occ. eigenvalues --  -10.28475  -3.21077  -3.20161  -1.94643  -1.94216
 Alpha  occ. eigenvalues --   -1.94045  -1.93744  -1.93306  -1.93151  -1.18172
 Alpha  occ. eigenvalues --   -1.18111  -1.14104  -1.12999  -1.11625  -1.11358
 Alpha  occ. eigenvalues --   -1.10467  -1.07714  -1.07195  -1.06783  -1.06308
 Alpha  occ. eigenvalues --   -1.06281  -1.05609  -1.04914  -1.04465  -1.04114
 Alpha  occ. eigenvalues --   -0.95059  -0.94688  -0.91053  -0.91015  -0.90847
 Alpha  occ. eigenvalues --   -0.90458  -0.90118  -0.89891  -0.89576  -0.89371
 Alpha  occ. eigenvalues --   -0.89054  -0.88927  -0.88209  -0.86937  -0.86505
 Alpha  occ. eigenvalues --   -0.86448  -0.86146  -0.85727  -0.84467  -0.84446
 Alpha  occ. eigenvalues --   -0.84386  -0.84163  -0.83227  -0.83011  -0.82829
 Alpha  occ. eigenvalues --   -0.82239  -0.80182  -0.79951  -0.79231  -0.79179
 Alpha  occ. eigenvalues --   -0.78822  -0.78343  -0.78222  -0.77845  -0.77316
 Alpha  occ. eigenvalues --   -0.77046  -0.74880  -0.74769  -0.74114  -0.74110
 Alpha  occ. eigenvalues --   -0.71219  -0.70955  -0.70712  -0.70600  -0.70106
 Alpha  occ. eigenvalues --   -0.69844  -0.69194  -0.68757  -0.67984  -0.67794
 Alpha  occ. eigenvalues --   -0.67565  -0.67459  -0.66875  -0.66867  -0.66476
 Alpha  occ. eigenvalues --   -0.66433  -0.64729  -0.63750  -0.62258  -0.62211
 Alpha  occ. eigenvalues --   -0.62054  -0.61788  -0.61140  -0.61108  -0.60882
 Alpha  occ. eigenvalues --   -0.60614  -0.60488  -0.59984  -0.59711  -0.59103
 Alpha  occ. eigenvalues --   -0.58318  -0.58221  -0.58067  -0.57842  -0.57437
 Alpha  occ. eigenvalues --   -0.57253  -0.56893  -0.56281  -0.55923  -0.55837
 Alpha  occ. eigenvalues --   -0.55482  -0.55375  -0.55171  -0.55106  -0.54942
 Alpha  occ. eigenvalues --   -0.54752  -0.54719  -0.54620  -0.54486  -0.54144
 Alpha  occ. eigenvalues --   -0.54130  -0.53731  -0.53518  -0.53333  -0.52974
 Alpha  occ. eigenvalues --   -0.52957  -0.52817  -0.52675  -0.52387  -0.52306
 Alpha  occ. eigenvalues --   -0.52118  -0.52094  -0.51944  -0.51739  -0.51583
 Alpha  occ. eigenvalues --   -0.51354  -0.51257  -0.51044  -0.51011  -0.50835
 Alpha  occ. eigenvalues --   -0.50613  -0.50395  -0.50265  -0.50079  -0.50021
 Alpha  occ. eigenvalues --   -0.49925  -0.49442  -0.49311  -0.49184  -0.49035
 Alpha  occ. eigenvalues --   -0.48807  -0.48521  -0.48407  -0.48312  -0.48253
 Alpha  occ. eigenvalues --   -0.48212  -0.48043  -0.47899  -0.47837  -0.47644
 Alpha  occ. eigenvalues --   -0.47451  -0.47377  -0.47286  -0.47061  -0.46846
 Alpha  occ. eigenvalues --   -0.46390  -0.46246  -0.46099  -0.45956  -0.45798
 Alpha  occ. eigenvalues --   -0.45683  -0.45532  -0.45498  -0.45410  -0.45267
 Alpha  occ. eigenvalues --   -0.45034  -0.45007  -0.44806  -0.44775  -0.44587
 Alpha  occ. eigenvalues --   -0.44540  -0.44383  -0.44156  -0.44092  -0.44020
 Alpha  occ. eigenvalues --   -0.43890  -0.43869  -0.43653  -0.43529  -0.43252
 Alpha  occ. eigenvalues --   -0.43146  -0.43003  -0.42763  -0.42701  -0.42607
 Alpha  occ. eigenvalues --   -0.42458  -0.42293  -0.42196  -0.41956  -0.41497
 Alpha  occ. eigenvalues --   -0.40899  -0.40720  -0.39944  -0.39765  -0.39472
 Alpha  occ. eigenvalues --   -0.39457  -0.39172  -0.38941  -0.38624  -0.38589
 Alpha  occ. eigenvalues --   -0.37509  -0.37213  -0.36834  -0.36720  -0.36149
 Alpha  occ. eigenvalues --   -0.35969  -0.35742  -0.34953  -0.33716  -0.33554
 Alpha  occ. eigenvalues --   -0.33498  -0.33199  -0.32950  -0.32614  -0.32458
 Alpha  occ. eigenvalues --   -0.32328  -0.31822  -0.31769  -0.26324  -0.26113
 Alpha  occ. eigenvalues --   -0.22927  -0.22805
 Alpha virt. eigenvalues --   -0.06782  -0.06659  -0.00391  -0.00335   0.01756
 Alpha virt. eigenvalues --    0.02587   0.04566   0.04601   0.05189   0.06223
 Alpha virt. eigenvalues --    0.06362   0.07377   0.07474   0.07605   0.08248

 Mulliken charges:
               1
     1  Mg   0.956813
     2  C   -0.054845
     3  C   -0.098071
     4  C   -0.053013
     5  C   -0.094278
     6  N   -0.331796
     7  C   -0.023672
     8  C   -0.115042
     9  C   -0.115684
    10  C    0.039083
    11  C    0.060853
    12  C    0.025492
    13  C   -0.134608
    14  H    0.044834
    15  N   -0.518637
    16  C    0.210457
    17  C   -0.172860
    18  C   -0.106216
    19  C    0.151508
    20  C    0.083331
    21  C    0.062042
    22  O   -0.196862
    23  C   -0.021392
    24  N   -0.326609
    25  C    0.062301
    26  C   -0.102098
    27  C   -0.070029
    28  C    0.069809
    29  C    0.021109
    30  C   -0.022403
    31  C   -0.034771
    32  N   -0.428974
    33  C    0.127707
    34  C   -0.206687
    35  C   -0.016827
    36  C    0.192863
    37  C    0.097470
    38  C    0.099136
    39  O   -0.220868
    40  C   -0.022048
    41  C    0.288757
    42  O   -0.244366
    43  O   -0.362526
    44  C    0.139838
    45  H    0.001603
    46  H   -0.029237
    47  H   -0.001587
    48  H    0.017296
    49  H    0.023688
    50  H    0.042921
    51  H    0.038772
    52  H    0.055130
    53  H    0.032702
    54  H    0.055652
    55  H    0.047943
    56  H    0.058777
    57  H    0.056061
    58  H    0.011820
    59  H    0.051568
    60  H    0.070893
    61  H    0.042011
    62  H    0.069543
    63  H    0.033437
    64  H    0.024315
    65  H    0.046123
    66  H    0.041577
    67  H    0.029644
    68  H    0.043979
    69  H    0.016340
    70  H    0.044040
    71  H    0.026336
    72  H    0.041568
    73  H    0.036664
    74  H    0.058299
    75  H    0.066034
    76  H    0.061075
    77  H    0.042322
    78  H    0.050439
    79  H    0.054028
    80  Mg   0.994486
    81  C    0.048574
    82  C   -0.082944
    83  C   -0.068745
    84  C   -0.108847
    85  N   -0.341483
    86  C    0.045913
    87  C   -0.121758
    88  C   -0.075754
    89  C    0.029387
    90  C    0.026871
    91  C    0.023851
    92  C   -0.140390
    93  H    0.018711
    94  N   -0.559306
    95  C    0.189858
    96  C   -0.126429
    97  C   -0.130486
    98  C    0.181159
    99  C    0.043667
   100  C    0.089068
   101  O   -0.240692
   102  C   -0.020551
   103  N   -0.364123
   104  C    0.073065
   105  C   -0.083622
   106  C   -0.059658
   107  C    0.063418
   108  C    0.017229
   109  C   -0.011456
   110  C   -0.064733
   111  N   -0.360572
   112  C    0.130633
   113  C   -0.202721
   114  C   -0.017948
   115  C    0.092373
   116  C    0.097855
   117  C    0.101674
   118  O   -0.185089
   119  C   -0.133334
   120  C    0.263551
   121  O   -0.285043
   122  O   -0.350117
   123  C    0.138307
   124  H   -0.014454
   125  H    0.026598
   126  H   -0.019323
   127  H    0.037178
   128  H    0.028913
   129  H    0.042194
   130  H    0.037587
   131  H    0.042995
   132  H    0.031559
   133  H    0.058253
   134  H    0.053277
   135  H    0.056604
   136  H    0.054111
   137  H    0.028169
   138  H    0.054183
   139  H    0.074527
   140  H    0.050154
   141  H    0.047473
   142  H    0.043288
   143  H    0.027325
   144  H    0.021176
   145  H    0.043985
   146  H    0.041022
   147  H    0.036415
   148  H    0.043299
   149  H    0.035194
   150  H    0.044626
   151  H    0.027513
   152  H    0.034201
   153  H    0.066259
   154  H    0.064440
   155  H    0.073460
   156  H    0.048555
   157  H    0.075967
   158  H    0.049429
 Sum of Mulliken charges =  -0.00000

 Dipole moment (field-independent basis, Debye):
    X=             -1.2045    Y=              3.3975    Z=             -4.0634  Tot=              5.4318
 Quadrupole moment (field-independent basis, Debye-Ang):
   XX=           -320.1924   YY=           -497.0361   ZZ=           -497.2383
   XY=             50.1234   XZ=            -60.4312   YZ=             -7.9207

 Normal termination of Gaussian 16 at Mon Sep 20 17:25:00 2021.
