 Gaussian 16, Revision A.03,
 Gaussian 16:  ES64L-G16RevA.03 25-Dec-2016

 --------------------------------
 #p wB97XD/Def2SVP td=(nstates=5)
 --------------------------------

 --------------------------------
 TDDFT excited states in gaussian
 --------------------------------
 Symbolic Z-matrix:
 Charge =  0 Multiplicity = 1

                         Standard orientation:
 ---------------------------------------------------------------------
 Center     Atomic      Atomic             Coordinates (Angstroms)
 Number     Number       Type             X           Y           Z
 ---------------------------------------------------------------------
      1         12           0       -4.909220    0.693172   -0.299321
      2          6           0       -2.861189   -2.129461   -0.917640
      3          6           0       -7.590022   -1.549978   -0.312670
      4          6           0       -6.940786    3.179910    0.385083
      5          6           0       -2.249888    2.772450   -1.132677
      6          7           0       -5.138334   -1.566112   -0.552635
      7          6           0       -4.170833   -2.520427   -0.644041
      8          6           0       -4.665148   -3.974184   -0.737023
      9          6           0       -6.246868   -3.674176   -0.653807
     10          6           0       -6.297549   -2.181322   -0.515938
     11          6           0       -7.062322   -4.121559   -1.930931
     12          6           0       -4.152633   -4.870943    0.436764
     13          6           0       -3.165329   -6.020710    0.278482
     14          1           0       -3.276912   -7.280911    1.126386
     15          7           0       -6.978116    0.822582    0.077470
     16          6           0       -7.929865   -0.200077   -0.044632
     17          6           0       -9.232582    0.398648    0.142509
     18          6           0       -9.066420    1.732906    0.505512
     19          6           0       -7.611578    1.951713    0.387621
     20          6           0      -10.427872   -0.491867    0.157666
     21          6           0      -10.082019    2.827179    0.832331
     22          8           0       -9.791452    3.994855    1.109405
     23          6           0      -11.495459    2.414407    0.959879
     24          7           0       -4.699483    2.705772   -0.453463
     25          6           0       -5.605215    3.575556    0.087717
     26          6           0       -4.965920    4.987753    0.312242
     27          6           0       -3.564428    4.823570   -0.261275
     28          6           0       -3.499618    3.341194   -0.723107
     29          6           0       -5.815232    6.160037   -0.279037
     30          6           0       -2.522821    5.180210    0.810175
     31          6           0       -1.363105    6.020749    0.416248
     32          7           0       -2.974518    0.445529   -1.002937
     33          6           0       -1.996005    1.369127   -1.270861
     34          6           0       -0.770895    0.735511   -1.657288
     35          6           0       -0.981187   -0.715203   -1.450270
     36          6           0       -2.368963   -0.804786   -1.038161
     37          6           0        0.506425    1.454245   -2.124426
     38          6           0       -0.400106   -2.080357   -1.504306
     39          8           0        0.774873   -2.445625   -1.678577
     40          6           0       -1.615326   -3.033162   -1.150836
     41          6           0       -1.654954   -3.871119   -2.390441
     42          8           0       -2.236309   -3.646149   -3.445043
     43          8           0       -1.061981   -5.016896   -2.194374
     44          6           0       -0.840621   -5.935897   -3.337192
     45          1           0       -8.299063   -2.370999   -0.190250
     46          1           0       -7.506511    4.097258    0.558949
     47          1           0       -1.407747    3.441010   -1.321228
     48          1           0       -4.401455   -4.349316   -1.726676
     49          1           0       -6.799825   -4.051981    0.206752
     50          1           0       -6.492197   -4.336453   -2.834331
     51          1           0       -7.767401   -3.339874   -2.211477
     52          1           0       -7.634231   -5.013927   -1.675913
     53          1           0       -5.037125   -5.332952    0.875609
     54          1           0       -3.667040   -4.257626    1.194738
     55          1           0       -2.255694   -5.547436    0.648470
     56          1           0       -3.216153   -6.205950   -0.794507
     57          1           0      -10.938897   -0.470526    1.119226
     58          1           0      -10.149621   -1.526445   -0.044732
     59          1           0      -11.180557   -0.215326   -0.580015
     60          1           0      -11.562723    1.547390    1.617162
     61          1           0      -11.895235    2.004445    0.032293
     62          1           0      -12.147824    3.170302    1.395912
     63          1           0       -4.981816    5.061661    1.399494
     64          1           0       -3.382734    5.535247   -1.066464
     65          1           0       -6.807074    5.865955   -0.622040
     66          1           0       -5.351534    6.651819   -1.133358
     67          1           0       -5.844285    6.986830    0.430507
     68          1           0       -2.169347    4.199429    1.125768
     69          1           0       -2.918053    5.728830    1.664751
     70          1           0       -0.491239    5.435756    0.708111
     71          1           0       -1.449507    7.013554    0.857698
     72          1           0       -1.229651    6.145061   -0.658602
     73          1           0        0.475190    1.562791   -3.207931
     74          1           0        1.365496    0.869491   -1.795899
     75          1           0        0.578649    2.466476   -1.725991
     76          1           0       -1.306101   -3.625696   -0.289991
     77          1           0       -1.757342   -6.268820   -3.822666
     78          1           0       -0.249885   -6.818256   -3.091855
     79          1           0       -0.238339   -5.557453   -4.162541
     80         12           0        4.792205    0.610425    0.241167
     81          6           0        2.534717   -1.809105    1.164985
     82          6           0        7.230731   -1.954806   -0.123261
     83          6           0        7.252113    2.894971   -0.158046
     84          6           0        2.586982    3.048319    0.907728
     85          7           0        4.862753   -1.635407    0.500803
     86          6           0        3.785579   -2.377515    0.904946
     87          6           0        4.107180   -3.873446    0.878440
     88          6           0        5.688428   -3.833179    0.649540
     89          6           0        5.957589   -2.393148    0.323924
     90          6           0        6.527472   -4.421254    1.842801
     91          6           0        3.345444   -4.672760   -0.275091
     92          6           0        2.703109   -6.019528   -0.044852
     93          1           0        3.481310   -7.060389    0.678731
     94          7           0        6.963276    0.517469   -0.150992
     95          6           0        7.697738   -0.580601   -0.434719
     96          6           0        9.002186   -0.232034   -0.888995
     97          6           0        9.033727    1.197209   -0.942944
     98          6           0        7.726020    1.581152   -0.332349
     99          6           0        9.986005   -1.326724   -1.149332
    100          6           0       10.196816    2.110722   -1.290293
    101          8           0       10.188851    3.318606   -1.033326
    102          6           0       11.438130    1.547865   -1.960040
    103          7           0        4.954515    2.717234    0.507620
    104          6           0        6.052148    3.434888    0.150979
    105          6           0        5.747162    4.931806    0.166857
    106          6           0        4.180946    4.949166    0.341332
    107          6           0        3.874820    3.486157    0.594412
    108          6           0        6.516329    5.903070    1.110373
    109          6           0        3.340104    5.616495   -0.825744
    110          6           0        2.798919    4.772666   -1.960388
    111          7           0        2.991259    0.664925    0.986936
    112          6           0        2.096826    1.699365    1.095571
    113          6           0        0.839157    1.304519    1.616714
    114          6           0        0.938219   -0.083305    1.617398
    115          6           0        2.253421   -0.420105    1.205816
    116          6           0       -0.423148    2.071435    1.988692
    117          6           0        0.284303   -1.284451    1.903361
    118          8           0       -0.834237   -1.443075    2.356634
    119          6           0        1.294909   -2.538705    1.649866
    120          6           0        1.454808   -3.245879    2.914455
    121          8           0        1.987252   -2.789651    3.945641
    122          8           0        0.909415   -4.491023    2.910678
    123          6           0        0.715635   -5.183635    4.189542
    124          1           0        7.864022   -2.829249   -0.284520
    125          1           0        7.939777    3.643772   -0.556111
    126          1           0        1.763312    3.752507    0.778590
    127          1           0        3.762065   -4.315166    1.814128
    128          1           0        5.984747   -4.463311   -0.189218
    129          1           0        7.114723   -5.252828    1.454798
    130          1           0        5.786545   -4.659620    2.606090
    131          1           0        7.305252   -3.764741    2.234041
    132          1           0        4.140440   -4.782576   -1.012879
    133          1           0        2.672174   -4.016377   -0.825414
    134          1           0        2.300241   -6.404858   -0.981478
    135          1           0        1.878626   -5.831307    0.641877
    136          1           0       10.447807   -1.063734   -2.100302
    137          1           0        9.475149   -2.276651   -1.308647
    138          1           0       10.752556   -1.478432   -0.388642
    139          1           0       11.227846    0.828639   -2.752170
    140          1           0       12.161935    1.251438   -1.199632
    141          1           0       11.875223    2.406787   -2.470156
    142          1           0        6.096859    5.261593   -0.811669
    143          1           0        3.854535    5.595248    1.155412
    144          1           0        5.859147    6.257311    1.904424
    145          1           0        6.814085    6.751621    0.494641
    146          1           0        7.365860    5.334915    1.487721
    147          1           0        3.977960    6.383085   -1.263617
    148          1           0        2.463907    6.114087   -0.409460
    149          1           0        3.076220    5.176510   -2.934386
    150          1           0        1.714626    4.655549   -1.938922
    151          1           0        3.253727    3.792438   -1.817434
    152          1           0       -0.277452    3.128138    1.761264
    153          1           0       -0.634443    1.919863    3.047521
    154          1           0       -1.252464    1.675023    1.403542
    155          1           0        0.684080   -3.141288    0.977019
    156          1           0       -0.060628   -5.948627    4.167366
    157          1           0        0.615125   -4.539620    5.062666
    158          1           0        1.603162   -5.805919    4.305300
 ---------------------------------------------------------------------

 SCF Done:  E(RwB97XD) =  -4070.65681264     A.U. after   20 cycles

 Excitation energies and oscillator strengths:

 Excited State   1:      Singlet-A      1.6153 eV  767.57 nm  f=0.8718  <S**2>=0.000
     310 -> 316       -0.14808
     311 -> 313       -0.18119
     311 -> 314       -0.24015
     312 -> 313        0.43948
     312 -> 314       -0.43416
 This state for optimization and/or second-order correction.
 Total Energy, E(TD-HF/TD-DFT) =  -4070.59745200
 Copying the excited state density for this state as the 1-particle RhoCI density.

 Excited State   2:      Singlet-A      1.7330 eV  715.41 nm  f=0.0962  <S**2>=0.000
     309 -> 315       -0.16486
     311 -> 313        0.52582
     311 -> 314        0.30606
     312 -> 314       -0.29136

 Excited State   3:      Singlet-A      2.1025 eV  589.70 nm  f=0.0625  <S**2>=0.000
     309 -> 313       -0.15081
     309 -> 314       -0.19725
     310 -> 313       -0.42530
     310 -> 314        0.44424
     312 -> 316       -0.19952

 Excited State   4:      Singlet-A      2.1608 eV  573.78 nm  f=0.1682  <S**2>=0.000
     309 -> 313        0.49427
     309 -> 314        0.31228
     310 -> 314        0.24242
     311 -> 315        0.26387

 Excited State   5:      Singlet-A      2.6529 eV  467.35 nm  f=0.0011  <S**2>=0.000
     311 -> 313       -0.39851
     311 -> 314        0.55783
     312 -> 314       -0.11153

 The electronic state is 1-A.
 Alpha  occ. eigenvalues --  -46.94839 -46.94735 -19.30822 -19.29938 -19.24724
 Alpha  occ. eigenvalues --  -19.24621 -19.23400 -19.23382 -19.23298 -19.23019
 Alpha  occ. eigenvalues --  -14.47140 -14.46521 -14.45998 -14.45465 -14.44476
 Alpha  occ. eigenvalues --  -14.43602 -14.43514 -14.43419 -10.42718 -10.42292
 Alpha  occ. eigenvalues --  -10.40048 -10.39973 -10.38838 -10.38067 -10.36050
 Alpha  occ. eigenvalues --  -10.35845 -10.35522 -10.35367 -10.35124 -10.34954
 Alpha  occ. eigenvalues --  -10.34946 -10.34475 -10.34230 -10.34150 -10.33875
 Alpha  occ. eigenvalues --  -10.33744 -10.33552 -10.33493 -10.33443 -10.33309
 Alpha  occ. eigenvalues --  -10.33029 -10.32877 -10.32806 -10.32790 -10.32775
 Alpha  occ. eigenvalues --  -10.32290 -10.32275 -10.32192 -10.32108 -10.32093
 Alpha  occ. eigenvalues --  -10.32057 -10.31918 -10.31853 -10.31588 -10.31564
 Alpha  occ. eigenvalues --  -10.31512 -10.31479 -10.31461 -10.31364 -10.31205
 Alpha  occ. eigenvalues --  -10.31158 -10.31156 -10.31141 -10.31126 -10.30976
 Alpha  occ. eigenvalues --  -10.30916 -10.30432 -10.30339 -10.30332 -10.30139
 Alpha  occ. eigenvalues --  -10.30058 -10.29934 -10.29898 -10.29821 -10.29815
 Alpha  occ. eigenvalues --  -10.29809 -10.29615 -10.29597 -10.29297 -10.29252
 Alpha  occ. eigenvalues --  -10.29189 -10.29159 -10.29100 -10.28690 -10.28582
 Alpha  occ. eigenvalues --  -10.27997  -3.20869  -3.20795  -1.94457  -1.94367
 Alpha  occ. eigenvalues --   -1.93995  -1.93879  -1.93848  -1.93811  -1.20273
 Alpha  occ. eigenvalues --   -1.17641  -1.12401  -1.11717  -1.11303  -1.11174
 Alpha  occ. eigenvalues --   -1.08922  -1.07585  -1.07471  -1.06741  -1.06160
 Alpha  occ. eigenvalues --   -1.06051  -1.05510  -1.04835  -1.04769  -1.03377
 Alpha  occ. eigenvalues --   -0.93870  -0.93855  -0.91595  -0.91048  -0.90613
 Alpha  occ. eigenvalues --   -0.90390  -0.89737  -0.89680  -0.89143  -0.88939
 Alpha  occ. eigenvalues --   -0.88797  -0.88727  -0.87698  -0.87091  -0.86264
 Alpha  occ. eigenvalues --   -0.85567  -0.85517  -0.85191  -0.84873  -0.84670
 Alpha  occ. eigenvalues --   -0.83937  -0.83126  -0.82869  -0.82567  -0.82498
 Alpha  occ. eigenvalues --   -0.81692  -0.80840  -0.79780  -0.79589  -0.78953
 Alpha  occ. eigenvalues --   -0.78747  -0.78377  -0.78252  -0.77606  -0.77182
 Alpha  occ. eigenvalues --   -0.76815  -0.74910  -0.74252  -0.73855  -0.72899
 Alpha  occ. eigenvalues --   -0.71272  -0.71173  -0.70576  -0.70303  -0.69707
 Alpha  occ. eigenvalues --   -0.69269  -0.68985  -0.68322  -0.67704  -0.67343
 Alpha  occ. eigenvalues --   -0.66955  -0.66659  -0.66504  -0.66247  -0.66228
 Alpha  occ. eigenvalues --   -0.65556  -0.64575  -0.63780  -0.63067  -0.61631
 Alpha  occ. eigenvalues --   -0.61510  -0.61194  -0.61034  -0.60513  -0.60461
 Alpha  occ. eigenvalues --   -0.60182  -0.59823  -0.59441  -0.59165  -0.58806
 Alpha  occ. eigenvalues --   -0.58724  -0.57748  -0.57661  -0.57029  -0.56840
 Alpha  occ. eigenvalues --   -0.56495  -0.56408  -0.56358  -0.56259  -0.55825
 Alpha  occ. eigenvalues --   -0.55605  -0.55537  -0.54980  -0.54809  -0.54722
 Alpha  occ. eigenvalues --   -0.54505  -0.54455  -0.54186  -0.54118  -0.54054
 Alpha  occ. eigenvalues --   -0.53586  -0.53488  -0.53335  -0.53130  -0.52647
 Alpha  occ. eigenvalues --   -0.52499  -0.52239  -0.52087  -0.52000  -0.51949
 Alpha  occ. eigenvalues --   -0.51821  -0.51528  -0.51375  -0.51221  -0.51110
 Alpha  occ. eigenvalues --   -0.50977  -0.50829  -0.50649  -0.50384  -0.50362
 Alpha  occ. eigenvalues --   -0.50193  -0.50083  -0.50071  -0.50016  -0.49912
 Alpha  occ. eigenvalues --   -0.49830  -0.49528  -0.49488  -0.49175  -0.48967
 Alpha  occ. eigenvalues --   -0.48819  -0.48517  -0.48322  -0.48309  -0.48172
 Alpha  occ. eigenvalues --   -0.47753  -0.47664  -0.47596  -0.47476  -0.47435
 Alpha  occ. eigenvalues --   -0.47384  -0.47256  -0.47142  -0.47030  -0.46733
 Alpha  occ. eigenvalues --   -0.46655  -0.46422  -0.46276  -0.46251  -0.46043
 Alpha  occ. eigenvalues --   -0.45829  -0.45362  -0.45291  -0.45238  -0.45206
 Alpha  occ. eigenvalues --   -0.45063  -0.44881  -0.44647  -0.44618  -0.44491
 Alpha  occ. eigenvalues --   -0.44340  -0.44027  -0.43764  -0.43554  -0.43463
 Alpha  occ. eigenvalues --   -0.43379  -0.43298  -0.43223  -0.42842  -0.42750
 Alpha  occ. eigenvalues --   -0.42547  -0.42486  -0.42302  -0.41903  -0.41801
 Alpha  occ. eigenvalues --   -0.41748  -0.41517  -0.41350  -0.41249  -0.40385
 Alpha  occ. eigenvalues --   -0.40355  -0.40022  -0.39895  -0.39532  -0.39290
 Alpha  occ. eigenvalues --   -0.38731  -0.38650  -0.38419  -0.37877  -0.37717
 Alpha  occ. eigenvalues --   -0.37298  -0.37110  -0.36438  -0.35862  -0.35623
 Alpha  occ. eigenvalues --   -0.35313  -0.34848  -0.34468  -0.34174  -0.33859
 Alpha  occ. eigenvalues --   -0.33153  -0.32946  -0.32766  -0.32607  -0.32349
 Alpha  occ. eigenvalues --   -0.31966  -0.31652  -0.30754  -0.25896  -0.25005
 Alpha  occ. eigenvalues --   -0.23077  -0.22595
 Alpha virt. eigenvalues --   -0.07086  -0.06681   0.00047   0.01395   0.01534
 Alpha virt. eigenvalues --    0.02959   0.03935   0.05176   0.05801   0.06256
 Alpha virt. eigenvalues --    0.07371   0.07725   0.08220   0.08428   0.09101

 Mulliken charges:
               1
     1  Mg   0.976692
     2  C    0.058578
     3  C   -0.094743
     4  C   -0.085209
     5  C   -0.093764
     6  N   -0.281726
     7  C   -0.029416
     8  C   -0.043012
     9  C   -0.125298
    10  C    0.012460
    11  C    0.001659
    12  C   -0.010406
    13  C   -0.130930
    14  H    0.042878
    15  N   -0.445374
    16  C    0.190682
    17  C   -0.134987
    18  C   -0.077560
    19  C    0.175755
    20  C    0.050245
    21  C    0.084521
    22  O   -0.232030
    23  C   -0.006869
    24  N   -0.425837
    25  C    0.033271
    26  C   -0.066395
    27  C   -0.065777
    28  C    0.117413
    29  C    0.012680
    30  C   -0.038373
    31  C   -0.046028
    32  N   -0.456174
    33  C    0.129885
    34  C   -0.197649
    35  C   -0.037892
    36  C    0.134404
    37  C    0.100506
    38  C    0.100605
    39  O   -0.229988
    40  C   -0.113295
    41  C    0.233894
    42  O   -0.266660
    43  O   -0.310568
    44  C    0.146704
    45  H    0.002563
    46  H    0.016118
    47  H   -0.012368
    48  H    0.058871
    49  H    0.046767
    50  H    0.052103
    51  H    0.037357
    52  H    0.037721
    53  H    0.037296
    54  H    0.047196
    55  H    0.071264
    56  H    0.048549
    57  H    0.055532
    58  H    0.035814
    59  H    0.048561
    60  H    0.040095
    61  H    0.049680
    62  H    0.061581
    63  H    0.055293
    64  H    0.031113
    65  H    0.057568
    66  H    0.024927
    67  H    0.035495
    68  H    0.028179
    69  H    0.032602
    70  H    0.032694
    71  H    0.045367
    72  H    0.026108
    73  H    0.053336
    74  H    0.064205
    75  H    0.009253
    76  H    0.079048
    77  H    0.052988
    78  H    0.051696
    79  H    0.052008
    80  Mg   0.971347
    81  C    0.038943
    82  C   -0.063789
    83  C   -0.068042
    84  C   -0.070935
    85  N   -0.330735
    86  C   -0.000018
    87  C   -0.089725
    88  C   -0.116102
    89  C    0.053206
    90  C    0.025450
    91  C    0.004515
    92  C   -0.095392
    93  H    0.019363
    94  N   -0.356094
    95  C    0.128544
    96  C   -0.163945
    97  C   -0.076845
    98  C    0.100278
    99  C    0.082313
   100  C    0.042680
   101  O   -0.248528
   102  C   -0.016632
   103  N   -0.352576
   104  C    0.051511
   105  C   -0.080683
   106  C   -0.038593
   107  C    0.063102
   108  C    0.035496
   109  C   -0.059057
   110  C   -0.045389
   111  N   -0.477612
   112  C    0.085350
   113  C   -0.178114
   114  C    0.069501
   115  C    0.126681
   116  C    0.091909
   117  C    0.021411
   118  O   -0.215226
   119  C   -0.052259
   120  C    0.259412
   121  O   -0.281356
   122  O   -0.358037
   123  C    0.146565
   124  H   -0.011664
   125  H    0.015366
   126  H   -0.017278
   127  H    0.044513
   128  H    0.041717
   129  H    0.029882
   130  H    0.049093
   131  H    0.038212
   132  H    0.006230
   133  H    0.056501
   134  H    0.052232
   135  H    0.051342
   136  H    0.029584
   137  H    0.036927
   138  H    0.061989
   139  H    0.053567
   140  H    0.070415
   141  H    0.049040
   142  H    0.035563
   143  H    0.035125
   144  H    0.035107
   145  H    0.039057
   146  H    0.051495
   147  H    0.028856
   148  H    0.027993
   149  H    0.038442
   150  H    0.035382
   151  H    0.040690
   152  H    0.017090
   153  H    0.059452
   154  H    0.081296
   155  H    0.049101
   156  H    0.050375
   157  H    0.074023
   158  H    0.037943
 Sum of Mulliken charges =  -0.00000

 Dipole moment (field-independent basis, Debye):
    X=             -4.3960    Y=             -3.3467    Z=             -1.9782  Tot=              5.8684
 Quadrupole moment (field-independent basis, Debye-Ang):
   XX=           -461.0244   YY=           -464.4757   ZZ=           -525.6304
   XY=              0.9793   XZ=            -18.2233   YZ=             -1.5515

 Normal termination of Gaussian 16 at Mon Sep 20 15:21:51 2021.
