 Gaussian 16, Revision A.03,
 Gaussian 16:  ES64L-G16RevA.03 25-Dec-2016

 --------------------------------
 #p wB97XD/Def2SVP td=(nstates=5)
 --------------------------------

 --------------------------------
 TDDFT excited states in gaussian
 --------------------------------
 Symbolic Z-matrix:
 Charge =  0 Multiplicity = 1

                         Standard orientation:
 ---------------------------------------------------------------------
 Center     Atomic      Atomic             Coordinates (Angstroms)
 Number     Number       Type             X           Y           Z
 ---------------------------------------------------------------------
      1         12           0       25.432531   -0.271673    0.022287
      2          6           0       22.014682   -1.075736    0.170575
      3          6           0       25.289303   -0.611280   -3.396236
      4          6           0       28.388335    1.210661   -0.084767
      5          6           0       25.377543    0.299711    3.527760
      6          7           0       23.791061   -0.530425   -1.433160
      7          6           0       22.437852   -0.855384   -1.156879
      8          6           0       21.726690   -1.389841   -2.331030
      9          6           0       22.844103   -1.323070   -3.459628
     10          6           0       24.076773   -0.822650   -2.723295
     11          6           0       22.982002   -2.653424   -4.238833
     12          6           0       20.571605   -0.556748   -2.796499
     13          6           0       20.736041    0.967446   -2.701862
     14          1           0       20.116949    1.930538   -3.788309
     15          7           0       26.728440    0.218928   -1.526050
     16          6           0       26.521248   -0.121438   -2.812473
     17          6           0       27.707913    0.199987   -3.565118
     18          6           0       28.660642    0.663827   -2.624795
     19          6           0       27.969762    0.694473   -1.325643
     20          6           0       27.864315    0.088001   -5.057855
     21          6           0       30.104663    1.054761   -2.937810
     22          8           0       30.537949    0.997581   -4.072032
     23          6           0       31.114151    1.643266   -1.997211
     24          7           0       26.591988    0.852881    1.449201
     25          6           0       27.841026    1.336642    1.164182
     26          6           0       28.614504    1.727720    2.466212
     27          6           0       27.482312    1.700389    3.537207
     28          6           0       26.427332    0.891540    2.814722
     29          6           0       29.769721    0.777874    2.864937
     30          6           0       26.772708    3.102182    3.846795
     31          6           0       26.573871    3.452036    5.277079
     32          7           0       24.109979   -0.442425    1.542925
     33          6           0       24.295330   -0.362220    2.867474
     34          6           0       23.170445   -1.065274    3.592198
     35          6           0       22.287067   -1.396934    2.516052
     36          6           0       22.835095   -0.867772    1.313419
     37          6           0       22.961508   -1.328388    5.076578
     38          6           0       20.971910   -1.902788    2.247382
     39          8           0       20.108727   -2.315889    3.005541
     40          6           0       20.762171   -1.736725    0.688178
     41          6           0       19.664555   -0.710441    0.498181
     42          8           0       19.707936    0.450963    0.737443
     43          8           0       18.603595   -1.335388   -0.121924
     44          6           0       17.586483   -0.407596   -0.626907
     45          1           0       25.287398   -0.910954   -4.446126
     46          1           0       29.428989    1.538979   -0.073533
     47          1           0       25.485779    0.369587    4.612118
     48          1           0       21.371602   -2.388031   -2.074871
     49          1           0       22.742513   -0.517328   -4.186577
     50          1           0       22.970375   -2.281964   -5.263675
     51          1           0       22.118945   -3.265500   -3.976678
     52          1           0       23.937858   -3.149807   -4.070189
     53          1           0       19.605167   -0.889104   -2.416575
     54          1           0       20.323016   -0.670876   -3.851849
     55          1           0       21.813009    1.126755   -2.638518
     56          1           0       20.336250    1.175534   -1.709251
     57          1           0       28.326010    0.985142   -5.471591
     58          1           0       26.902568   -0.146849   -5.513750
     59          1           0       28.541411   -0.756526   -5.188203
     60          1           0       30.882924    2.641088   -1.625791
     61          1           0       31.953103    1.810698   -2.672823
     62          1           0       31.503907    0.921400   -1.278710
     63          1           0       29.038612    2.720007    2.313122
     64          1           0       27.775240    1.208627    4.465179
     65          1           0       29.490308    0.259547    3.782021
     66          1           0       30.738943    1.273143    2.808816
     67          1           0       29.855030    0.001471    2.105502
     68          1           0       25.821268    3.183596    3.321719
     69          1           0       27.441237    3.834539    3.393898
     70          1           0       27.019372    4.409057    5.547838
     71          1           0       26.935778    2.688977    5.966569
     72          1           0       25.518885    3.576582    5.519696
     73          1           0       22.017269   -0.853056    5.342286
     74          1           0       23.873224   -1.033073    5.597332
     75          1           0       22.774876   -2.399203    5.156950
     76          1           0       20.521707   -2.680900    0.200007
     77          1           0       17.996958    0.560830   -0.912518
     78          1           0       16.904791   -0.297983    0.216585
     79          1           0       17.025276   -0.965440   -1.376055
     80         12           0      -25.274669    0.505502    0.126954
     81          6           0      -22.278140   -1.350188    0.449077
     82          6           0      -26.952558   -2.417260   -0.050282
     83          6           0      -27.996718    2.272271   -0.305815
     84          6           0      -23.228683    3.403236   -0.406835
     85          7           0      -24.683756   -1.697484    0.087341
     86          6           0      -23.438987   -2.150673    0.491004
     87          6           0      -23.583345   -3.604878    0.784707
     88          6           0      -24.884401   -4.014881    0.094079
     89          6           0      -25.607476   -2.645831    0.039619
     90          6           0      -24.604739   -4.552656   -1.359294
     91          6           0      -23.574586   -4.038897    2.348081
     92          6           0      -22.782814   -5.298799    2.814560
     93          1           0      -23.017478   -6.610777    2.011376
     94          7           0      -27.226475   -0.049354   -0.155253
     95          6           0      -27.687037   -1.265304   -0.175911
     96          6           0      -29.137015   -1.205248   -0.429379
     97          6           0      -29.533169    0.160184   -0.297463
     98          6           0      -28.226524    0.876876   -0.271364
     99          6           0      -30.130441   -2.384115   -0.737251
    100          6           0      -30.911312    0.816661   -0.222459
    101          8           0      -31.102709    2.047722   -0.225911
    102          6           0      -32.087233   -0.028743   -0.360154
    103          7           0      -25.529334    2.584729   -0.479344
    104          6           0      -26.823704    3.097914   -0.474222
    105          6           0      -26.749097    4.671234   -0.559939
    106          6           0      -25.231787    4.961871   -0.446462
    107          6           0      -24.605780    3.566218   -0.399895
    108          6           0      -27.483708    5.239076   -1.774630
    109          6           0      -24.803298    5.928747    0.685955
    110          6           0      -23.681434    6.947563    0.377427
    111          7           0      -23.201893    0.984323    0.014448
    112          6           0      -22.524015    2.169216   -0.254263
    113          6           0      -21.115436    1.948318   -0.046726
    114          6           0      -20.973779    0.577166    0.171958
    115          6           0      -22.272174   -0.001200    0.219771
    116          6           0      -20.098065    2.915386   -0.044169
    117          6           0      -20.024659   -0.505663    0.469700
    118          8           0      -18.814711   -0.526924    0.630801
    119          6           0      -20.859785   -1.809713    0.687414
    120          6           0      -20.339997   -2.846867   -0.292062
    121          8           0      -20.569865   -3.080053   -1.457133
    122          8           0      -19.548771   -3.615726    0.511666
    123          6           0      -19.124936   -4.940376   -0.001317
    124          1           0      -27.518404   -3.351158   -0.020735
    125          1           0      -28.933562    2.829485   -0.241310
    126          1           0      -22.608338    4.299086   -0.342360
    127          1           0      -22.798910   -4.252276    0.391949
    128          1           0      -25.514645   -4.643580    0.722598
    129          1           0      -25.299124   -5.326309   -1.685256
    130          1           0      -23.651013   -5.073245   -1.449268
    131          1           0      -24.738937   -3.687162   -2.007247
    132          1           0      -24.598624   -4.066551    2.719023
    133          1           0      -23.175268   -3.221619    2.949814
    134          1           0      -23.211730   -5.485070    3.799827
    135          1           0      -21.756088   -4.933804    2.786809
    136          1           0      -30.852956   -2.603279    0.048579
    137          1           0      -29.521646   -3.269739   -0.921441
    138          1           0      -30.817434   -2.208536   -1.565130
    139          1           0      -32.071370   -0.840073    0.368056
    140          1           0      -32.150785   -0.443004   -1.366439
    141          1           0      -32.941083    0.566398   -0.037828
    142          1           0      -27.168440    5.040533    0.376061
    143          1           0      -24.835943    5.308111   -1.401004
    144          1           0      -26.792690    5.289887   -2.616711
    145          1           0      -27.824506    6.267417   -1.658630
    146          1           0      -28.199503    4.499810   -2.132592
    147          1           0      -24.568408    5.433217    1.627835
    148          1           0      -25.649329    6.526332    1.028052
    149          1           0      -22.782381    6.480310    0.779538
    150          1           0      -23.917349    7.813395    0.996953
    151          1           0      -23.620821    7.127028   -0.695638
    152          1           0      -19.066908    2.623143   -0.241403
    153          1           0      -20.175618    3.446615    0.904975
    154          1           0      -20.342406    3.589433   -0.864384
    155          1           0      -20.755861   -2.151709    1.716977
    156          1           0      -19.254704   -5.615265    0.844237
    157          1           0      -18.088158   -5.022045   -0.326705
    158          1           0      -19.788715   -5.257648   -0.805151
 ---------------------------------------------------------------------

 SCF Done:  E(RwB97XD) =  -4070.59523021     A.U. after   19 cycles

 Excitation energies and oscillator strengths:

 Excited State   1:      Singlet-A      1.6067 eV  771.68 nm  f=0.3763  <S**2>=0.000
     309 -> 316        0.17854
     311 -> 313        0.68544
     309 <- 316        0.11727
 This state for optimization and/or second-order correction.
 Total Energy, E(TD-HF/TD-DFT) =  -4070.53618595
 Copying the excited state density for this state as the 1-particle RhoCI density.

 Excited State   2:      Singlet-A      1.6743 eV  740.53 nm  f=0.3797  <S**2>=0.000
     310 -> 315        0.19700
     312 -> 314        0.67924
     310 <- 315        0.11759

 Excited State   3:      Singlet-A      2.2066 eV  561.88 nm  f=0.0672  <S**2>=0.000
     310 -> 314        0.62033
     312 -> 315       -0.32388

 Excited State   4:      Singlet-A      2.2111 eV  560.74 nm  f=0.0985  <S**2>=0.000
     309 -> 313        0.62751
     311 -> 316       -0.31209

 Excited State   5:      Singlet-A      3.4058 eV  364.04 nm  f=0.1379  <S**2>=0.000
     308 -> 314        0.57103
     310 -> 314        0.13916
     312 -> 315        0.36119

 The electronic state is 1-A.
 Alpha  occ. eigenvalues --  -46.95702 -46.94921 -19.29822 -19.29595 -19.25314
 Alpha  occ. eigenvalues --  -19.24963 -19.24295 -19.24164 -19.23719 -19.23235
 Alpha  occ. eigenvalues --  -14.46977 -14.46469 -14.46355 -14.45992 -14.44423
 Alpha  occ. eigenvalues --  -14.44162 -14.44093 -14.43549 -10.43077 -10.43061
 Alpha  occ. eigenvalues --  -10.39487 -10.38989 -10.38823 -10.38547 -10.35767
 Alpha  occ. eigenvalues --  -10.35226 -10.35190 -10.35178 -10.34955 -10.34823
 Alpha  occ. eigenvalues --  -10.34818 -10.34812 -10.34638 -10.34584 -10.34491
 Alpha  occ. eigenvalues --  -10.34318 -10.34035 -10.33983 -10.33977 -10.33826
 Alpha  occ. eigenvalues --  -10.33642 -10.33553 -10.33307 -10.32847 -10.32545
 Alpha  occ. eigenvalues --  -10.32534 -10.32439 -10.32272 -10.32191 -10.32159
 Alpha  occ. eigenvalues --  -10.32089 -10.31954 -10.31920 -10.31864 -10.31859
 Alpha  occ. eigenvalues --  -10.31823 -10.31633 -10.31609 -10.31574 -10.31572
 Alpha  occ. eigenvalues --  -10.31504 -10.31340 -10.31290 -10.31244 -10.31051
 Alpha  occ. eigenvalues --  -10.30840 -10.30758 -10.30560 -10.30523 -10.30475
 Alpha  occ. eigenvalues --  -10.30405 -10.30347 -10.30294 -10.30286 -10.30219
 Alpha  occ. eigenvalues --  -10.29936 -10.29914 -10.29622 -10.29553 -10.29462
 Alpha  occ. eigenvalues --  -10.29417 -10.29349 -10.29165 -10.29140 -10.29083
 Alpha  occ. eigenvalues --  -10.28829  -3.21546  -3.20991  -1.95130  -1.94669
 Alpha  occ. eigenvalues --   -1.94544  -1.94503  -1.94121  -1.93980  -1.19387
 Alpha  occ. eigenvalues --   -1.18278  -1.12594  -1.12174  -1.11816  -1.11574
 Alpha  occ. eigenvalues --   -1.11137  -1.09956  -1.07177  -1.06574  -1.06016
 Alpha  occ. eigenvalues --   -1.05936  -1.05312  -1.05040  -1.04633  -1.04082
 Alpha  occ. eigenvalues --   -0.95140  -0.94736  -0.91724  -0.91294  -0.90755
 Alpha  occ. eigenvalues --   -0.90356  -0.90280  -0.89868  -0.89479  -0.89432
 Alpha  occ. eigenvalues --   -0.89065  -0.88797  -0.88266  -0.87738  -0.86629
 Alpha  occ. eigenvalues --   -0.86128  -0.86035  -0.85473  -0.84612  -0.84602
 Alpha  occ. eigenvalues --   -0.84398  -0.83582  -0.83435  -0.82799  -0.82557
 Alpha  occ. eigenvalues --   -0.82449  -0.80337  -0.79867  -0.79423  -0.79362
 Alpha  occ. eigenvalues --   -0.78942  -0.78761  -0.77960  -0.77776  -0.77076
 Alpha  occ. eigenvalues --   -0.77039  -0.74674  -0.74485  -0.73780  -0.73636
 Alpha  occ. eigenvalues --   -0.71538  -0.70852  -0.70792  -0.70658  -0.70555
 Alpha  occ. eigenvalues --   -0.69685  -0.69316  -0.69072  -0.67773  -0.67418
 Alpha  occ. eigenvalues --   -0.67275  -0.67056  -0.66957  -0.66502  -0.66349
 Alpha  occ. eigenvalues --   -0.66316  -0.64077  -0.63927  -0.62477  -0.61958
 Alpha  occ. eigenvalues --   -0.61548  -0.61408  -0.61220  -0.60987  -0.60906
 Alpha  occ. eigenvalues --   -0.60280  -0.60087  -0.59885  -0.59487  -0.59379
 Alpha  occ. eigenvalues --   -0.58518  -0.58150  -0.57998  -0.57848  -0.57343
 Alpha  occ. eigenvalues --   -0.57125  -0.57034  -0.56542  -0.56393  -0.56005
 Alpha  occ. eigenvalues --   -0.55629  -0.55499  -0.55174  -0.55126  -0.54972
 Alpha  occ. eigenvalues --   -0.54867  -0.54786  -0.54323  -0.54282  -0.54191
 Alpha  occ. eigenvalues --   -0.54025  -0.54001  -0.53594  -0.53513  -0.53494
 Alpha  occ. eigenvalues --   -0.53321  -0.53141  -0.53059  -0.52853  -0.52709
 Alpha  occ. eigenvalues --   -0.52337  -0.52081  -0.51887  -0.51585  -0.51532
 Alpha  occ. eigenvalues --   -0.51320  -0.51318  -0.51194  -0.50923  -0.50827
 Alpha  occ. eigenvalues --   -0.50722  -0.50670  -0.50533  -0.50265  -0.50090
 Alpha  occ. eigenvalues --   -0.49561  -0.49446  -0.49302  -0.49111  -0.49026
 Alpha  occ. eigenvalues --   -0.49019  -0.48846  -0.48806  -0.48718  -0.48564
 Alpha  occ. eigenvalues --   -0.48291  -0.48181  -0.47930  -0.47848  -0.47805
 Alpha  occ. eigenvalues --   -0.47455  -0.47406  -0.47148  -0.46957  -0.46806
 Alpha  occ. eigenvalues --   -0.46596  -0.46584  -0.46293  -0.46278  -0.46004
 Alpha  occ. eigenvalues --   -0.45991  -0.45817  -0.45757  -0.45608  -0.45516
 Alpha  occ. eigenvalues --   -0.45132  -0.44937  -0.44881  -0.44678  -0.44677
 Alpha  occ. eigenvalues --   -0.44503  -0.44361  -0.44218  -0.44093  -0.44079
 Alpha  occ. eigenvalues --   -0.44063  -0.43912  -0.43772  -0.43491  -0.43192
 Alpha  occ. eigenvalues --   -0.43039  -0.42789  -0.42654  -0.42428  -0.42276
 Alpha  occ. eigenvalues --   -0.42115  -0.41753  -0.41745  -0.41472  -0.41014
 Alpha  occ. eigenvalues --   -0.40660  -0.40388  -0.39791  -0.39681  -0.39319
 Alpha  occ. eigenvalues --   -0.39294  -0.39056  -0.38565  -0.38461  -0.38454
 Alpha  occ. eigenvalues --   -0.37826  -0.37689  -0.37026  -0.36639  -0.36196
 Alpha  occ. eigenvalues --   -0.35905  -0.35303  -0.35279  -0.33676  -0.33559
 Alpha  occ. eigenvalues --   -0.33354  -0.33100  -0.32721  -0.32448  -0.32424
 Alpha  occ. eigenvalues --   -0.32054  -0.31806  -0.31412  -0.26208  -0.25881
 Alpha  occ. eigenvalues --   -0.22832  -0.22765
 Alpha virt. eigenvalues --   -0.07101  -0.06612  -0.00135   0.00147   0.01936
 Alpha virt. eigenvalues --    0.02317   0.04295   0.04511   0.04671   0.05029
 Alpha virt. eigenvalues --    0.07600   0.07794   0.07863   0.08054   0.08177

 Mulliken charges:
               1
     1  Mg   0.971283
     2  C   -0.073603
     3  C   -0.088832
     4  C   -0.070287
     5  C   -0.087601
     6  N   -0.366578
     7  C    0.021406
     8  C   -0.041366
     9  C   -0.131837
    10  C    0.060132
    11  C    0.036716
    12  C   -0.026105
    13  C   -0.106250
    14  H    0.042109
    15  N   -0.438553
    16  C    0.155268
    17  C   -0.199150
    18  C   -0.050564
    19  C    0.165454
    20  C    0.110865
    21  C    0.017583
    22  O   -0.237400
    23  C   -0.009407
    24  N   -0.356990
    25  C    0.045800
    26  C   -0.080014
    27  C   -0.111634
    28  C    0.037444
    29  C    0.042918
    30  C    0.014739
    31  C   -0.045860
    32  N   -0.434686
    33  C    0.147995
    34  C   -0.205174
    35  C   -0.044360
    36  C    0.163011
    37  C    0.102099
    38  C    0.124282
    39  O   -0.206557
    40  C   -0.072883
    41  C    0.257896
    42  O   -0.210121
    43  O   -0.374948
    44  C    0.128959
    45  H   -0.001791
    46  H   -0.030332
    47  H    0.001573
    48  H    0.040558
    49  H    0.052536
    50  H    0.037923
    51  H    0.045556
    52  H    0.046121
    53  H    0.018127
    54  H    0.023467
    55  H    0.051739
    56  H    0.057216
    57  H    0.065714
    58  H    0.021455
    59  H    0.056249
    60  H    0.066083
    61  H    0.044658
    62  H    0.054417
    63  H    0.033913
    64  H    0.029519
    65  H    0.040550
    66  H    0.046087
    67  H    0.027738
    68  H    0.057253
    69  H    0.024506
    70  H    0.038655
    71  H    0.024893
    72  H    0.035862
    73  H    0.069401
    74  H    0.037717
    75  H    0.057398
    76  H    0.064962
    77  H    0.073158
    78  H    0.055964
    79  H    0.055957
    80  Mg   0.942509
    81  C   -0.052121
    82  C   -0.101154
    83  C   -0.067680
    84  C   -0.090869
    85  N   -0.320492
    86  C    0.052558
    87  C   -0.094663
    88  C   -0.080652
    89  C   -0.006139
    90  C    0.041915
    91  C   -0.020860
    92  C   -0.113914
    93  H    0.029604
    94  N   -0.428077
    95  C    0.194912
    96  C   -0.167291
    97  C   -0.071024
    98  C    0.113680
    99  C    0.058724
   100  C    0.067004
   101  O   -0.250764
   102  C   -0.004298
   103  N   -0.356225
   104  C    0.033307
   105  C   -0.062097
   106  C   -0.056375
   107  C    0.068467
   108  C    0.048400
   109  C   -0.039088
   110  C   -0.040898
   111  N   -0.439476
   112  C    0.135517
   113  C   -0.196793
   114  C   -0.015726
   115  C    0.167372
   116  C    0.061213
   117  C    0.109523
   118  O   -0.199649
   119  C   -0.077092
   120  C    0.279480
   121  O   -0.226465
   122  O   -0.373839
   123  C    0.131587
   124  H   -0.012442
   125  H    0.026175
   126  H   -0.012882
   127  H    0.024527
   128  H    0.020067
   129  H    0.029350
   130  H    0.045933
   131  H    0.057435
   132  H    0.021570
   133  H    0.024531
   134  H    0.065209
   135  H    0.071816
   136  H    0.043689
   137  H    0.040991
   138  H    0.041487
   139  H    0.037700
   140  H    0.075210
   141  H    0.054604
   142  H    0.039199
   143  H    0.033351
   144  H    0.015963
   145  H    0.046693
   146  H    0.047929
   147  H    0.025313
   148  H    0.022966
   149  H    0.043260
   150  H    0.039849
   151  H    0.045438
   152  H    0.060024
   153  H    0.054185
   154  H    0.037949
   155  H    0.081388
   156  H    0.047556
   157  H    0.063823
   158  H    0.058087
 Sum of Mulliken charges =  -0.00000

 Dipole moment (field-independent basis, Debye):
    X=             -1.6159    Y=             -2.2099    Z=              3.0424  Tot=              4.0928
 Quadrupole moment (field-independent basis, Debye-Ang):
   XX=           -275.5010   YY=           -472.8447   ZZ=           -506.5450
   XY=             35.1629   XZ=              4.9547   YZ=             12.2471

 Normal termination of Gaussian 16 at Sat Sep 18 15:29:22 2021.
