 Gaussian 16, Revision A.03,
 Gaussian 16:  ES64L-G16RevA.03 25-Dec-2016

 --------------------------------
 #p wB97XD/Def2SVP td=(nstates=5)
 --------------------------------

 --------------------------------
 TDDFT excited states in gaussian
 --------------------------------
 Symbolic Z-matrix:
 Charge =  0 Multiplicity = 1

                         Standard orientation:
 ---------------------------------------------------------------------
 Center     Atomic      Atomic             Coordinates (Angstroms)
 Number     Number       Type             X           Y           Z
 ---------------------------------------------------------------------
      1         12           0       16.349382    0.861011   -0.136298
      2          6           0       15.986499   -2.172643    1.646864
      3          6           0       13.615033    1.900370    1.352413
      4          6           0       16.192101    3.117984   -2.547388
      5          6           0       18.823579   -0.840119   -2.037055
      6          7           0       15.086968   -0.071832    1.496978
      7          6           0       15.141716   -1.196563    2.112020
      8          6           0       14.195130   -1.204276    3.329972
      9          6           0       13.097224   -0.088385    2.941488
     10          6           0       13.934313    0.612129    1.791819
     11          6           0       11.692967   -0.619408    2.449285
     12          6           0       14.979004   -0.746333    4.668149
     13          6           0       14.582748   -1.336399    6.060245
     14          1           0       13.080071   -1.770547    6.228562
     15          7           0       15.197374    2.442268   -0.428591
     16          6           0       14.108257    2.730206    0.380152
     17          6           0       13.478522    4.005201   -0.113886
     18          6           0       14.289358    4.377828   -1.266085
     19          6           0       15.296414    3.345951   -1.527833
     20          6           0       12.239483    4.578511    0.547562
     21          6           0       14.156156    5.629405   -2.105466
     22          8           0       14.843098    5.883398   -3.104666
     23          6           0       13.170171    6.649915   -1.703127
     24          7           0       17.476852    1.168221   -2.040656
     25          6           0       17.143130    2.166924   -2.837907
     26          6           0       18.264327    2.375472   -3.950508
     27          6           0       19.112852    1.004734   -3.755135
     28          6           0       18.454878    0.420719   -2.507872
     29          6           0       17.694286    2.623337   -5.386197
     30          6           0       20.663840    1.118152   -3.588939
     31          6           0       21.513370    0.588984   -4.715755
     32          7           0       17.425851   -1.039314   -0.097278
     33          6           0       18.389499   -1.533938   -0.953501
     34          6           0       18.678526   -2.869167   -0.632883
     35          6           0       17.724771   -3.169938    0.357913
     36          6           0       16.952305   -2.071120    0.651176
     37          6           0       19.653029   -3.746519   -1.240996
     38          6           0       17.358651   -4.220267    1.226786
     39          8           0       17.798162   -5.372814    1.488790
     40          6           0       16.020615   -3.694778    1.917109
     41          6           0       16.007665   -4.055890    3.357170
     42          8           0       16.781269   -3.682295    4.236423
     43          8           0       14.837840   -4.848416    3.580772
     44          6           0       14.612114   -5.338077    4.946664
     45          1           0       12.787911    2.255840    1.971134
     46          1           0       16.166125    3.905944   -3.302113
     47          1           0       19.639881   -1.326567   -2.576317
     48          1           0       13.625213   -2.131877    3.283325
     49          1           0       12.844453    0.467458    3.843747
     50          1           0       11.717119   -1.685045    2.222411
     51          1           0       11.389563   -0.146617    1.515364
     52          1           0       11.000026   -0.421703    3.267040
     53          1           0       14.989521    0.339902    4.759406
     54          1           0       16.039963   -0.948358    4.519669
     55          1           0       14.775218   -0.660667    6.894197
     56          1           0       15.065750   -2.311711    6.131804
     57          1           0       12.316636    5.655429    0.701476
     58          1           0       12.009007    4.111405    1.505081
     59          1           0       11.357583    4.269968   -0.013283
     60          1           0       12.163617    6.232182   -1.667847
     61          1           0       13.195967    7.484640   -2.403669
     62          1           0       13.348889    7.123663   -0.737866
     63          1           0       18.951179    3.186276   -3.708020
     64          1           0       18.849212    0.249514   -4.497031
     65          1           0       16.610255    2.508048   -5.389211
     66          1           0       18.294914    1.920780   -5.964272
     67          1           0       18.047345    3.605681   -5.697284
     68          1           0       20.935277    0.550133   -2.698845
     69          1           0       20.931986    2.156768   -3.394325
     70          1           0       20.785627    0.381401   -5.499110
     71          1           0       21.940153   -0.360615   -4.390853
     72          1           0       22.228838    1.316064   -5.097894
     73          1           0       20.602547   -3.211964   -1.233501
     74          1           0       19.558856   -3.892857   -2.317054
     75          1           0       19.740457   -4.660404   -0.653104
     76          1           0       15.174021   -4.156741    1.408196
     77          1           0       13.746312   -5.999875    4.981239
     78          1           0       14.287132   -4.500186    5.563730
     79          1           0       15.479434   -5.913901    5.267864
     80         12           0      -16.214556    0.312552    0.625234
     81          6           0      -16.183686   -2.512631   -1.394774
     82          6           0      -12.687524    0.477226    0.322768
     83          6           0      -16.281258    3.528517    1.529264
     84          6           0      -19.719200    0.386743    0.250225
     85          7           0      -14.614746   -0.733071   -0.752944
     86          6           0      -14.873395   -1.988480   -1.248305
     87          6           0      -13.630969   -2.639424   -1.770055
     88          6           0      -12.494727   -1.821074   -1.000875
     89          6           0      -13.269343   -0.574448   -0.444392
     90          6           0      -11.714069   -2.619885    0.160655
     91          6           0      -13.619613   -2.632569   -3.384758
     92          6           0      -12.838334   -3.686388   -3.989145
     93          1           0      -11.762310   -3.173937   -4.969794
     94          7           0      -14.722142    1.745787    1.066184
     95          6           0      -13.317080    1.617194    0.881021
     96          6           0      -12.698952    2.840784    1.363141
     97          6           0      -13.714719    3.750311    1.745714
     98          6           0      -14.989462    2.985541    1.533878
     99          6           0      -11.238276    3.077418    1.260476
    100          6           0      -13.448116    5.238752    2.224047
    101          8           0      -12.274670    5.603591    2.277956
    102          6           0      -14.531173    6.080415    2.890128
    103          7           0      -17.782792    1.725909    0.742209
    104          6           0      -17.521920    2.950090    1.266791
    105          6           0      -18.854565    3.926888    1.303594
    106          6           0      -20.001263    2.825887    1.092697
    107          6           0      -19.185911    1.555024    0.694853
    108          6           0      -19.086794    4.721994    2.643931
    109          6           0      -21.009110    3.207832    0.006977
    110          6           0      -22.517198    3.329969    0.331918
    111          7           0      -17.668557   -0.957371   -0.107578
    112          6           0      -19.024393   -0.808886   -0.152909
    113          6           0      -19.613548   -2.020894   -0.651685
    114          6           0      -18.469485   -2.703222   -1.213318
    115          6           0      -17.326569   -1.960235   -0.871784
    116          6           0      -21.079391   -2.297945   -0.821382
    117          6           0      -18.086283   -3.827866   -2.041060
    118          8           0      -18.726335   -4.768433   -2.401692
    119          6           0      -16.513848   -3.821662   -2.177754
    120          6           0      -15.802529   -5.018003   -1.507959
    121          8           0      -15.999719   -5.387994   -0.370511
    122          8           0      -14.975411   -5.663692   -2.450041
    123          6           0      -14.374964   -6.897868   -2.042317
    124          1           0      -11.599419    0.432319    0.252763
    125          1           0      -16.361049    4.615858    1.587885
    126          1           0      -20.806665    0.443367    0.174905
    127          1           0      -13.469409   -3.629322   -1.342068
    128          1           0      -11.765533   -1.484472   -1.738694
    129          1           0      -10.668017   -2.614805   -0.145430
    130          1           0      -12.081380   -3.636572    0.296944
    131          1           0      -11.837633   -2.030878    1.069908
    132          1           0      -13.163141   -1.672916   -3.626666
    133          1           0      -14.688058   -2.590555   -3.598045
    134          1           0      -13.548736   -4.322350   -4.515971
    135          1           0      -12.297096   -4.238332   -3.220742
    136          1           0      -10.696943    2.159051    1.033878
    137          1           0      -10.842888    3.386315    2.228451
    138          1           0      -11.007218    3.791220    0.469431
    139          1           0      -15.355040    6.342531    2.225575
    140          1           0      -14.051649    6.978770    3.280250
    141          1           0      -14.896861    5.515189    3.747462
    142          1           0      -18.739925    4.534720    0.406517
    143          1           0      -20.505100    2.506630    2.005275
    144          1           0      -18.960026    5.789227    2.464497
    145          1           0      -18.356548    4.400635    3.387575
    146          1           0      -20.105783    4.501157    2.963539
    147          1           0      -20.900374    2.583453   -0.879540
    148          1           0      -20.793718    4.145821   -0.504516
    149          1           0      -23.185347    2.576956   -0.086877
    150          1           0      -22.825032    4.270863   -0.124852
    151          1           0      -22.690898    3.332569    1.408659
    152          1           0      -21.188929   -3.378330   -0.918770
    153          1           0      -21.482811   -2.065294   -1.806388
    154          1           0      -21.725785   -1.836313   -0.075409
    155          1           0      -16.365438   -3.891559   -3.255703
    156          1           0      -13.483525   -6.893120   -2.670384
    157          1           0      -14.939552   -7.762227   -2.391484
    158          1           0      -14.240860   -6.927470   -0.961744
 ---------------------------------------------------------------------

 SCF Done:  E(RwB97XD) =  -4070.54865635     A.U. after   19 cycles

 Excitation energies and oscillator strengths:

 Excited State   1:      Singlet-A      1.6348 eV  758.41 nm  f=0.3866  <S**2>=0.000
     309 -> 316        0.17852
     312 -> 313        0.68603
     309 <- 316        0.11659
 This state for optimization and/or second-order correction.
 Total Energy, E(TD-HF/TD-DFT) =  -4070.48857897
 Copying the excited state density for this state as the 1-particle RhoCI density.

 Excited State   2:      Singlet-A      1.7435 eV  711.13 nm  f=0.3653  <S**2>=0.000
     310 -> 315       -0.21769
     311 -> 314        0.67302
     310 <- 315       -0.11923

 Excited State   3:      Singlet-A      2.1695 eV  571.48 nm  f=0.0788  <S**2>=0.000
     310 -> 314        0.62750
     311 -> 315        0.30976

 Excited State   4:      Singlet-A      2.1960 eV  564.60 nm  f=0.1042  <S**2>=0.000
     309 -> 313        0.63442
     312 -> 316       -0.29408

 Excited State   5:      Singlet-A      3.3076 eV  374.85 nm  f=0.0362  <S**2>=0.000
     305 -> 314       -0.13266
     307 -> 314        0.60473
     311 -> 315       -0.28141

 The electronic state is 1-A.
 Alpha  occ. eigenvalues --  -46.96193 -46.95744 -19.30383 -19.29198 -19.25693
 Alpha  occ. eigenvalues --  -19.25166 -19.24811 -19.24043 -19.23547 -19.23285
 Alpha  occ. eigenvalues --  -14.46970 -14.46730 -14.46656 -14.46309 -14.44875
 Alpha  occ. eigenvalues --  -14.44625 -14.43663 -14.43195 -10.43979 -10.43177
 Alpha  occ. eigenvalues --  -10.40465 -10.39101 -10.38541 -10.38014 -10.35946
 Alpha  occ. eigenvalues --  -10.35746 -10.35596 -10.35338 -10.35211 -10.35158
 Alpha  occ. eigenvalues --  -10.35040 -10.34850 -10.34818 -10.34715 -10.34649
 Alpha  occ. eigenvalues --  -10.34570 -10.34496 -10.34453 -10.34297 -10.33642
 Alpha  occ. eigenvalues --  -10.33393 -10.33330 -10.32771 -10.32756 -10.32737
 Alpha  occ. eigenvalues --  -10.32734 -10.32599 -10.32594 -10.32574 -10.32527
 Alpha  occ. eigenvalues --  -10.32399 -10.32387 -10.32376 -10.32298 -10.32139
 Alpha  occ. eigenvalues --  -10.32066 -10.32039 -10.31979 -10.31898 -10.31749
 Alpha  occ. eigenvalues --  -10.31725 -10.31671 -10.31669 -10.31592 -10.31480
 Alpha  occ. eigenvalues --  -10.31023 -10.30997 -10.30781 -10.30630 -10.30535
 Alpha  occ. eigenvalues --  -10.30420 -10.30404 -10.30396 -10.30255 -10.30249
 Alpha  occ. eigenvalues --  -10.30181 -10.30081 -10.29810 -10.29700 -10.29700
 Alpha  occ. eigenvalues --  -10.29682 -10.29564 -10.29480 -10.29231 -10.28686
 Alpha  occ. eigenvalues --  -10.28673  -3.22077  -3.21656  -1.95607  -1.95250
 Alpha  occ. eigenvalues --   -1.95246  -1.95008  -1.94787  -1.94603  -1.18265
 Alpha  occ. eigenvalues --   -1.16127  -1.13027  -1.12604  -1.11646  -1.10959
 Alpha  occ. eigenvalues --   -1.09524  -1.08950  -1.07808  -1.07231  -1.06937
 Alpha  occ. eigenvalues --   -1.05568  -1.05011  -1.04426  -1.03675  -1.03527
 Alpha  occ. eigenvalues --   -0.94969  -0.94232  -0.91440  -0.91142  -0.90534
 Alpha  occ. eigenvalues --   -0.90309  -0.90110  -0.89816  -0.89499  -0.89284
 Alpha  occ. eigenvalues --   -0.88871  -0.88846  -0.88429  -0.87807  -0.86233
 Alpha  occ. eigenvalues --   -0.86038  -0.85886  -0.85278  -0.84662  -0.84660
 Alpha  occ. eigenvalues --   -0.84204  -0.83969  -0.83464  -0.83140  -0.82648
 Alpha  occ. eigenvalues --   -0.82265  -0.80955  -0.79792  -0.79666  -0.79343
 Alpha  occ. eigenvalues --   -0.78907  -0.78734  -0.78090  -0.77845  -0.77187
 Alpha  occ. eigenvalues --   -0.76936  -0.75239  -0.74694  -0.74264  -0.73372
 Alpha  occ. eigenvalues --   -0.71179  -0.70958  -0.70521  -0.70453  -0.69908
 Alpha  occ. eigenvalues --   -0.69448  -0.69222  -0.68520  -0.67905  -0.67889
 Alpha  occ. eigenvalues --   -0.67596  -0.67571  -0.66877  -0.66612  -0.66497
 Alpha  occ. eigenvalues --   -0.66140  -0.64833  -0.63276  -0.62561  -0.62140
 Alpha  occ. eigenvalues --   -0.61742  -0.61477  -0.61315  -0.61026  -0.60566
 Alpha  occ. eigenvalues --   -0.60369  -0.60020  -0.59739  -0.59497  -0.59313
 Alpha  occ. eigenvalues --   -0.58982  -0.58375  -0.57772  -0.57426  -0.57323
 Alpha  occ. eigenvalues --   -0.56985  -0.56725  -0.56326  -0.55966  -0.55756
 Alpha  occ. eigenvalues --   -0.55488  -0.55224  -0.55131  -0.54900  -0.54719
 Alpha  occ. eigenvalues --   -0.54571  -0.54540  -0.54455  -0.54417  -0.54200
 Alpha  occ. eigenvalues --   -0.54084  -0.53735  -0.53629  -0.53474  -0.53099
 Alpha  occ. eigenvalues --   -0.52994  -0.52860  -0.52745  -0.52521  -0.52281
 Alpha  occ. eigenvalues --   -0.52204  -0.52053  -0.51850  -0.51727  -0.51623
 Alpha  occ. eigenvalues --   -0.51512  -0.51190  -0.51125  -0.51084  -0.50756
 Alpha  occ. eigenvalues --   -0.50752  -0.50633  -0.50406  -0.50326  -0.49973
 Alpha  occ. eigenvalues --   -0.49964  -0.49838  -0.49744  -0.49580  -0.49263
 Alpha  occ. eigenvalues --   -0.49262  -0.49037  -0.49020  -0.48964  -0.48742
 Alpha  occ. eigenvalues --   -0.48395  -0.48262  -0.48119  -0.48070  -0.47926
 Alpha  occ. eigenvalues --   -0.47617  -0.47539  -0.47309  -0.47211  -0.46921
 Alpha  occ. eigenvalues --   -0.46886  -0.46777  -0.46467  -0.46205  -0.46068
 Alpha  occ. eigenvalues --   -0.45934  -0.45916  -0.45867  -0.45513  -0.45490
 Alpha  occ. eigenvalues --   -0.45392  -0.45256  -0.45116  -0.44934  -0.44767
 Alpha  occ. eigenvalues --   -0.44654  -0.44570  -0.44462  -0.44214  -0.43905
 Alpha  occ. eigenvalues --   -0.43632  -0.43591  -0.43423  -0.43131  -0.42990
 Alpha  occ. eigenvalues --   -0.42964  -0.42923  -0.42673  -0.42549  -0.42400
 Alpha  occ. eigenvalues --   -0.42252  -0.41992  -0.41747  -0.40969  -0.40650
 Alpha  occ. eigenvalues --   -0.40437  -0.40216  -0.39925  -0.39734  -0.39424
 Alpha  occ. eigenvalues --   -0.39078  -0.38711  -0.38412  -0.38275  -0.38114
 Alpha  occ. eigenvalues --   -0.37628  -0.37607  -0.36784  -0.36599  -0.36282
 Alpha  occ. eigenvalues --   -0.35911  -0.35652  -0.35576  -0.34031  -0.33628
 Alpha  occ. eigenvalues --   -0.33492  -0.33240  -0.32634  -0.32472  -0.32326
 Alpha  occ. eigenvalues --   -0.31976  -0.31483  -0.31333  -0.26297  -0.26107
 Alpha  occ. eigenvalues --   -0.23508  -0.23021
 Alpha virt. eigenvalues --   -0.07161  -0.06981  -0.00750   0.00215   0.01802
 Alpha virt. eigenvalues --    0.02474   0.04218   0.04341   0.04457   0.05417
 Alpha virt. eigenvalues --    0.06695   0.06725   0.07049   0.07846   0.08110

 Mulliken charges:
               1
     1  Mg   0.950875
     2  C   -0.001379
     3  C   -0.092578
     4  C   -0.057176
     5  C   -0.097694
     6  N   -0.289457
     7  C   -0.079864
     8  C   -0.022193
     9  C   -0.152098
    10  C    0.044742
    11  C    0.020216
    12  C    0.019245
    13  C   -0.121912
    14  H   -0.003203
    15  N   -0.573610
    16  C    0.230533
    17  C   -0.157398
    18  C   -0.064062
    19  C    0.176540
    20  C    0.067631
    21  C    0.057106
    22  O   -0.243278
    23  C   -0.029471
    24  N   -0.281841
    25  C    0.040446
    26  C   -0.118715
    27  C   -0.082480
    28  C    0.023043
    29  C    0.039319
    30  C   -0.018065
    31  C   -0.035002
    32  N   -0.420920
    33  C    0.154605
    34  C   -0.152151
    35  C   -0.029613
    36  C    0.146311
    37  C    0.092551
    38  C    0.133364
    39  O   -0.250652
    40  C   -0.095405
    41  C    0.288742
    42  O   -0.246475
    43  O   -0.409259
    44  C    0.146612
    45  H   -0.006497
    46  H    0.019268
    47  H   -0.015422
    48  H    0.025025
    49  H    0.044104
    50  H    0.036919
    51  H    0.039601
    52  H    0.044094
    53  H    0.028288
    54  H    0.057679
    55  H    0.065774
    56  H    0.078841
    57  H    0.055812
    58  H    0.031535
    59  H    0.060660
    60  H    0.053888
    61  H    0.050878
    62  H    0.060055
    63  H    0.047728
    64  H    0.033925
    65  H    0.061751
    66  H    0.028998
    67  H    0.039273
    68  H    0.034185
    69  H    0.025072
    70  H    0.022688
    71  H    0.040438
    72  H    0.046569
    73  H    0.029884
    74  H    0.045553
    75  H    0.071948
    76  H    0.082455
    77  H    0.044098
    78  H    0.042303
    79  H    0.066703
    80  Mg   0.961236
    81  C   -0.078316
    82  C   -0.075594
    83  C   -0.094027
    84  C   -0.091084
    85  N   -0.325498
    86  C   -0.039397
    87  C   -0.084380
    88  C   -0.134165
    89  C    0.034792
    90  C    0.014958
    91  C    0.053134
    92  C   -0.094532
    93  H    0.019856
    94  N   -0.466681
    95  C    0.174492
    96  C   -0.161817
    97  C   -0.102761
    98  C    0.203871
    99  C    0.095279
   100  C    0.075970
   101  O   -0.234574
   102  C   -0.028144
   103  N   -0.403847
   104  C    0.073670
   105  C   -0.123934
   106  C   -0.024146
   107  C    0.034651
   108  C    0.024330
   109  C   -0.029772
   110  C   -0.054245
   111  N   -0.416189
   112  C    0.139508
   113  C   -0.160849
   114  C   -0.085638
   115  C    0.221648
   116  C    0.066541
   117  C    0.109051
   118  O   -0.181655
   119  C   -0.079702
   120  C    0.276337
   121  O   -0.220954
   122  O   -0.387244
   123  C    0.130536
   124  H    0.011291
   125  H   -0.019721
   126  H   -0.007262
   127  H    0.027441
   128  H    0.037079
   129  H    0.043765
   130  H    0.052465
   131  H    0.042139
   132  H    0.036873
   133  H    0.036960
   134  H    0.063549
   135  H    0.049713
   136  H    0.010641
   137  H    0.056697
   138  H    0.066324
   139  H    0.071129
   140  H    0.057576
   141  H    0.067789
   142  H    0.055950
   143  H    0.043597
   144  H    0.039925
   145  H    0.046097
   146  H    0.045268
   147  H    0.031567
   148  H    0.018926
   149  H    0.040093
   150  H    0.034103
   151  H    0.032272
   152  H    0.049924
   153  H    0.043637
   154  H    0.043597
   155  H    0.072521
   156  H    0.046042
   157  H    0.054280
   158  H    0.067040
 Sum of Mulliken charges =  -0.00000

 Dipole moment (field-independent basis, Debye):
    X=             -2.9612    Y=              6.4891    Z=              1.2220  Tot=              7.2367
 Quadrupole moment (field-independent basis, Debye-Ang):
   XX=           -560.6821   YY=           -541.4173   ZZ=           -508.0165
   XY=            -22.5405   XZ=            -58.4747   YZ=             20.0103

 Normal termination of Gaussian 16 at Sat Sep 18 23:32:12 2021.
