 Gaussian 16, Revision A.03,
 Gaussian 16:  ES64L-G16RevA.03 25-Dec-2016

 --------------------------------
 #p wB97XD/Def2SVP td=(nstates=5)
 --------------------------------

 --------------------------------
 TDDFT excited states in gaussian
 --------------------------------
 Symbolic Z-matrix:
 Charge =  0 Multiplicity = 1

                         Standard orientation:
 ---------------------------------------------------------------------
 Center     Atomic      Atomic             Coordinates (Angstroms)
 Number     Number       Type             X           Y           Z
 ---------------------------------------------------------------------
      1         12           0      -27.031715    0.762232    0.109659
      2          6           0      -25.872373   -2.307864    1.319359
      3          6           0      -28.582855   -1.042331   -2.415319
      4          6           0      -27.755215    3.618604   -1.264734
      5          6           0      -25.163968    2.362662    2.657957
      6          7           0      -26.875459   -1.440782   -0.722909
      7          6           0      -26.492272   -2.473103    0.035316
      8          6           0      -26.845743   -3.727091   -0.692161
      9          6           0      -27.318301   -3.261576   -2.091288
     10          6           0      -27.653042   -1.823459   -1.748396
     11          6           0      -26.383524   -3.394759   -3.294789
     12          6           0      -27.950258   -4.542166    0.052527
     13          6           0      -27.729864   -6.070064    0.296520
     14          1           0      -26.872967   -6.887111   -0.720124
     15          7           0      -28.182488    1.234087   -1.562714
     16          6           0      -28.874095    0.314329   -2.339817
     17          6           0      -29.640889    1.069897   -3.276153
     18          6           0      -29.322496    2.469745   -3.055707
     19          6           0      -28.401939    2.519256   -1.929647
     20          6           0      -30.518757    0.457053   -4.389197
     21          6           0      -29.766570    3.729970   -3.852672
     22          8           0      -29.429314    4.842389   -3.597335
     23          6           0      -30.745962    3.488376   -4.984401
     24          7           0      -26.524946    2.683591    0.657642
     25          6           0      -26.903022    3.714649   -0.130621
     26          6           0      -26.440212    5.105168    0.384975
     27          6           0      -25.839544    4.686020    1.795094
     28          6           0      -25.850805    3.162656    1.749537
     29          6           0      -25.392272    5.791327   -0.667469
     30          6           0      -26.552075    5.362851    3.007943
     31          6           0      -27.614297    4.565050    3.742888
     32          7           0      -25.776468    0.211924    1.737218
     33          6           0      -25.177198    0.956915    2.716718
     34          6           0      -24.484313    0.014189    3.663556
     35          6           0      -24.746216   -1.269997    3.134894
     36          6           0      -25.507056   -1.123097    1.928016
     37          6           0      -23.558015    0.361897    4.797075
     38          6           0      -24.520774   -2.701219    3.321553
     39          8           0      -23.876653   -3.258182    4.215127
     40          6           0      -25.369738   -3.393541    2.259476
     41          6           0      -24.454061   -4.372140    1.581575
     42          8           0      -23.619131   -4.086548    0.742921
     43          8           0      -24.618458   -5.519836    2.218597
     44          6           0      -23.592559   -6.540563    2.073066
     45          1           0      -28.950425   -1.586726   -3.287124
     46          1           0      -28.134695    4.584979   -1.602289
     47          1           0      -24.600680    2.857173    3.452464
     48          1           0      -25.956976   -4.354213   -0.754645
     49          1           0      -28.172037   -3.890846   -2.343127
     50          1           0      -25.418132   -3.865699   -3.108640
     51          1           0      -26.193928   -2.415290   -3.734761
     52          1           0      -26.921655   -3.996478   -4.026882
     53          1           0      -28.949020   -4.398443   -0.359157
     54          1           0      -27.938083   -4.013419    1.005516
     55          1           0      -28.743348   -6.473227    0.294640
     56          1           0      -27.288847   -6.203042    1.284078
     57          1           0      -30.286653    0.842288   -5.382132
     58          1           0      -31.568523    0.732579   -4.287134
     59          1           0      -30.496741   -0.632624   -4.433560
     60          1           0      -31.612756    2.903487   -4.676011
     61          1           0      -30.199450    3.029503   -5.808425
     62          1           0      -31.042356    4.434642   -5.436945
     63          1           0      -27.269098    5.801381    0.511606
     64          1           0      -24.810293    5.015902    1.935531
     65          1           0      -24.427839    5.732155   -0.162841
     66          1           0      -25.542287    6.863857   -0.793039
     67          1           0      -25.270438    5.237689   -1.599145
     68          1           0      -27.112058    6.180783    2.554398
     69          1           0      -25.847521    5.786360    3.723434
     70          1           0      -28.193816    4.101457    2.943621
     71          1           0      -28.144450    5.357262    4.270989
     72          1           0      -27.341366    3.721855    4.376902
     73          1           0      -23.278417    1.405298    4.943132
     74          1           0      -22.618255   -0.175221    4.668010
     75          1           0      -24.021993   -0.071321    5.682600
     76          1           0      -26.145815   -4.051057    2.651733
     77          1           0      -22.672769   -6.317909    1.533167
     78          1           0      -24.094971   -7.294112    1.465784
     79          1           0      -23.585610   -7.145188    2.980057
     80         12           0       27.224246    0.594021   -0.023274
     81          6           0       25.131256   -1.812529   -1.557693
     82          6           0       28.787850   -1.929767    1.581376
     83          6           0       29.038524    2.873571    1.470163
     84          6           0       24.960376    3.096719   -1.239515
     85          7           0       26.934142   -1.664994    0.105523
     86          6           0       26.185589   -2.381713   -0.813039
     87          6           0       26.612664   -3.805404   -0.701122
     88          6           0       27.330526   -3.892397    0.646069
     89          6           0       27.758032   -2.413910    0.823316
     90          6           0       26.334696   -4.322505    1.787575
     91          6           0       27.529635   -4.389949   -1.905306
     92          6           0       27.267353   -5.816504   -2.478022
     93          1           0       27.136051   -6.972889   -1.445068
     94          7           0       28.720262    0.445762    1.368489
     95          6           0       29.205946   -0.654032    1.864112
     96          6           0       30.246144   -0.298295    2.844791
     97          6           0       30.511005    1.096550    2.693135
     98          6           0       29.383713    1.549670    1.829686
     99          6           0       31.003206   -1.232971    3.857038
    100          6           0       31.618798    1.988219    3.253123
    101          8           0       31.652655    3.227217    3.127041
    102          6           0       32.588641    1.396217    4.161636
    103          7           0       26.886629    2.734822    0.218836
    104          6           0       27.900427    3.477910    0.817845
    105          6           0       27.636092    5.009904    0.550691
    106          6           0       26.427242    4.998443   -0.417877
    107          6           0       26.077500    3.512928   -0.531130
    108          6           0       27.497757    5.825591    1.836417
    109          6           0       26.619188    5.747921   -1.760360
    110          6           0       25.425023    6.564810   -2.306636
    111          7           0       25.413971    0.685455   -1.142592
    112          6           0       24.589991    1.743642   -1.512717
    113          6           0       23.573675    1.243164   -2.402988
    114          6           0       23.715740   -0.145272   -2.399964
    115          6           0       24.864327   -0.472292   -1.627675
    116          6           0       22.645681    1.997438   -3.137951
    117          6           0       23.211870   -1.411113   -2.952917
    118          8           0       22.312607   -1.674649   -3.735385
    119          6           0       24.147770   -2.551122   -2.433442
    120          6           0       23.271361   -3.562238   -1.715952
    121          8           0       22.825929   -3.628695   -0.592662
    122          8           0       23.151348   -4.543173   -2.657506
    123          6           0       22.644926   -5.864634   -2.216187
    124          1           0       29.360419   -2.739378    2.039542
    125          1           0       29.788291    3.586748    1.818807
    126          1           0       24.399872    3.849404   -1.797038
    127          1           0       25.811679   -4.544829   -0.681256
    128          1           0       28.263573   -4.452613    0.590505
    129          1           0       26.796461   -4.915376    2.576396
    130          1           0       25.553121   -5.000469    1.443759
    131          1           0       25.994248   -3.385915    2.227830
    132          1           0       28.581230   -4.263048   -1.650238
    133          1           0       27.461019   -3.727263   -2.768799
    134          1           0       28.192905   -6.018353   -3.018418
    135          1           0       26.373850   -5.649170   -3.079528
    136          1           0       32.060308   -1.391761    3.645121
    137          1           0       30.487285   -2.193487    3.845934
    138          1           0       31.082513   -0.848763    4.874026
    139          1           0       33.066045    0.526536    3.709377
    140          1           0       32.114171    1.105584    5.099010
    141          1           0       33.411980    2.104727    4.246910
    142          1           0       28.471344    5.354101   -0.059397
    143          1           0       25.530390    5.359660    0.085020
    144          1           0       26.451335    5.831497    2.143263
    145          1           0       27.741423    6.882334    1.731512
    146          1           0       27.955653    5.273578    2.656555
    147          1           0       27.006376    5.124108   -2.565843
    148          1           0       27.447021    6.455348   -1.695981
    149          1           0       24.960475    5.899195   -3.034280
    150          1           0       25.882567    7.391988   -2.850295
    151          1           0       24.752656    6.837843   -1.493787
    152          1           0       21.717666    1.538994   -3.478848
    153          1           0       23.192133    2.434563   -3.974254
    154          1           0       22.317271    2.785081   -2.460782
    155          1           0       24.676681   -3.009325   -3.268945
    156          1           0       23.294483   -6.585676   -2.711618
    157          1           0       21.619325   -6.105363   -2.494843
    158          1           0       22.767254   -5.968762   -1.138409
 ---------------------------------------------------------------------

 SCF Done:  E(RwB97XD) =  -4070.60134240     A.U. after   19 cycles

 Excitation energies and oscillator strengths:

 Excited State   1:      Singlet-A      1.6743 eV  740.54 nm  f=0.4015  <S**2>=0.000
     309 -> 315       -0.19690
     312 -> 314        0.67896
     309 <- 315       -0.11754
 This state for optimization and/or second-order correction.
 Total Energy, E(TD-HF/TD-DFT) =  -4070.53981483
 Copying the excited state density for this state as the 1-particle RhoCI density.

 Excited State   2:      Singlet-A      1.6772 eV  739.25 nm  f=0.3755  <S**2>=0.000
     310 -> 316        0.19179
     311 -> 313        0.68136
     310 <- 316        0.11859

 Excited State   3:      Singlet-A      2.1599 eV  574.03 nm  f=0.0976  <S**2>=0.000
     310 -> 313        0.64014
     311 -> 316       -0.28505

 Excited State   4:      Singlet-A      2.2066 eV  561.88 nm  f=0.0673  <S**2>=0.000
     309 -> 314        0.62035
     312 -> 315        0.32390

 Excited State   5:      Singlet-A      3.3636 eV  368.61 nm  f=0.0023  <S**2>=0.000
     306 -> 313       -0.35586
     308 -> 313        0.58017

 The electronic state is 1-A.
 Alpha  occ. eigenvalues --  -46.95699 -46.95107 -19.31489 -19.29595 -19.24963
 Alpha  occ. eigenvalues --  -19.24619 -19.24533 -19.24295 -19.23719 -19.23544
 Alpha  occ. eigenvalues --  -14.46360 -14.46341 -14.46166 -14.45993 -14.44422
 Alpha  occ. eigenvalues --  -14.43932 -14.43546 -14.43280 -10.43077 -10.43021
 Alpha  occ. eigenvalues --  -10.39541 -10.39486 -10.38822 -10.38371 -10.35802
 Alpha  occ. eigenvalues --  -10.35768 -10.35303 -10.35190 -10.35118 -10.34823
 Alpha  occ. eigenvalues --  -10.34812 -10.34765 -10.34734 -10.34318 -10.34034
 Alpha  occ. eigenvalues --  -10.33982 -10.33827 -10.33680 -10.33642 -10.33609
 Alpha  occ. eigenvalues --  -10.33554 -10.33515 -10.33465 -10.33330 -10.32896
 Alpha  occ. eigenvalues --  -10.32417 -10.32384 -10.32366 -10.32190 -10.32114
 Alpha  occ. eigenvalues --  -10.31954 -10.31921 -10.31823 -10.31632 -10.31609
 Alpha  occ. eigenvalues --  -10.31602 -10.31574 -10.31572 -10.31340 -10.31291
 Alpha  occ. eigenvalues --  -10.31244 -10.31169 -10.31101 -10.31023 -10.30758
 Alpha  occ. eigenvalues --  -10.30697 -10.30607 -10.30580 -10.30560 -10.30404
 Alpha  occ. eigenvalues --  -10.30318 -10.30295 -10.30250 -10.30219 -10.29929
 Alpha  occ. eigenvalues --  -10.29920 -10.29914 -10.29783 -10.29623 -10.29552
 Alpha  occ. eigenvalues --  -10.29461 -10.29193 -10.29083 -10.29019 -10.28875
 Alpha  occ. eigenvalues --  -10.28829  -3.21545  -3.21014  -1.95128  -1.94665
 Alpha  occ. eigenvalues --   -1.94609  -1.94503  -1.94172  -1.93941  -1.20547
 Alpha  occ. eigenvalues --   -1.18279  -1.13499  -1.11903  -1.11816  -1.11574
 Alpha  occ. eigenvalues --   -1.10877  -1.09956  -1.07178  -1.07005  -1.05936
 Alpha  occ. eigenvalues --   -1.05761  -1.05040  -1.04657  -1.04082  -1.03839
 Alpha  occ. eigenvalues --   -0.95387  -0.94735  -0.90756  -0.90573  -0.90468
 Alpha  occ. eigenvalues --   -0.90357  -0.89915  -0.89868  -0.89478  -0.89064
 Alpha  occ. eigenvalues --   -0.89010  -0.88797  -0.88214  -0.87413  -0.86363
 Alpha  occ. eigenvalues --   -0.86128  -0.85598  -0.85473  -0.84603  -0.84487
 Alpha  occ. eigenvalues --   -0.84398  -0.83435  -0.83330  -0.82684  -0.82557
 Alpha  occ. eigenvalues --   -0.81942  -0.80337  -0.79857  -0.79362  -0.79291
 Alpha  occ. eigenvalues --   -0.78942  -0.78890  -0.78209  -0.77776  -0.77039
 Alpha  occ. eigenvalues --   -0.77016  -0.74674  -0.74485  -0.73780  -0.73674
 Alpha  occ. eigenvalues --   -0.71443  -0.70870  -0.70851  -0.70658  -0.69982
 Alpha  occ. eigenvalues --   -0.69685  -0.69316  -0.68046  -0.67419  -0.67276
 Alpha  occ. eigenvalues --   -0.67228  -0.66957  -0.66887  -0.66609  -0.66319
 Alpha  occ. eigenvalues --   -0.66316  -0.64795  -0.63927  -0.62477  -0.61817
 Alpha  occ. eigenvalues --   -0.61634  -0.61549  -0.61220  -0.61160  -0.60462
 Alpha  occ. eigenvalues --   -0.60280  -0.60086  -0.59885  -0.59487  -0.59285
 Alpha  occ. eigenvalues --   -0.58818  -0.58150  -0.57984  -0.57848  -0.57125
 Alpha  occ. eigenvalues --   -0.56899  -0.56725  -0.56627  -0.56393  -0.55630
 Alpha  occ. eigenvalues --   -0.55572  -0.55499  -0.55191  -0.55174  -0.55126
 Alpha  occ. eigenvalues --   -0.54867  -0.54812  -0.54431  -0.54323  -0.54025
 Alpha  occ. eigenvalues --   -0.53878  -0.53594  -0.53589  -0.53494  -0.53322
 Alpha  occ. eigenvalues --   -0.53141  -0.53125  -0.52977  -0.52709  -0.52337
 Alpha  occ. eigenvalues --   -0.52113  -0.51887  -0.51606  -0.51585  -0.51319
 Alpha  occ. eigenvalues --   -0.51303  -0.51086  -0.50923  -0.50740  -0.50722
 Alpha  occ. eigenvalues --   -0.50610  -0.50293  -0.50090  -0.49997  -0.49870
 Alpha  occ. eigenvalues --   -0.49562  -0.49302  -0.49238  -0.49019  -0.48845
 Alpha  occ. eigenvalues --   -0.48798  -0.48564  -0.48303  -0.48181  -0.47910
 Alpha  occ. eigenvalues --   -0.47848  -0.47814  -0.47774  -0.47579  -0.47516
 Alpha  occ. eigenvalues --   -0.47455  -0.47304  -0.46957  -0.46937  -0.46806
 Alpha  occ. eigenvalues --   -0.46727  -0.46596  -0.46408  -0.46293  -0.45991
 Alpha  occ. eigenvalues --   -0.45757  -0.45688  -0.45608  -0.45309  -0.45149
 Alpha  occ. eigenvalues --   -0.45011  -0.44937  -0.44883  -0.44881  -0.44677
 Alpha  occ. eigenvalues --   -0.44618  -0.44218  -0.44085  -0.44079  -0.43912
 Alpha  occ. eigenvalues --   -0.43691  -0.43528  -0.43491  -0.43192  -0.43089
 Alpha  occ. eigenvalues --   -0.42933  -0.42789  -0.42579  -0.42428  -0.42147
 Alpha  occ. eigenvalues --   -0.42115  -0.41753  -0.41519  -0.41473  -0.41177
 Alpha  occ. eigenvalues --   -0.40661  -0.40268  -0.39681  -0.39318  -0.39170
 Alpha  occ. eigenvalues --   -0.39005  -0.38768  -0.38565  -0.38461  -0.38407
 Alpha  occ. eigenvalues --   -0.38129  -0.37827  -0.36639  -0.36396  -0.36069
 Alpha  occ. eigenvalues --   -0.35905  -0.35323  -0.35303  -0.33675  -0.33430
 Alpha  occ. eigenvalues --   -0.33354  -0.32984  -0.32721  -0.32424  -0.32259
 Alpha  occ. eigenvalues --   -0.32133  -0.31412  -0.31056  -0.25881  -0.25701
 Alpha  occ. eigenvalues --   -0.22861  -0.22765
 Alpha virt. eigenvalues --   -0.06813  -0.06612  -0.00135   0.00414   0.01936
 Alpha virt. eigenvalues --    0.02235   0.04295   0.05006   0.05029   0.05908
 Alpha virt. eigenvalues --    0.07711   0.07863   0.07884   0.08054   0.08213

 Mulliken charges:
               1
     1  Mg   0.943609
     2  C   -0.010005
     3  C   -0.053578
     4  C   -0.049999
     5  C   -0.089550
     6  N   -0.281369
     7  C    0.032769
     8  C   -0.102407
     9  C   -0.079017
    10  C   -0.023261
    11  C    0.044031
    12  C   -0.008072
    13  C   -0.108828
    14  H    0.034721
    15  N   -0.486607
    16  C    0.194243
    17  C   -0.162103
    18  C   -0.110902
    19  C    0.127722
    20  C    0.066862
    21  C    0.057698
    22  O   -0.197962
    23  C   -0.025307
    24  N   -0.388383
    25  C    0.068288
    26  C   -0.106271
    27  C   -0.052121
    28  C    0.081512
    29  C    0.014964
    30  C   -0.034356
    31  C   -0.035133
    32  N   -0.430951
    33  C    0.126591
    34  C   -0.181593
    35  C   -0.031508
    36  C    0.144872
    37  C    0.071975
    38  C    0.142842
    39  O   -0.213856
    40  C   -0.092615
    41  C    0.223582
    42  O   -0.247784
    43  O   -0.327062
    44  C    0.146649
    45  H   -0.006237
    46  H    0.024697
    47  H   -0.006536
    48  H    0.040489
    49  H    0.020966
    50  H    0.046987
    51  H    0.041504
    52  H    0.029949
    53  H    0.038440
    54  H    0.025590
    55  H    0.052975
    56  H    0.060559
    57  H    0.037151
    58  H    0.040617
    59  H    0.034211
    60  H    0.057493
    61  H    0.052208
    62  H    0.039928
    63  H    0.050002
    64  H    0.031450
    65  H    0.019142
    66  H    0.045886
    67  H    0.058998
    68  H    0.022758
    69  H    0.029635
    70  H    0.030058
    71  H    0.044282
    72  H    0.041681
    73  H    0.038417
    74  H    0.061915
    75  H    0.059404
    76  H    0.073411
    77  H    0.085513
    78  H    0.026932
    79  H    0.057193
    80  Mg   0.942245
    81  C   -0.052008
    82  C   -0.101240
    83  C   -0.067666
    84  C   -0.090834
    85  N   -0.320443
    86  C    0.052373
    87  C   -0.094589
    88  C   -0.080725
    89  C   -0.005864
    90  C    0.041922
    91  C   -0.020868
    92  C   -0.113939
    93  H    0.029609
    94  N   -0.428150
    95  C    0.195122
    96  C   -0.167256
    97  C   -0.071042
    98  C    0.113741
    99  C    0.058616
   100  C    0.066950
   101  O   -0.250775
   102  C   -0.004215
   103  N   -0.356444
   104  C    0.033243
   105  C   -0.062120
   106  C   -0.056352
   107  C    0.068608
   108  C    0.048388
   109  C   -0.039043
   110  C   -0.040988
   111  N   -0.439449
   112  C    0.135248
   113  C   -0.196793
   114  C   -0.015743
   115  C    0.167630
   116  C    0.061215
   117  C    0.109502
   118  O   -0.199656
   119  C   -0.077067
   120  C    0.279486
   121  O   -0.226444
   122  O   -0.373853
   123  C    0.131577
   124  H   -0.012455
   125  H    0.026171
   126  H   -0.012840
   127  H    0.024523
   128  H    0.020071
   129  H    0.029352
   130  H    0.045932
   131  H    0.057439
   132  H    0.021569
   133  H    0.024522
   134  H    0.065200
   135  H    0.071835
   136  H    0.043705
   137  H    0.041022
   138  H    0.041510
   139  H    0.037692
   140  H    0.075208
   141  H    0.054596
   142  H    0.039199
   143  H    0.033364
   144  H    0.015971
   145  H    0.046697
   146  H    0.047938
   147  H    0.025307
   148  H    0.022964
   149  H    0.043281
   150  H    0.039861
   151  H    0.045461
   152  H    0.060024
   153  H    0.054172
   154  H    0.037951
   155  H    0.081379
   156  H    0.047539
   157  H    0.063826
   158  H    0.058104
 Sum of Mulliken charges =  -0.00000

 Dipole moment (field-independent basis, Debye):
    X=              2.2949    Y=             -2.6806    Z=              0.2566  Tot=              3.5381
 Quadrupole moment (field-independent basis, Debye-Ang):
   XX=           -183.2847   YY=           -461.3188   ZZ=           -506.9273
   XY=             10.8792   XZ=              1.3458   YZ=              9.4498

 Normal termination of Gaussian 16 at Mon Sep 20 20:34:47 2021.
