 Gaussian 16, Revision A.03,
 Gaussian 16:  ES64L-G16RevA.03 25-Dec-2016

 --------------------------------
 #p wB97XD/Def2SVP td=(nstates=5)
 --------------------------------

 --------------------------------
 TDDFT excited states in gaussian
 --------------------------------
 Symbolic Z-matrix:
 Charge =  0 Multiplicity = 1

                         Standard orientation:
 ---------------------------------------------------------------------
 Center     Atomic      Atomic             Coordinates (Angstroms)
 Number     Number       Type             X           Y           Z
 ---------------------------------------------------------------------
      1         12           0      -30.955322    0.153083    0.463100
      2          6           0      -28.421641   -2.017314   -0.400539
      3          6           0      -32.723379   -1.065542   -2.200727
      4          6           0      -33.318693    2.473268    1.123122
      5          6           0      -28.850409    1.703221    2.755596
      6          7           0      -30.467624   -1.317675   -1.198207
      7          6           0      -29.524197   -2.178287   -1.226360
      8          6           0      -29.599666   -3.294802   -2.390869
      9          6           0      -30.877517   -2.743978   -3.138734
     10          6           0      -31.386853   -1.564062   -2.182363
     11          6           0      -30.596683   -2.108883   -4.599855
     12          6           0      -29.743613   -4.796811   -1.889315
     13          6           0      -29.106441   -5.926825   -2.773450
     14          1           0      -28.640517   -5.527513   -4.140963
     15          7           0      -32.754414    0.584041   -0.335798
     16          6           0      -33.405466   -0.102919   -1.434612
     17          6           0      -34.727780    0.491898   -1.598822
     18          6           0      -34.872150    1.592756   -0.718072
     19          6           0      -33.642343    1.563995    0.105559
     20          6           0      -35.635650   -0.144182   -2.588983
     21          6           0      -36.051423    2.567381   -0.490722
     22          8           0      -36.033434    3.532182    0.214298
     23          6           0      -37.272672    2.332496   -1.402561
     24          7           0      -31.090713    1.946011    1.674903
     25          6           0      -32.119737    2.724552    1.790047
     26          6           0      -31.784324    4.005858    2.604901
     27          6           0      -30.396125    3.701749    3.217473
     28          6           0      -30.064654    2.352621    2.537221
     29          6           0      -31.812118    5.259164    1.704376
     30          6           0      -30.423800    3.673571    4.776515
     31          6           0      -30.594702    5.045936    5.447770
     32          7           0      -29.004630   -0.076693    1.094516
     33          6           0      -28.330520    0.573851    2.112656
     34          6           0      -27.050981   -0.073482    2.235788
     35          6           0      -26.968318   -1.099304    1.247169
     36          6           0      -28.244238   -1.036417    0.623577
     37          6           0      -26.031996    0.306170    3.144075
     38          6           0      -26.222641   -2.182843    0.690630
     39          8           0      -25.031663   -2.532352    0.945572
     40          6           0      -27.116393   -2.735051   -0.486700
     41          6           0      -26.358004   -2.585953   -1.710383
     42          8           0      -26.276534   -1.540841   -2.355251
     43          8           0      -25.658233   -3.751002   -1.896136
     44          6           0      -24.641044   -3.652228   -2.964167
     45          1           0      -33.300324   -1.416288   -3.058427
     46          1           0      -34.136913    3.176428    1.296026
     47          1           0      -28.255230    2.180732    3.537340
     48          1           0      -28.705957   -3.100509   -2.984404
     49          1           0      -31.601948   -3.545521   -3.281680
     50          1           0      -29.536505   -1.861216   -4.659787
     51          1           0      -31.194998   -1.207092   -4.728902
     52          1           0      -30.839024   -2.739186   -5.456100
     53          1           0      -30.821393   -4.956670   -1.874161
     54          1           0      -29.566814   -4.971702   -0.827505
     55          1           0      -29.756101   -6.789777   -2.919083
     56          1           0      -28.188311   -6.272059   -2.298016
     57          1           0      -35.442825    0.241530   -3.590465
     58          1           0      -36.679766   -0.137639   -2.275805
     59          1           0      -35.398521   -1.207803   -2.593044
     60          1           0      -37.878491    1.465593   -1.136973
     61          1           0      -36.794054    2.229573   -2.375912
     62          1           0      -37.954829    3.175366   -1.509539
     63          1           0      -32.559760    4.004031    3.370555
     64          1           0      -29.669708    4.427961    2.852807
     65          1           0      -31.641195    5.082929    0.642158
     66          1           0      -31.059269    6.029475    1.874799
     67          1           0      -32.803387    5.690067    1.844828
     68          1           0      -29.471020    3.287323    5.135969
     69          1           0      -31.210660    3.000494    5.118662
     70          1           0      -30.764163    5.778598    4.658714
     71          1           0      -29.625575    5.376177    5.822014
     72          1           0      -31.296243    5.145413    6.275699
     73          1           0      -26.555815    0.472408    4.085471
     74          1           0      -25.501834    1.230954    2.917059
     75          1           0      -25.258531   -0.462500    3.136287
     76          1           0      -27.201452   -3.795563   -0.248220
     77          1           0      -23.893277   -2.945630   -2.602978
     78          1           0      -25.087726   -3.431627   -3.933091
     79          1           0      -24.167751   -4.630531   -3.049373
     80         12           0       30.995458   -0.090486   -0.627198
     81          6           0       28.005685   -1.490405    0.609757
     82          6           0       29.088972    2.186669   -2.296641
     83          6           0       33.849081    1.702760   -1.195141
     84          6           0       32.692131   -2.261665    1.632735
     85          7           0       28.758506    0.390978   -0.705013
     86          6           0       27.707563   -0.366301   -0.273159
     87          6           0       26.351385    0.301615   -0.558731
     88          6           0       26.835214    1.217796   -1.787163
     89          6           0       28.329968    1.271424   -1.591131
     90          6           0       26.469211    0.695395   -3.202320
     91          6           0       25.784314    1.190767    0.637604
     92          6           0       24.286924    1.443960    0.720206
     93          1           0       23.673068    2.836447    0.461973
     94          7           0       31.505158    1.727936   -1.655371
     95          6           0       30.566419    2.406869   -2.376509
     96          6           0       31.158291    3.386250   -3.175893
     97          6           0       32.575566    3.274135   -2.913324
     98          6           0       32.731246    2.229621   -1.861799
     99          6           0       30.408539    4.315778   -4.122601
    100          6           0       33.602950    4.134146   -3.613990
    101          8           0       33.227442    4.978614   -4.467559
    102          6           0       35.152021    3.967620   -3.425913
    103          7           0       32.923696   -0.302426    0.125494
    104          6           0       33.965039    0.565930   -0.300387
    105          6           0       35.300242   -0.006450    0.086796
    106          6           0       34.975183   -1.007327    1.216772
    107          6           0       33.466544   -1.288365    0.956246
    108          6           0       36.146837   -0.762087   -0.962336
    109          6           0       35.172474   -0.360527    2.687422
    110          6           0       36.565423   -0.358085    3.298921
    111          7           0       30.445816   -1.702315    0.689793
    112          6           0       31.235282   -2.483468    1.520313
    113          6           0       30.474120   -3.349651    2.282367
    114          6           0       29.150843   -3.041624    1.922830
    115          6           0       29.194415   -2.013045    0.966587
    116          6           0       31.017308   -4.353977    3.249202
    117          6           0       27.848321   -3.426491    2.076907
    118          8           0       27.377022   -4.378067    2.667819
    119          6           0       27.047631   -2.273928    1.435102
    120          6           0       26.445453   -1.532823    2.591357
    121          8           0       27.078784   -1.049047    3.477318
    122          8           0       25.052074   -1.565277    2.512099
    123          6           0       24.432988   -1.022588    3.671062
    124          1           0       28.527612    2.798933   -3.005824
    125          1           0       34.815786    2.109369   -1.500941
    126          1           0       33.288428   -2.985146    2.192209
    127          1           0       25.626900   -0.391505   -0.984984
    128          1           0       26.323238    2.173212   -1.675845
    129          1           0       25.576305    1.273708   -3.441406
    130          1           0       26.202607   -0.361417   -3.197074
    131          1           0       27.248274    0.925644   -3.929242
    132          1           0       26.205365    2.195356    0.596286
    133          1           0       26.177914    0.755388    1.556353
    134          1           0       24.025171    1.129968    1.731691
    135          1           0       23.805055    0.739698    0.042224
    136          1           0       30.862741    4.601143   -5.072071
    137          1           0       30.242062    5.137009   -3.425878
    138          1           0       29.498826    3.830273   -4.475947
    139          1           0       35.453928    2.977919   -3.767544
    140          1           0       35.272019    4.130770   -2.355073
    141          1           0       35.775779    4.749625   -3.858715
    142          1           0       35.869472    0.815255    0.520185
    143          1           0       35.576283   -1.914363    1.151979
    144          1           0       36.264651   -1.830223   -0.780684
    145          1           0       36.975215   -0.149813   -1.319328
    146          1           0       35.515814   -0.760399   -1.850960
    147          1           0       34.491046   -0.990973    3.258289
    148          1           0       34.816742    0.669750    2.708408
    149          1           0       36.814073    0.654386    3.615857
    150          1           0       37.286324   -0.689076    2.550844
    151          1           0       36.606827   -0.976607    4.195854
    152          1           0       30.455770   -4.212898    4.172259
    153          1           0       32.061515   -4.169916    3.504899
    154          1           0       30.875502   -5.382558    2.917073
    155          1           0       26.265932   -2.712164    0.815579
    156          1           0       24.230812   -1.820645    4.384914
    157          1           0       23.424315   -0.649101    3.490411
    158          1           0       25.048207   -0.266341    4.155608
 ---------------------------------------------------------------------

 SCF Done:  E(RwB97XD) =  -4070.59869106     A.U. after   20 cycles

 Excitation energies and oscillator strengths:

 Excited State   1:      Singlet-A      1.6462 eV  753.16 nm  f=0.4011  <S**2>=0.000
     309 -> 315       -0.19124
     311 -> 313        0.68054
     309 <- 315       -0.11798
 This state for optimization and/or second-order correction.
 Total Energy, E(TD-HF/TD-DFT) =  -4070.53819513
 Copying the excited state density for this state as the 1-particle RhoCI density.

 Excited State   2:      Singlet-A      1.7222 eV  719.92 nm  f=0.3813  <S**2>=0.000
     310 -> 316       -0.20375
     312 -> 314        0.67764
     310 <- 316       -0.11867

 Excited State   3:      Singlet-A      2.0913 eV  592.86 nm  f=0.1261  <S**2>=0.000
     309 -> 313        0.64852
     311 -> 315        0.26307

 Excited State   4:      Singlet-A      2.1613 eV  573.65 nm  f=0.1082  <S**2>=0.000
     310 -> 314        0.64085
     312 -> 316        0.28352

 Excited State   5:      Singlet-A      3.1711 eV  390.98 nm  f=0.0097  <S**2>=0.000
     306 -> 313       -0.26108
     307 -> 313        0.61004
     307 -> 317        0.13659

 The electronic state is 1-A.
 Alpha  occ. eigenvalues --  -46.96646 -46.94729 -19.30625 -19.29995 -19.25838
 Alpha  occ. eigenvalues --  -19.25191 -19.24222 -19.23275 -19.23161 -19.22920
 Alpha  occ. eigenvalues --  -14.47774 -14.47269 -14.46780 -14.46094 -14.44401
 Alpha  occ. eigenvalues --  -14.44327 -14.43814 -14.43490 -10.43553 -10.42366
 Alpha  occ. eigenvalues --  -10.40258 -10.39017 -10.38767 -10.37348 -10.36467
 Alpha  occ. eigenvalues --  -10.36361 -10.35920 -10.35685 -10.34987 -10.34975
 Alpha  occ. eigenvalues --  -10.34799 -10.34752 -10.34734 -10.34721 -10.34453
 Alpha  occ. eigenvalues --  -10.34427 -10.34296 -10.34281 -10.33974 -10.33614
 Alpha  occ. eigenvalues --  -10.33315 -10.33139 -10.33072 -10.33051 -10.32992
 Alpha  occ. eigenvalues --  -10.32871 -10.32469 -10.32370 -10.32363 -10.32232
 Alpha  occ. eigenvalues --  -10.32122 -10.32101 -10.32087 -10.32030 -10.31896
 Alpha  occ. eigenvalues --  -10.31862 -10.31834 -10.31720 -10.31706 -10.31644
 Alpha  occ. eigenvalues --  -10.31628 -10.31573 -10.31525 -10.31490 -10.31295
 Alpha  occ. eigenvalues --  -10.31140 -10.31137 -10.31134 -10.31021 -10.30656
 Alpha  occ. eigenvalues --  -10.30471 -10.30465 -10.30426 -10.30344 -10.30227
 Alpha  occ. eigenvalues --  -10.30155 -10.30018 -10.29957 -10.29787 -10.29511
 Alpha  occ. eigenvalues --  -10.29460 -10.29365 -10.29186 -10.28456 -10.28447
 Alpha  occ. eigenvalues --  -10.28189  -3.22418  -3.20773  -1.95998  -1.95526
 Alpha  occ. eigenvalues --   -1.95376  -1.94358  -1.93904  -1.93746  -1.19793
 Alpha  occ. eigenvalues --   -1.17659  -1.14752  -1.12256  -1.11736  -1.09525
 Alpha  occ. eigenvalues --   -1.09384  -1.08930  -1.07774  -1.07382  -1.06710
 Alpha  occ. eigenvalues --   -1.06289  -1.05975  -1.05459  -1.03901  -1.02929
 Alpha  occ. eigenvalues --   -0.96369  -0.94478  -0.91182  -0.90861  -0.90628
 Alpha  occ. eigenvalues --   -0.90556  -0.90260  -0.89708  -0.89521  -0.89375
 Alpha  occ. eigenvalues --   -0.89024  -0.88880  -0.88782  -0.87862  -0.86296
 Alpha  occ. eigenvalues --   -0.85838  -0.85528  -0.85332  -0.84829  -0.84209
 Alpha  occ. eigenvalues --   -0.83813  -0.83633  -0.82975  -0.82647  -0.82298
 Alpha  occ. eigenvalues --   -0.82228  -0.80521  -0.80015  -0.79304  -0.79283
 Alpha  occ. eigenvalues --   -0.78891  -0.78275  -0.77901  -0.77648  -0.77643
 Alpha  occ. eigenvalues --   -0.76755  -0.75604  -0.74237  -0.74177  -0.73430
 Alpha  occ. eigenvalues --   -0.71473  -0.71299  -0.70719  -0.70413  -0.70386
 Alpha  occ. eigenvalues --   -0.70147  -0.69160  -0.68991  -0.68248  -0.67735
 Alpha  occ. eigenvalues --   -0.67320  -0.67294  -0.66754  -0.66708  -0.66233
 Alpha  occ. eigenvalues --   -0.66063  -0.64801  -0.63523  -0.62500  -0.62156
 Alpha  occ. eigenvalues --   -0.62032  -0.61581  -0.61353  -0.61187  -0.61070
 Alpha  occ. eigenvalues --   -0.61028  -0.60252  -0.60083  -0.59840  -0.59613
 Alpha  occ. eigenvalues --   -0.58491  -0.57975  -0.57687  -0.57578  -0.57277
 Alpha  occ. eigenvalues --   -0.57151  -0.57073  -0.56435  -0.55873  -0.55805
 Alpha  occ. eigenvalues --   -0.55505  -0.55301  -0.55119  -0.55103  -0.54897
 Alpha  occ. eigenvalues --   -0.54731  -0.54669  -0.54523  -0.54214  -0.54000
 Alpha  occ. eigenvalues --   -0.53788  -0.53780  -0.53350  -0.53235  -0.53147
 Alpha  occ. eigenvalues --   -0.53059  -0.52837  -0.52785  -0.52643  -0.52544
 Alpha  occ. eigenvalues --   -0.52346  -0.52064  -0.51777  -0.51660  -0.51331
 Alpha  occ. eigenvalues --   -0.51307  -0.51050  -0.50929  -0.50827  -0.50737
 Alpha  occ. eigenvalues --   -0.50474  -0.50413  -0.50362  -0.50116  -0.49865
 Alpha  occ. eigenvalues --   -0.49743  -0.49689  -0.49273  -0.49152  -0.48959
 Alpha  occ. eigenvalues --   -0.48958  -0.48560  -0.48538  -0.48355  -0.48340
 Alpha  occ. eigenvalues --   -0.48254  -0.48139  -0.47968  -0.47946  -0.47719
 Alpha  occ. eigenvalues --   -0.47524  -0.47230  -0.47062  -0.47000  -0.46755
 Alpha  occ. eigenvalues --   -0.46661  -0.46509  -0.46298  -0.46195  -0.46068
 Alpha  occ. eigenvalues --   -0.45813  -0.45726  -0.45712  -0.45448  -0.45282
 Alpha  occ. eigenvalues --   -0.45168  -0.45154  -0.44891  -0.44872  -0.44659
 Alpha  occ. eigenvalues --   -0.44549  -0.44542  -0.44433  -0.44202  -0.44152
 Alpha  occ. eigenvalues --   -0.43645  -0.43618  -0.43445  -0.43371  -0.43289
 Alpha  occ. eigenvalues --   -0.43169  -0.43077  -0.42910  -0.42513  -0.42391
 Alpha  occ. eigenvalues --   -0.42200  -0.42102  -0.41690  -0.41352  -0.41255
 Alpha  occ. eigenvalues --   -0.40436  -0.40121  -0.39877  -0.39819  -0.39575
 Alpha  occ. eigenvalues --   -0.39519  -0.39127  -0.39038  -0.38892  -0.38627
 Alpha  occ. eigenvalues --   -0.38542  -0.38220  -0.37486  -0.37057  -0.36278
 Alpha  occ. eigenvalues --   -0.35858  -0.35667  -0.35604  -0.33805  -0.33651
 Alpha  occ. eigenvalues --   -0.33333  -0.32457  -0.32428  -0.32258  -0.32153
 Alpha  occ. eigenvalues --   -0.31976  -0.31633  -0.31291  -0.26232  -0.25581
 Alpha  occ. eigenvalues --   -0.23833  -0.23041
 Alpha virt. eigenvalues --   -0.07950  -0.06752  -0.00578   0.00236   0.02010
 Alpha virt. eigenvalues --    0.02040   0.04215   0.04568   0.04701   0.05717
 Alpha virt. eigenvalues --    0.06758   0.07445   0.07665   0.08000   0.08303

 Mulliken charges:
               1
     1  Mg   0.972933
     2  C    0.036782
     3  C   -0.076532
     4  C   -0.083433
     5  C   -0.099892
     6  N   -0.274826
     7  C   -0.097113
     8  C   -0.014397
     9  C   -0.137529
    10  C    0.065946
    11  C    0.000623
    12  C    0.023654
    13  C   -0.131708
    14  H    0.035221
    15  N   -0.532066
    16  C    0.160596
    17  C   -0.146756
    18  C   -0.100036
    19  C    0.147731
    20  C    0.050286
    21  C    0.084728
    22  O   -0.192545
    23  C   -0.045316
    24  N   -0.332394
    25  C    0.040096
    26  C   -0.054488
    27  C   -0.067555
    28  C    0.054702
    29  C    0.016565
    30  C   -0.022530
    31  C   -0.039113
    32  N   -0.427736
    33  C    0.163673
    34  C   -0.180227
    35  C    0.016098
    36  C    0.116569
    37  C    0.057367
    38  C    0.086144
    39  O   -0.253854
    40  C   -0.075565
    41  C    0.267848
    42  O   -0.262093
    43  O   -0.366860
    44  C    0.144968
    45  H   -0.003055
    46  H    0.012725
    47  H   -0.006251
    48  H    0.049185
    49  H    0.040257
    50  H    0.048170
    51  H    0.038266
    52  H    0.039841
    53  H    0.016290
    54  H    0.039526
    55  H    0.057660
    56  H    0.064723
    57  H    0.067840
    58  H    0.043807
    59  H    0.042689
    60  H    0.070908
    61  H    0.053277
    62  H    0.049671
    63  H    0.038222
    64  H    0.035329
    65  H    0.043605
    66  H    0.034028
    67  H    0.050534
    68  H    0.028771
    69  H    0.032089
    70  H    0.024455
    71  H    0.026118
    72  H    0.050563
    73  H    0.038280
    74  H    0.050030
    75  H    0.057936
    76  H    0.063362
    77  H    0.068101
    78  H    0.056061
    79  H    0.049018
    80  Mg   0.948492
    81  C    0.000493
    82  C   -0.064819
    83  C   -0.087377
    84  C   -0.085804
    85  N   -0.297910
    86  C   -0.037987
    87  C   -0.036591
    88  C   -0.151879
    89  C    0.082343
    90  C    0.029912
    91  C   -0.000984
    92  C   -0.097747
    93  H    0.043779
    94  N   -0.425997
    95  C    0.122750
    96  C   -0.157864
    97  C   -0.085142
    98  C    0.168943
    99  C    0.086383
   100  C    0.032047
   101  O   -0.271702
   102  C   -0.011385
   103  N   -0.428254
   104  C    0.087201
   105  C   -0.091978
   106  C   -0.113487
   107  C    0.082521
   108  C    0.055278
   109  C   -0.033199
   110  C   -0.022704
   111  N   -0.388552
   112  C    0.120877
   113  C   -0.174830
   114  C    0.038954
   115  C    0.121306
   116  C    0.098346
   117  C    0.025954
   118  O   -0.206327
   119  C   -0.074482
   120  C    0.254039
   121  O   -0.209737
   122  O   -0.358080
   123  C    0.118662
   124  H   -0.004324
   125  H   -0.015949
   126  H    0.009953
   127  H    0.028213
   128  H    0.041466
   129  H    0.039149
   130  H    0.042961
   131  H    0.043387
   132  H    0.044039
   133  H    0.047711
   134  H    0.049683
   135  H    0.043089
   136  H    0.069594
   137  H    0.065468
   138  H    0.029160
   139  H    0.067694
   140  H    0.050336
   141  H    0.051430
   142  H    0.031769
   143  H    0.027916
   144  H    0.049142
   145  H    0.044382
   146  H    0.015812
   147  H    0.024918
   148  H    0.036999
   149  H    0.036023
   150  H    0.032843
   151  H    0.043088
   152  H    0.055746
   153  H    0.023760
   154  H    0.063716
   155  H    0.047919
   156  H    0.048946
   157  H    0.048466
   158  H    0.062035
 Sum of Mulliken charges =  -0.00000

 Dipole moment (field-independent basis, Debye):
    X=             -3.0297    Y=             -1.5758    Z=             -2.1253  Tot=              4.0224
 Quadrupole moment (field-independent basis, Debye-Ang):
   XX=           -122.4037   YY=           -527.9765   ZZ=           -503.1427
   XY=             25.0930   XZ=             39.4260   YZ=             41.1746

 Normal termination of Gaussian 16 at Mon Sep 20 09:52:35 2021.
