 Gaussian 16, Revision A.03,
 Gaussian 16:  ES64L-G16RevA.03 25-Dec-2016

 --------------------------------
 #p wB97XD/Def2SVP td=(nstates=5)
 --------------------------------

 --------------------------------
 TDDFT excited states in gaussian
 --------------------------------
 Symbolic Z-matrix:
 Charge =  0 Multiplicity = 1

                         Standard orientation:
 ---------------------------------------------------------------------
 Center     Atomic      Atomic             Coordinates (Angstroms)
 Number     Number       Type             X           Y           Z
 ---------------------------------------------------------------------
      1         12           0      -30.095589   -0.550738    0.497495
      2          6           0      -30.389474    2.174932   -1.543655
      3          6           0      -28.598901   -2.295562   -1.914522
      4          6           0      -30.116492   -3.105347    2.521371
      5          6           0      -32.221012    1.194145    2.764765
      6          7           0      -29.695004   -0.166823   -1.600651
      7          6           0      -29.663608    1.092254   -2.104392
      8          6           0      -28.810416    1.181050   -3.340051
      9          6           0      -28.485206   -0.346804   -3.586409
     10          6           0      -29.022518   -1.014187   -2.338983
     11          6           0      -29.033294   -0.917811   -4.916262
     12          6           0      -27.526830    2.206860   -3.207720
     13          6           0      -27.265132    3.205891   -4.345128
     14          1           0      -27.820630    2.832347   -5.755371
     15          7           0      -29.324859   -2.307721    0.396872
     16          6           0      -28.734112   -2.915153   -0.665081
     17          6           0      -28.414042   -4.300817   -0.422761
     18          6           0      -28.656358   -4.485643    0.904893
     19          6           0      -29.501179   -3.312591    1.289686
     20          6           0      -27.958219   -5.125585   -1.612531
     21          6           0      -28.356091   -5.718984    1.779725
     22          8           0      -28.665396   -5.814980    2.944558
     23          6           0      -27.666431   -6.830879    1.045805
     24          7           0      -31.201911   -0.929682    2.310757
     25          6           0      -30.891689   -2.051159    2.985750
     26          6           0      -31.559961   -2.062359    4.364168
     27          6           0      -31.965131   -0.562987    4.567861
     28          6           0      -31.819251   -0.050646    3.120285
     29          6           0      -32.758980   -3.073044    4.614363
     30          6           0      -31.043400    0.287829    5.520568
     31          6           0      -29.569834    0.477979    5.274220
     32          7           0      -31.071386    1.328478    0.715793
     33          6           0      -31.973378    1.884977    1.628408
     34          6           0      -32.391972    3.232547    1.221945
     35          6           0      -31.779463    3.395797   -0.029622
     36          6           0      -31.007241    2.212231   -0.251086
     37          6           0      -33.224941    4.225398    1.991318
     38          6           0      -31.618214    4.242021   -1.121930
     39          8           0      -32.089803    5.330567   -1.411362
     40          6           0      -30.537542    3.607873   -2.035473
     41          6           0      -31.144949    3.729954   -3.380556
     42          8           0      -32.008426    2.982342   -3.846076
     43          8           0      -30.711106    4.856623   -4.017032
     44          6           0      -31.408459    5.318296   -5.221468
     45          1           0      -27.944820   -2.765650   -2.652152
     46          1           0      -30.118666   -3.897522    3.271991
     47          1           0      -32.826888    1.623044    3.566589
     48          1           0      -29.410142    1.478402   -4.200358
     49          1           0      -27.405237   -0.486825   -3.545283
     50          1           0      -29.918732   -1.516856   -4.703903
     51          1           0      -28.275584   -1.570775   -5.349435
     52          1           0      -29.279652   -0.060281   -5.542517
     53          1           0      -26.662175    1.551707   -3.100979
     54          1           0      -27.633280    2.838911   -2.326651
     55          1           0      -26.195464    3.285205   -4.537255
     56          1           0      -27.574605    4.204509   -4.036998
     57          1           0      -28.684198   -5.213819   -2.420935
     58          1           0      -27.817776   -6.202151   -1.517526
     59          1           0      -27.020126   -4.627887   -1.858331
     60          1           0      -26.742595   -6.475954    0.589630
     61          1           0      -28.455363   -7.178552    0.379184
     62          1           0      -27.290044   -7.681230    1.613309
     63          1           0      -30.740330   -2.397709    5.000656
     64          1           0      -33.024348   -0.519859    4.822403
     65          1           0      -32.934592   -3.657352    3.711442
     66          1           0      -33.696990   -2.534430    4.743690
     67          1           0      -32.664524   -3.736747    5.475178
     68          1           0      -31.224837   -0.237397    6.458637
     69          1           0      -31.395582    1.313522    5.625482
     70          1           0      -29.248116   -0.178829    4.464955
     71          1           0      -28.995239    0.191159    6.154814
     72          1           0      -29.256533    1.467070    4.940689
     73          1           0      -34.225210    4.339124    1.575790
     74          1           0      -32.721318    5.192038    2.010316
     75          1           0      -33.345637    3.741590    2.960901
     76          1           0      -29.569465    4.095521   -1.919430
     77          1           0      -31.296343    6.392069   -5.376194
     78          1           0      -32.428222    4.939867   -5.272843
     79          1           0      -31.021052    4.858933   -6.130680
     80         12           0       30.795118    0.556433   -0.298933
     81          6           0       28.226155   -1.948239   -0.334360
     82          6           0       28.596919    2.380256    1.846170
     83          6           0       33.313826    2.523198    0.738759
     84          6           0       32.920047   -1.704550   -1.737314
     85          7           0       28.708510    0.196848    0.636612
     86          6           0       27.860109   -0.857358    0.462413
     87          6           0       26.517442   -0.663121    1.249845
     88          6           0       26.576224    0.906855    1.570022
     89          6           0       28.068230    1.154236    1.414066
     90          6           0       25.792977    1.777097    0.614061
     91          6           0       26.347622   -1.635735    2.405186
     92          6           0       24.959032   -2.303474    2.581152
     93          1           0       23.921946   -1.767248    3.674209
     94          7           0       30.942784    2.338916    1.060074
     95          6           0       29.877931    2.951535    1.753134
     96          6           0       30.386386    4.149454    2.432523
     97          6           0       31.787312    4.219917    2.063479
     98          6           0       32.092135    2.997482    1.351537
     99          6           0       29.633888    5.054610    3.333558
    100          6           0       32.708765    5.371703    2.377784
    101          8           0       32.224455    6.380491    2.839325
    102          6           0       34.201747    5.359621    2.143451
    103          7           0       32.764555    0.322696   -0.393707
    104          6           0       33.591672    1.379402   -0.023521
    105          6           0       35.028354    0.974898   -0.362068
    106          6           0       34.860626   -0.253904   -1.328945
    107          6           0       33.404845   -0.542042   -1.180107
    108          6           0       36.014333    2.088775   -0.872870
    109          6           0       35.792855   -1.486473   -1.119217
    110          6           0       36.599268   -1.961341   -2.283763
    111          7           0       30.642043   -1.352611   -1.028840
    112          6           0       31.577827   -2.145442   -1.670029
    113          6           0       30.936934   -3.334097   -2.265019
    114          6           0       29.612044   -3.293124   -1.680098
    115          6           0       29.528099   -2.099561   -0.956623
    116          6           0       31.505321   -4.397698   -3.167149
    117          6           0       28.314098   -4.028948   -1.636388
    118          8           0       28.009309   -5.098643   -2.081484
    119          6           0       27.448267   -3.222959   -0.673530
    120          6           0       26.166584   -2.892227   -1.378251
    121          8           0       26.200948   -2.151270   -2.337125
    122          8           0       24.975215   -3.411190   -0.788033
    123          6           0       23.682052   -2.921936   -1.355171
    124          1           0       27.935561    2.993161    2.462390
    125          1           0       34.233379    3.064898    0.966519
    126          1           0       33.585071   -2.305744   -2.360347
    127          1           0       25.649838   -0.733076    0.594371
    128          1           0       26.333787    1.109834    2.613087
    129          1           0       26.392379    1.925999   -0.283778
    130          1           0       25.553917    2.698940    1.144123
    131          1           0       24.845108    1.407187    0.221764
    132          1           0       26.513432   -1.054711    3.311865
    133          1           0       27.189549   -2.327631    2.383551
    134          1           0       25.214364   -3.337693    2.813261
    135          1           0       24.371381   -2.327186    1.663353
    136          1           0       29.332412    5.906196    2.724379
    137          1           0       30.318803    5.475415    4.069772
    138          1           0       28.766441    4.687779    3.883565
    139          1           0       34.741384    6.224670    2.528415
    140          1           0       34.324477    5.345477    1.060405
    141          1           0       34.786661    4.500430    2.469634
    142          1           0       35.423152    0.738299    0.626413
    143          1           0       34.899576    0.115663   -2.353207
    144          1           0       35.460400    2.946196   -1.256028
    145          1           0       36.706343    1.677715   -1.607665
    146          1           0       36.662610    2.417140   -0.060752
    147          1           0       35.192528   -2.321296   -0.757733
    148          1           0       36.427066   -1.262782   -0.261508
    149          1           0       36.172415   -2.892329   -2.656214
    150          1           0       37.619183   -2.169527   -1.960735
    151          1           0       36.676603   -1.300931   -3.147192
    152          1           0       30.714430   -4.911219   -3.713471
    153          1           0       32.055897   -5.084343   -2.523510
    154          1           0       32.261586   -3.929138   -3.797185
    155          1           0       27.359754   -3.801454    0.246165
    156          1           0       23.473368   -3.457999   -2.281172
    157          1           0       23.749833   -1.868427   -1.625681
    158          1           0       22.873413   -3.041763   -0.634426
 ---------------------------------------------------------------------

 SCF Done:  E(RwB97XD) =  -4070.60217853     A.U. after   19 cycles

 Excitation energies and oscillator strengths:

 Excited State   1:      Singlet-A      1.6113 eV  769.45 nm  f=0.3980  <S**2>=0.000
     309 -> 316        0.17521
     311 -> 313        0.68624
     309 <- 316        0.11591
 This state for optimization and/or second-order correction.
 Total Energy, E(TD-HF/TD-DFT) =  -4070.54296285
 Copying the excited state density for this state as the 1-particle RhoCI density.

 Excited State   2:      Singlet-A      1.7217 eV  720.11 nm  f=0.3746  <S**2>=0.000
     310 -> 315        0.19590
     312 -> 314        0.67981
     310 <- 315        0.11419

 Excited State   3:      Singlet-A      2.1827 eV  568.04 nm  f=0.1248  <S**2>=0.000
     309 -> 313        0.63923
     311 -> 316       -0.28433

 Excited State   4:      Singlet-A      2.2242 eV  557.42 nm  f=0.0564  <S**2>=0.000
     310 -> 314        0.61467
     312 -> 315       -0.33872

 Excited State   5:      Singlet-A      3.1514 eV  393.43 nm  f=0.0019  <S**2>=0.000
     306 -> 313       -0.12227
     308 -> 313        0.66852
     311 -> 316        0.10229

 The electronic state is 1-A.
 Alpha  occ. eigenvalues --  -46.95680 -46.94306 -19.30533 -19.29121 -19.25699
 Alpha  occ. eigenvalues --  -19.24988 -19.24812 -19.23275 -19.22988 -19.22683
 Alpha  occ. eigenvalues --  -14.47422 -14.46287 -14.46285 -14.45637 -14.44646
 Alpha  occ. eigenvalues --  -14.43964 -14.43765 -14.43325 -10.44135 -10.42093
 Alpha  occ. eigenvalues --  -10.39958 -10.39462 -10.38466 -10.37519 -10.36059
 Alpha  occ. eigenvalues --  -10.35441 -10.35352 -10.34940 -10.34722 -10.34622
 Alpha  occ. eigenvalues --  -10.34500 -10.34454 -10.34385 -10.34322 -10.34304
 Alpha  occ. eigenvalues --  -10.34294 -10.34237 -10.33524 -10.33249 -10.33136
 Alpha  occ. eigenvalues --  -10.33119 -10.32994 -10.32922 -10.32905 -10.32871
 Alpha  occ. eigenvalues --  -10.32807 -10.32716 -10.32667 -10.32109 -10.32082
 Alpha  occ. eigenvalues --  -10.32014 -10.31995 -10.31911 -10.31891 -10.31849
 Alpha  occ. eigenvalues --  -10.31748 -10.31723 -10.31647 -10.31647 -10.31604
 Alpha  occ. eigenvalues --  -10.31536 -10.31388 -10.31355 -10.31314 -10.31062
 Alpha  occ. eigenvalues --  -10.30874 -10.30621 -10.30577 -10.30509 -10.30416
 Alpha  occ. eigenvalues --  -10.30409 -10.30380 -10.30310 -10.30188 -10.29926
 Alpha  occ. eigenvalues --  -10.29907 -10.29906 -10.29758 -10.29739 -10.29645
 Alpha  occ. eigenvalues --  -10.29620 -10.29556 -10.29295 -10.29013 -10.29008
 Alpha  occ. eigenvalues --  -10.28055  -3.21715  -3.20564  -1.95247  -1.94836
 Alpha  occ. eigenvalues --   -1.94687  -1.94126  -1.93709  -1.93574  -1.17550
 Alpha  occ. eigenvalues --   -1.17000  -1.14013  -1.13780  -1.12417  -1.11210
 Alpha  occ. eigenvalues --   -1.10121  -1.08094  -1.07644  -1.06757  -1.06598
 Alpha  occ. eigenvalues --   -1.06111  -1.05611  -1.05013  -1.04822  -1.03556
 Alpha  occ. eigenvalues --   -0.94775  -0.94310  -0.91608  -0.91283  -0.90781
 Alpha  occ. eigenvalues --   -0.90365  -0.90354  -0.89893  -0.89853  -0.89551
 Alpha  occ. eigenvalues --   -0.89393  -0.88484  -0.88192  -0.87606  -0.86420
 Alpha  occ. eigenvalues --   -0.86290  -0.85870  -0.85475  -0.84638  -0.84498
 Alpha  occ. eigenvalues --   -0.84425  -0.83756  -0.82992  -0.82514  -0.82484
 Alpha  occ. eigenvalues --   -0.82194  -0.81011  -0.80103  -0.79454  -0.79377
 Alpha  occ. eigenvalues --   -0.78894  -0.78764  -0.78277  -0.77630  -0.77184
 Alpha  occ. eigenvalues --   -0.77138  -0.74664  -0.74615  -0.73771  -0.73667
 Alpha  occ. eigenvalues --   -0.71560  -0.71461  -0.71011  -0.70916  -0.70124
 Alpha  occ. eigenvalues --   -0.69936  -0.69316  -0.68704  -0.67874  -0.67345
 Alpha  occ. eigenvalues --   -0.67082  -0.66907  -0.66750  -0.66572  -0.66340
 Alpha  occ. eigenvalues --   -0.65747  -0.64364  -0.63696  -0.63161  -0.61822
 Alpha  occ. eigenvalues --   -0.61524  -0.61291  -0.61267  -0.61211  -0.61063
 Alpha  occ. eigenvalues --   -0.60347  -0.59877  -0.59792  -0.59650  -0.59530
 Alpha  occ. eigenvalues --   -0.58515  -0.58328  -0.57620  -0.57441  -0.57234
 Alpha  occ. eigenvalues --   -0.57091  -0.56587  -0.56400  -0.56252  -0.55851
 Alpha  occ. eigenvalues --   -0.55595  -0.55330  -0.55118  -0.55075  -0.54860
 Alpha  occ. eigenvalues --   -0.54593  -0.54562  -0.54337  -0.54186  -0.54177
 Alpha  occ. eigenvalues --   -0.53786  -0.53689  -0.53603  -0.53257  -0.53194
 Alpha  occ. eigenvalues --   -0.53046  -0.52856  -0.52533  -0.52419  -0.52358
 Alpha  occ. eigenvalues --   -0.52134  -0.51885  -0.51828  -0.51694  -0.51494
 Alpha  occ. eigenvalues --   -0.51258  -0.51257  -0.51031  -0.51010  -0.50718
 Alpha  occ. eigenvalues --   -0.50663  -0.50545  -0.50486  -0.50111  -0.50015
 Alpha  occ. eigenvalues --   -0.49940  -0.49716  -0.49620  -0.49095  -0.49026
 Alpha  occ. eigenvalues --   -0.48950  -0.48745  -0.48578  -0.48431  -0.48388
 Alpha  occ. eigenvalues --   -0.48359  -0.48148  -0.48001  -0.47920  -0.47768
 Alpha  occ. eigenvalues --   -0.47620  -0.47400  -0.47217  -0.47144  -0.46921
 Alpha  occ. eigenvalues --   -0.46768  -0.46615  -0.46453  -0.46074  -0.45805
 Alpha  occ. eigenvalues --   -0.45765  -0.45736  -0.45584  -0.45507  -0.45419
 Alpha  occ. eigenvalues --   -0.45261  -0.45071  -0.44841  -0.44832  -0.44799
 Alpha  occ. eigenvalues --   -0.44568  -0.44502  -0.44412  -0.44374  -0.44067
 Alpha  occ. eigenvalues --   -0.43851  -0.43781  -0.43568  -0.43509  -0.43155
 Alpha  occ. eigenvalues --   -0.43036  -0.42983  -0.42747  -0.42692  -0.42487
 Alpha  occ. eigenvalues --   -0.42449  -0.42170  -0.41493  -0.41200  -0.41114
 Alpha  occ. eigenvalues --   -0.40434  -0.40380  -0.40096  -0.39670  -0.39370
 Alpha  occ. eigenvalues --   -0.39176  -0.39028  -0.38628  -0.38421  -0.38307
 Alpha  occ. eigenvalues --   -0.37783  -0.37139  -0.37015  -0.36408  -0.36341
 Alpha  occ. eigenvalues --   -0.35474  -0.35438  -0.34948  -0.34639  -0.33651
 Alpha  occ. eigenvalues --   -0.33408  -0.33337  -0.32931  -0.32415  -0.32063
 Alpha  occ. eigenvalues --   -0.31879  -0.31861  -0.30930  -0.26243  -0.25763
 Alpha  occ. eigenvalues --   -0.22936  -0.22431
 Alpha virt. eigenvalues --   -0.07359  -0.06167   0.00153   0.00418   0.02298
 Alpha virt. eigenvalues --    0.02703   0.04219   0.04582   0.04805   0.05873
 Alpha virt. eigenvalues --    0.06495   0.06900   0.07569   0.07961   0.08488

 Mulliken charges:
               1
     1  Mg   0.992858
     2  C    0.010981
     3  C   -0.117783
     4  C   -0.080783
     5  C   -0.116832
     6  N   -0.330649
     7  C   -0.016948
     8  C   -0.037133
     9  C   -0.154048
    10  C    0.076305
    11  C    0.047352
    12  C    0.007287
    13  C   -0.126098
    14  H    0.026438
    15  N   -0.509757
    16  C    0.180075
    17  C   -0.131334
    18  C   -0.119638
    19  C    0.182776
    20  C    0.046274
    21  C    0.071566
    22  O   -0.201863
    23  C   -0.025077
    24  N   -0.321162
    25  C    0.020784
    26  C   -0.086083
    27  C   -0.050032
    28  C   -0.008378
    29  C    0.024206
    30  C   -0.010771
    31  C   -0.046763
    32  N   -0.398759
    33  C    0.159745
    34  C   -0.187023
    35  C    0.034895
    36  C    0.091490
    37  C    0.104744
    38  C    0.050713
    39  O   -0.214258
    40  C   -0.074746
    41  C    0.264651
    42  O   -0.268233
    43  O   -0.355858
    44  C    0.151818
    45  H   -0.008459
    46  H    0.016469
    47  H   -0.010528
    48  H    0.043139
    49  H    0.031878
    50  H    0.045734
    51  H    0.038574
    52  H    0.045932
    53  H    0.033218
    54  H    0.041153
    55  H    0.049114
    56  H    0.062528
    57  H    0.060518
    58  H    0.029681
    59  H    0.066535
    60  H    0.061465
    61  H    0.069372
    62  H    0.048029
    63  H    0.035049
    64  H    0.029205
    65  H    0.038304
    66  H    0.025931
    67  H    0.050239
    68  H    0.032278
    69  H    0.032293
    70  H    0.028526
    71  H    0.041156
    72  H    0.043827
    73  H    0.059457
    74  H    0.063954
    75  H    0.019684
    76  H    0.072649
    77  H    0.061560
    78  H    0.057173
    79  H    0.029417
    80  Mg   0.981314
    81  C   -0.076521
    82  C   -0.054088
    83  C   -0.079928
    84  C   -0.124463
    85  N   -0.312984
    86  C   -0.015779
    87  C   -0.066002
    88  C   -0.119734
    89  C    0.049019
    90  C    0.041518
    91  C    0.037335
    92  C   -0.107612
    93  H    0.023521
    94  N   -0.419554
    95  C    0.112389
    96  C   -0.143802
    97  C   -0.073710
    98  C    0.168572
    99  C    0.081231
   100  C    0.035495
   101  O   -0.234910
   102  C   -0.012114
   103  N   -0.451715
   104  C    0.092034
   105  C   -0.128660
   106  C   -0.033765
   107  C    0.089189
   108  C    0.013862
   109  C    0.001045
   110  C   -0.047271
   111  N   -0.442266
   112  C    0.135388
   113  C   -0.189441
   114  C   -0.106328
   115  C    0.178280
   116  C    0.090757
   117  C    0.132712
   118  O   -0.174085
   119  C   -0.015164
   120  C    0.278312
   121  O   -0.234437
   122  O   -0.404963
   123  C    0.133373
   124  H   -0.006127
   125  H   -0.037486
   126  H   -0.011821
   127  H    0.025631
   128  H    0.028721
   129  H    0.043284
   130  H    0.042625
   131  H    0.036689
   132  H    0.037375
   133  H    0.040621
   134  H    0.055483
   135  H    0.048100
   136  H    0.055522
   137  H    0.053851
   138  H    0.036845
   139  H    0.051262
   140  H    0.050115
   141  H    0.057951
   142  H    0.051520
   143  H    0.033591
   144  H    0.044830
   145  H    0.038344
   146  H    0.031057
   147  H    0.038620
   148  H    0.025387
   149  H    0.036246
   150  H    0.036920
   151  H    0.035853
   152  H    0.071574
   153  H    0.053875
   154  H    0.034438
   155  H    0.072702
   156  H    0.063774
   157  H    0.051497
   158  H    0.065079
 Sum of Mulliken charges =  -0.00000

 Dipole moment (field-independent basis, Debye):
    X=              6.0373    Y=             -3.4008    Z=             -0.4886  Tot=              6.9464
 Quadrupole moment (field-independent basis, Debye-Ang):
   XX=           -609.9273   YY=           -554.1328   ZZ=           -501.4694
   XY=            103.9407   XZ=            -47.2647   YZ=              1.1769

 Normal termination of Gaussian 16 at Sat Sep 18 11:22:17 2021.
