 Gaussian 16, Revision A.03,
 Gaussian 16:  ES64L-G16RevA.03 25-Dec-2016

 --------------------------------
 #p wB97XD/Def2SVP td=(nstates=5)
 --------------------------------

 --------------------------------
 TDDFT excited states in gaussian
 --------------------------------
 Symbolic Z-matrix:
 Charge =  0 Multiplicity = 1

                         Standard orientation:
 ---------------------------------------------------------------------
 Center     Atomic      Atomic             Coordinates (Angstroms)
 Number     Number       Type             X           Y           Z
 ---------------------------------------------------------------------
      1         12           0      -32.923312   -0.280894   -0.492407
      2          6           0      -30.331046    1.702334    0.650623
      3          6           0      -31.376453   -3.063867    1.074472
      4          6           0      -35.709685   -2.187669   -1.077643
      5          6           0      -34.647068    2.502193   -1.593362
      6          7           0      -31.001494   -0.613066    0.599656
      7          6           0      -30.155041    0.385599    1.033191
      8          6           0      -29.053395   -0.105740    2.045417
      9          6           0      -29.158611   -1.691849    1.852150
     10          6           0      -30.583909   -1.871353    1.084694
     11          6           0      -27.994744   -2.457626    1.114994
     12          6           0      -29.260845    0.307032    3.460158
     13          6           0      -28.240564    1.173107    4.173688
     14          1           0      -28.151145    0.993353    5.697646
     15          7           0      -33.431492   -2.385230   -0.139389
     16          6           0      -32.591824   -3.330961    0.478619
     17          6           0      -33.210915   -4.617676    0.442124
     18          6           0      -34.585571   -4.352399   -0.057547
     19          6           0      -34.656818   -2.911332   -0.451789
     20          6           0      -32.616630   -5.876176    1.083004
     21          6           0      -35.639392   -5.471143   -0.130708
     22          8           0      -35.506684   -6.641366    0.215835
     23          6           0      -37.052110   -5.054712   -0.340754
     24          7           0      -35.055417    0.141981   -1.096670
     25          6           0      -35.890927   -0.854576   -1.419837
     26          6           0      -37.256878   -0.214228   -1.662481
     27          6           0      -36.961763    1.334531   -1.933896
     28          6           0      -35.417086    1.364452   -1.542777
     29          6           0      -37.907861   -0.833062   -2.949972
     30          6           0      -37.791231    2.441786   -1.162852
     31          6           0      -38.728899    3.371672   -1.918303
     32          7           0      -32.544002    1.746232   -0.560132
     33          6           0      -33.328051    2.782703   -1.076341
     34          6           0      -32.680621    4.039754   -0.856391
     35          6           0      -31.476683    3.697613   -0.166435
     36          6           0      -31.458121    2.251404   -0.072661
     37          6           0      -33.153028    5.409899   -1.228231
     38          6           0      -30.274623    4.166105    0.389236
     39          8           0      -29.880120    5.312846    0.459605
     40          6           0      -29.521956    2.926489    1.010808
     41          6           0      -28.102566    3.001085    0.630769
     42          8           0      -27.215703    3.342803    1.404933
     43          8           0      -27.946603    2.660085   -0.704481
     44          6           0      -26.543775    2.757255   -1.166703
     45          1           0      -30.977927   -3.996342    1.478524
     46          1           0      -36.518309   -2.885288   -1.307242
     47          1           0      -35.225645    3.372826   -1.908722
     48          1           0      -28.075338    0.236797    1.709312
     49          1           0      -29.323491   -2.112037    2.844947
     50          1           0      -27.152392   -1.769163    1.048192
     51          1           0      -28.253138   -2.832138    0.124413
     52          1           0      -27.766102   -3.337654    1.714980
     53          1           0      -29.276358   -0.612260    4.047554
     54          1           0      -30.192206    0.864862    3.551493
     55          1           0      -28.542174    2.212177    4.044789
     56          1           0      -27.218908    1.006606    3.832986
     57          1           0      -31.691140   -5.837845    1.657113
     58          1           0      -32.563375   -6.556293    0.233241
     59          1           0      -33.462246   -6.298706    1.624744
     60          1           0      -37.444092   -4.968041   -1.353226
     61          1           0      -37.309533   -4.165010    0.234130
     62          1           0      -37.663198   -5.860590    0.067434
     63          1           0      -37.937205   -0.334837   -0.819138
     64          1           0      -36.964715    1.534869   -3.004752
     65          1           0      -38.921750   -1.126436   -2.677868
     66          1           0      -37.377995   -1.682439   -3.382978
     67          1           0      -37.960607   -0.132922   -3.784030
     68          1           0      -37.028313    3.027888   -0.650938
     69          1           0      -38.439039    1.885601   -0.483861
     70          1           0      -38.817932    4.255686   -1.286379
     71          1           0      -39.713753    2.907725   -1.976609
     72          1           0      -38.453106    3.740776   -2.905565
     73          1           0      -32.373781    6.094525   -0.892306
     74          1           0      -34.119642    5.558545   -0.747874
     75          1           0      -33.279859    5.583812   -2.296920
     76          1           0      -29.580175    3.106538    2.084788
     77          1           0      -26.344512    3.757648   -1.550756
     78          1           0      -26.408136    1.941686   -1.876986
     79          1           0      -25.837238    2.535948   -0.367253
     80         12           0       32.745247    0.494882   -0.564429
     81          6           0       31.120860   -2.412520    0.421181
     82          6           0       30.542296    2.340894    1.508686
     83          6           0       34.894294    3.053301   -0.548866
     84          6           0       35.238074   -1.538174   -2.007054
     85          7           0       31.198001   -0.058775    1.124236
     86          6           0       30.579663   -1.285542    1.092058
     87          6           0       29.382946   -1.320773    1.989946
     88          6           0       29.043845    0.234057    2.130997
     89          6           0       30.341072    0.931557    1.588338
     90          6           0       27.717560    0.738733    1.367488
     91          6           0       29.702624   -2.159706    3.332123
     92          6           0       28.547436   -2.751807    3.965502
     93          1           0       28.381126   -2.351533    5.446795
     94          7           0       32.668127    2.473629    0.180226
     95          6           0       31.665501    3.047067    1.011449
     96          6           0       32.021273    4.439214    1.228345
     97          6           0       33.276509    4.693457    0.624088
     98          6           0       33.635838    3.392686   -0.034389
     99          6           0       31.224090    5.326570    2.109940
    100          6           0       34.058421    6.069061    0.732080
    101          8           0       33.514892    6.968799    1.370858
    102          6           0       35.254242    6.391575   -0.157342
    103          7           0       34.784292    0.644211   -1.103522
    104          6           0       35.373110    1.866975   -1.102111
    105          6           0       36.959044    1.813211   -1.564013
    106          6           0       36.992915    0.360285   -2.241843
    107          6           0       35.619298   -0.247810   -1.815737
    108          6           0       37.412925    2.917338   -2.592372
    109          6           0       38.161253   -0.501302   -1.759057
    110          6           0       39.200908   -1.060852   -2.759484
    111          7           0       32.970744   -1.509181   -1.007963
    112          6           0       34.000311   -2.164312   -1.618854
    113          6           0       33.636541   -3.542014   -1.804472
    114          6           0       32.491878   -3.671799   -0.931096
    115          6           0       32.180142   -2.388029   -0.451839
    116          6           0       34.462892   -4.602075   -2.473549
    117          6           0       31.599639   -4.642141   -0.331788
    118          8           0       31.435457   -5.795708   -0.590086
    119          6           0       30.570134   -3.864395    0.577335
    120          6           0       29.106447   -3.917616    0.086800
    121          8           0       28.749533   -3.668947   -1.044721
    122          8           0       28.277694   -4.393870    1.123578
    123          6           0       26.914295   -4.669522    0.784278
    124          1           0       29.790030    2.859607    2.105279
    125          1           0       35.708868    3.757564   -0.368323
    126          1           0       36.027253   -2.125284   -2.480292
    127          1           0       28.485230   -1.660848    1.472620
    128          1           0       28.938191    0.459738    3.192744
    129          1           0       27.076333    1.143552    2.150359
    130          1           0       27.215994   -0.056866    0.817397
    131          1           0       28.037787    1.538709    0.699333
    132          1           0       30.124593   -1.409304    4.000450
    133          1           0       30.496142   -2.818802    2.978923
    134          1           0       28.680309   -3.829974    3.884482
    135          1           0       27.636612   -2.420085    3.467120
    136          1           0       30.251612    4.893441    2.343331
    137          1           0       30.983371    6.251976    1.586105
    138          1           0       31.733206    5.504869    3.057390
    139          1           0       36.129178    5.771572    0.040590
    140          1           0       35.490887    7.446524   -0.014995
    141          1           0       34.928293    6.273636   -1.190820
    142          1           0       37.492625    1.803306   -0.613990
    143          1           0       36.923901    0.359164   -3.329874
    144          1           0       38.121353    3.594183   -2.115649
    145          1           0       36.543292    3.489580   -2.917664
    146          1           0       37.879917    2.392049   -3.426186
    147          1           0       37.821365   -1.320594   -1.125951
    148          1           0       38.784371   -0.036653   -0.995077
    149          1           0       39.200539   -2.136571   -2.937446
    150          1           0       40.168279   -0.846863   -2.304419
    151          1           0       39.104947   -0.586034   -3.736667
    152          1           0       33.788778   -5.423964   -2.715997
    153          1           0       35.097141   -5.183994   -1.805561
    154          1           0       35.078092   -4.253071   -3.302482
    155          1           0       30.635597   -4.397784    1.526069
    156          1           0       26.441480   -4.517472    1.755093
    157          1           0       26.751030   -5.726270    0.573512
    158          1           0       26.586960   -4.048380   -0.048509
 ---------------------------------------------------------------------

 SCF Done:  E(RwB97XD) =  -4070.56615729     A.U. after   19 cycles

 Excitation energies and oscillator strengths:

 Excited State   1:      Singlet-A      1.6352 eV  758.23 nm  f=0.3850  <S**2>=0.000
     310 -> 316       -0.17850
     312 -> 314        0.68608
     310 <- 316       -0.11657
 This state for optimization and/or second-order correction.
 Total Energy, E(TD-HF/TD-DFT) =  -4070.50606568
 Copying the excited state density for this state as the 1-particle RhoCI density.

 Excited State   2:      Singlet-A      1.6654 eV  744.49 nm  f=0.3826  <S**2>=0.000
     309 -> 315        0.17865
     311 -> 313        0.68430
     309 <- 315        0.11349

 Excited State   3:      Singlet-A      2.1184 eV  585.28 nm  f=0.1557  <S**2>=0.000
     309 -> 313        0.64906
     311 -> 315       -0.25657

 Excited State   4:      Singlet-A      2.1961 eV  564.56 nm  f=0.1042  <S**2>=0.000
     310 -> 314        0.63442
     312 -> 316        0.29408

 Excited State   5:      Singlet-A      3.0629 eV  404.80 nm  f=0.0077  <S**2>=0.000
     307 -> 313        0.68068

 The electronic state is 1-A.
 Alpha  occ. eigenvalues --  -46.96838 -46.96146 -19.30351 -19.30345 -19.25654
 Alpha  occ. eigenvalues --  -19.24781 -19.24762 -19.24210 -19.23305 -19.23244
 Alpha  occ. eigenvalues --  -14.48170 -14.46926 -14.46612 -14.46569 -14.44831
 Alpha  occ. eigenvalues --  -14.44716 -14.44434 -14.43621 -10.43940 -10.42985
 Alpha  occ. eigenvalues --  -10.40416 -10.39318 -10.38160 -10.37973 -10.37289
 Alpha  occ. eigenvalues --  -10.36240 -10.35904 -10.35768 -10.35704 -10.35698
 Alpha  occ. eigenvalues --  -10.35296 -10.35245 -10.35174 -10.35114 -10.34800
 Alpha  occ. eigenvalues --  -10.34567 -10.34525 -10.34452 -10.34113 -10.34100
 Alpha  occ. eigenvalues --  -10.33597 -10.33542 -10.33352 -10.33040 -10.32788
 Alpha  occ. eigenvalues --  -10.32759 -10.32746 -10.32710 -10.32694 -10.32589
 Alpha  occ. eigenvalues --  -10.32559 -10.32548 -10.32354 -10.32343 -10.32338
 Alpha  occ. eigenvalues --  -10.32319 -10.32252 -10.32233 -10.32096 -10.32022
 Alpha  occ. eigenvalues --  -10.31993 -10.31929 -10.31705 -10.31681 -10.31553
 Alpha  occ. eigenvalues --  -10.31338 -10.30972 -10.30948 -10.30881 -10.30856
 Alpha  occ. eigenvalues --  -10.30740 -10.30582 -10.30493 -10.30362 -10.30358
 Alpha  occ. eigenvalues --  -10.30206 -10.30179 -10.30079 -10.29895 -10.29718
 Alpha  occ. eigenvalues --  -10.29665 -10.29525 -10.29424 -10.29348 -10.28909
 Alpha  occ. eigenvalues --  -10.28630  -3.22532  -3.22030  -1.96142  -1.95624
 Alpha  occ. eigenvalues --   -1.95561  -1.95493  -1.95204  -1.94961  -1.18226
 Alpha  occ. eigenvalues --   -1.17701  -1.12987  -1.12554  -1.12348  -1.11966
 Alpha  occ. eigenvalues --   -1.10920  -1.09690  -1.06893  -1.06813  -1.06074
 Alpha  occ. eigenvalues --   -1.04967  -1.04653  -1.04383  -1.03825  -1.03632
 Alpha  occ. eigenvalues --   -0.94555  -0.94190  -0.91486  -0.91269  -0.91101
 Alpha  occ. eigenvalues --   -0.90266  -0.90067  -0.90059  -0.89666  -0.89096
 Alpha  occ. eigenvalues --   -0.88803  -0.88384  -0.87852  -0.87763  -0.86458
 Alpha  occ. eigenvalues --   -0.85994  -0.85738  -0.85239  -0.84838  -0.84616
 Alpha  occ. eigenvalues --   -0.84194  -0.84160  -0.83098  -0.82844  -0.82742
 Alpha  occ. eigenvalues --   -0.82222  -0.79800  -0.79751  -0.79298  -0.79153
 Alpha  occ. eigenvalues --   -0.78955  -0.78688  -0.78161  -0.78050  -0.77475
 Alpha  occ. eigenvalues --   -0.76891  -0.75512  -0.74651  -0.74302  -0.73329
 Alpha  occ. eigenvalues --   -0.71354  -0.71140  -0.70986  -0.70410  -0.70005
 Alpha  occ. eigenvalues --   -0.69405  -0.69112  -0.68476  -0.67848  -0.67556
 Alpha  occ. eigenvalues --   -0.67470  -0.67300  -0.66833  -0.66797  -0.66452
 Alpha  occ. eigenvalues --   -0.66097  -0.64995  -0.64794  -0.62317  -0.61744
 Alpha  occ. eigenvalues --   -0.61696  -0.61469  -0.61435  -0.61085  -0.60982
 Alpha  occ. eigenvalues --   -0.60524  -0.59978  -0.59811  -0.59453  -0.58918
 Alpha  occ. eigenvalues --   -0.58568  -0.58330  -0.57944  -0.57421  -0.57283
 Alpha  occ. eigenvalues --   -0.56941  -0.56706  -0.56686  -0.55926  -0.55784
 Alpha  occ. eigenvalues --   -0.55509  -0.55190  -0.55180  -0.54816  -0.54707
 Alpha  occ. eigenvalues --   -0.54675  -0.54498  -0.54412  -0.54410  -0.54058
 Alpha  occ. eigenvalues --   -0.54038  -0.53857  -0.53691  -0.53587  -0.53277
 Alpha  occ. eigenvalues --   -0.52954  -0.52851  -0.52705  -0.52365  -0.52168
 Alpha  occ. eigenvalues --   -0.52156  -0.52012  -0.51724  -0.51679  -0.51578
 Alpha  occ. eigenvalues --   -0.51460  -0.51191  -0.51147  -0.51044  -0.50855
 Alpha  occ. eigenvalues --   -0.50710  -0.50568  -0.50363  -0.50234  -0.49922
 Alpha  occ. eigenvalues --   -0.49846  -0.49801  -0.49797  -0.49220  -0.49157
 Alpha  occ. eigenvalues --   -0.48991  -0.48975  -0.48919  -0.48624  -0.48529
 Alpha  occ. eigenvalues --   -0.48351  -0.48100  -0.48075  -0.47937  -0.47880
 Alpha  occ. eigenvalues --   -0.47808  -0.47663  -0.47573  -0.47221  -0.47168
 Alpha  occ. eigenvalues --   -0.47108  -0.46879  -0.46735  -0.46664  -0.46510
 Alpha  occ. eigenvalues --   -0.46426  -0.46081  -0.46020  -0.45893  -0.45672
 Alpha  occ. eigenvalues --   -0.45580  -0.45448  -0.45351  -0.45071  -0.44986
 Alpha  occ. eigenvalues --   -0.44757  -0.44719  -0.44615  -0.44422  -0.44352
 Alpha  occ. eigenvalues --   -0.44170  -0.44169  -0.43601  -0.43444  -0.43382
 Alpha  occ. eigenvalues --   -0.43253  -0.42947  -0.42880  -0.42355  -0.42349
 Alpha  occ. eigenvalues --   -0.41900  -0.41706  -0.41639  -0.41386  -0.40608
 Alpha  occ. eigenvalues --   -0.40272  -0.40173  -0.39952  -0.39690  -0.39422
 Alpha  occ. eigenvalues --   -0.39213  -0.39035  -0.38802  -0.38671  -0.38232
 Alpha  occ. eigenvalues --   -0.37850  -0.37564  -0.36744  -0.36532  -0.36342
 Alpha  occ. eigenvalues --   -0.36239  -0.35532  -0.35486  -0.34013  -0.33579
 Alpha  occ. eigenvalues --   -0.33447  -0.33222  -0.32487  -0.32427  -0.32310
 Alpha  occ. eigenvalues --   -0.31935  -0.31854  -0.31291  -0.26557  -0.26254
 Alpha  occ. eigenvalues --   -0.23988  -0.22978
 Alpha virt. eigenvalues --   -0.08103  -0.07117  -0.00432   0.00258   0.02049
 Alpha virt. eigenvalues --    0.02519   0.04261   0.04314   0.04500   0.05459
 Alpha virt. eigenvalues --    0.06735   0.07044   0.07093   0.07415   0.08437

 Mulliken charges:
               1
     1  Mg   0.930432
     2  C    0.060767
     3  C   -0.053566
     4  C   -0.067704
     5  C   -0.064614
     6  N   -0.367828
     7  C   -0.017751
     8  C   -0.066772
     9  C   -0.122692
    10  C    0.087891
    11  C    0.030139
    12  C    0.037047
    13  C   -0.149281
    14  H    0.025256
    15  N   -0.454767
    16  C    0.135244
    17  C   -0.149594
    18  C   -0.136730
    19  C    0.177486
    20  C    0.084190
    21  C    0.092293
    22  O   -0.239793
    23  C   -0.062675
    24  N   -0.335500
    25  C    0.120489
    26  C   -0.138870
    27  C   -0.048723
    28  C    0.022554
    29  C    0.006361
    30  C   -0.011648
    31  C   -0.052428
    32  N   -0.425476
    33  C    0.118287
    34  C   -0.169475
    35  C   -0.018239
    36  C    0.076983
    37  C    0.078441
    38  C    0.069280
    39  O   -0.202378
    40  C   -0.060359
    41  C    0.246549
    42  O   -0.245759
    43  O   -0.384161
    44  C    0.134983
    45  H   -0.012753
    46  H   -0.019721
    47  H   -0.002604
    48  H    0.034875
    49  H    0.040591
    50  H    0.043287
    51  H    0.048395
    52  H    0.043009
    53  H    0.039674
    54  H    0.043325
    55  H    0.068911
    56  H    0.058977
    57  H    0.056924
    58  H    0.057834
    59  H    0.063766
    60  H    0.068478
    61  H    0.055848
    62  H    0.048649
    63  H    0.055228
    64  H    0.030155
    65  H    0.036215
    66  H    0.039796
    67  H    0.031086
    68  H    0.041420
    69  H    0.028827
    70  H    0.036997
    71  H    0.037561
    72  H    0.038389
    73  H    0.062993
    74  H    0.045529
    75  H    0.046940
    76  H    0.066586
    77  H    0.069714
    78  H    0.052471
    79  H    0.054738
    80  Mg   0.960729
    81  C   -0.078180
    82  C   -0.075626
    83  C   -0.094050
    84  C   -0.091061
    85  N   -0.325450
    86  C   -0.039449
    87  C   -0.084213
    88  C   -0.134199
    89  C    0.034883
    90  C    0.014956
    91  C    0.052931
    92  C   -0.094253
    93  H    0.019850
    94  N   -0.466583
    95  C    0.174704
    96  C   -0.161762
    97  C   -0.102839
    98  C    0.203830
    99  C    0.095310
   100  C    0.076024
   101  O   -0.234445
   102  C   -0.028130
   103  N   -0.403710
   104  C    0.073668
   105  C   -0.123926
   106  C   -0.024141
   107  C    0.034475
   108  C    0.024330
   109  C   -0.029716
   110  C   -0.054242
   111  N   -0.416089
   112  C    0.139726
   113  C   -0.160938
   114  C   -0.085670
   115  C    0.221473
   116  C    0.066609
   117  C    0.108993
   118  O   -0.181746
   119  C   -0.079823
   120  C    0.276385
   121  O   -0.220968
   122  O   -0.387232
   123  C    0.130564
   124  H    0.011415
   125  H   -0.019691
   126  H   -0.007330
   127  H    0.027293
   128  H    0.037142
   129  H    0.043866
   130  H    0.052432
   131  H    0.042178
   132  H    0.036898
   133  H    0.036968
   134  H    0.063411
   135  H    0.049673
   136  H    0.010722
   137  H    0.056814
   138  H    0.066381
   139  H    0.071078
   140  H    0.057637
   141  H    0.067766
   142  H    0.055944
   143  H    0.043569
   144  H    0.039931
   145  H    0.046121
   146  H    0.045226
   147  H    0.031540
   148  H    0.018913
   149  H    0.040054
   150  H    0.034073
   151  H    0.032255
   152  H    0.049866
   153  H    0.043563
   154  H    0.043535
   155  H    0.072472
   156  H    0.046046
   157  H    0.054205
   158  H    0.067041
 Sum of Mulliken charges =  -0.00000

 Dipole moment (field-independent basis, Debye):
    X=             -0.7274    Y=              0.0444    Z=             -2.9514  Tot=              3.0400
 Quadrupole moment (field-independent basis, Debye-Ang):
   XX=           -165.4943   YY=           -595.1698   ZZ=           -507.7077
   XY=            116.0712   XZ=             50.8434   YZ=            -28.7624

 Normal termination of Gaussian 16 at Mon Sep 20 06:02:27 2021.
