 Gaussian 16, Revision A.03,
 Gaussian 16:  ES64L-G16RevA.03 25-Dec-2016

 --------------------------------
 #p wB97XD/Def2SVP td=(nstates=5)
 --------------------------------

 --------------------------------
 TDDFT excited states in gaussian
 --------------------------------
 Symbolic Z-matrix:
 Charge =  0 Multiplicity = 1

                         Standard orientation:
 ---------------------------------------------------------------------
 Center     Atomic      Atomic             Coordinates (Angstroms)
 Number     Number       Type             X           Y           Z
 ---------------------------------------------------------------------
      1         12           0      -13.823402   -0.502268    0.321527
      2          6           0      -13.603224    2.729058   -0.985778
      3          6           0      -12.174349    0.727088    3.161199
      4          6           0      -13.454145   -3.621241    1.476793
      5          6           0      -14.451358   -1.676999   -2.851638
      6          7           0      -13.050018    1.570210    1.093624
      7          6           0      -13.057329    2.669158    0.293193
      8          6           0      -12.388482    3.896257    1.030541
      9          6           0      -11.702503    3.145742    2.280853
     10          6           0      -12.283887    1.725721    2.177159
     11          6           0      -10.162877    3.059481    1.985708
     12          6           0      -13.548693    4.844726    1.508412
     13          6           0      -13.158098    6.068077    2.381716
     14          1           0      -13.817468    6.588756    3.624084
     15          7           0      -13.126380   -1.271012    2.137734
     16          6           0      -12.510818   -0.628884    3.225138
     17          6           0      -12.200670   -1.606665    4.181524
     18          6           0      -12.728048   -2.833451    3.801110
     19          6           0      -13.141842   -2.610290    2.425630
     20          6           0      -11.577669   -1.214468    5.481156
     21          6           0      -12.733927   -4.216921    4.531289
     22          8           0      -13.251130   -5.238771    4.092811
     23          6           0      -12.270546   -4.371953    5.982351
     24          7           0      -13.826116   -2.356522   -0.608348
     25          6           0      -13.794449   -3.492732    0.123269
     26          6           0      -14.171826   -4.754300   -0.677608
     27          6           0      -14.354131   -4.149470   -2.097365
     28          6           0      -14.330794   -2.650018   -1.860941
     29          6           0      -13.192397   -5.960329   -0.490970
     30          6           0      -15.578158   -4.631279   -2.923446
     31          6           0      -16.888427   -4.094780   -2.528797
     32          7           0      -14.094970    0.309804   -1.543350
     33          6           0      -14.337126   -0.253105   -2.704422
     34          6           0      -14.576056    0.740080   -3.756623
     35          6           0      -14.286022    1.955896   -3.058801
     36          6           0      -13.966642    1.649464   -1.750467
     37          6           0      -15.322911    0.600941   -4.999975
     38          6           0      -14.246290    3.397146   -3.234416
     39          8           0      -14.565814    4.086724   -4.176142
     40          6           0      -13.724540    3.921179   -1.890992
     41          6           0      -12.449808    4.754022   -2.062307
     42          8           0      -11.352630    4.289050   -2.231263
     43          8           0      -12.776394    6.089072   -2.067370
     44          6           0      -11.590131    6.962479   -2.220741
     45          1           0      -11.780441    1.145940    4.088638
     46          1           0      -13.552422   -4.632683    1.877167
     47          1           0      -14.780194   -2.284766   -3.696386
     48          1           0      -11.614480    4.374116    0.429442
     49          1           0      -11.875869    3.620974    3.247163
     50          1           0       -9.776689    2.083328    1.694060
     51          1           0       -9.575934    3.145029    2.900521
     52          1           0       -9.814508    3.774393    1.240570
     53          1           0      -14.274357    4.225225    2.034719
     54          1           0      -14.079896    5.169458    0.613311
     55          1           0      -13.052698    6.877459    1.658698
     56          1           0      -12.182945    5.744818    2.743867
     57          1           0      -11.332429   -0.157462    5.587987
     58          1           0      -10.762675   -1.910843    5.683200
     59          1           0      -12.365990   -1.406782    6.209457
     60          1           0      -11.201544   -4.210813    6.121957
     61          1           0      -12.590256   -5.295168    6.465896
     62          1           0      -12.823375   -3.629462    6.558145
     63          1           0      -15.117075   -4.957214   -0.174962
     64          1           0      -13.424804   -4.398406   -2.609700
     65          1           0      -12.729927   -5.938492    0.495260
     66          1           0      -12.401791   -5.898917   -1.239276
     67          1           0      -13.693792   -6.925969   -0.559325
     68          1           0      -15.542012   -5.706165   -2.749015
     69          1           0      -15.379960   -4.495064   -3.986760
     70          1           0      -17.033785   -3.117759   -2.989396
     71          1           0      -16.991018   -4.067540   -1.444152
     72          1           0      -17.709268   -4.691431   -2.927809
     73          1           0      -16.005535   -0.229964   -4.820305
     74          1           0      -14.809229    0.290102   -5.909843
     75          1           0      -15.819135    1.555826   -5.170090
     76          1           0      -14.511320    4.531890   -1.446925
     77          1           0      -11.880319    7.834772   -2.806097
     78          1           0      -10.788253    6.577153   -2.850871
     79          1           0      -11.246144    7.327137   -1.253403
     80         12           0       12.984445   -0.939563   -0.310205
     81          6           0       15.388788    1.781773    0.190653
     82          6           0       10.482918    1.470613    0.147344
     83          6           0       10.791863   -3.350749   -0.389901
     84          6           0       15.591871   -3.085905   -0.907259
     85          7           0       12.941755    1.284850    0.317306
     86          6           0       14.035989    2.247537    0.345378
     87          6           0       13.589126    3.689164    0.669788
     88          6           0       11.981080    3.433738    0.841393
     89          6           0       11.738777    1.968145    0.430429
     90          6           0       11.454745    3.757018    2.226229
     91          6           0       14.044915    4.670902   -0.451805
     92          6           0       13.421958    6.033689   -0.404682
     93          1           0       14.281024    7.260008   -0.618730
     94          7           0       10.888110   -0.975975   -0.122217
     95          6           0       10.026808    0.113094    0.052924
     96          6           0        8.641254   -0.352464    0.066376
     97          6           0        8.699967   -1.796713   -0.099853
     98          6           0       10.165577   -2.138831   -0.218375
     99          6           0        7.377341    0.580174    0.145113
    100          6           0        7.631788   -2.830104   -0.109031
    101          8           0        7.814358   -4.026411   -0.291424
    102          6           0        6.218233   -2.430134   -0.007757
    103          7           0       13.145405   -2.861807   -0.687154
    104          6           0       12.121147   -3.705532   -0.548145
    105          6           0       12.517755   -5.176165   -0.816958
    106          6           0       13.904612   -4.999953   -1.399724
    107          6           0       14.296492   -3.550526   -0.914728
    108          6           0       12.502534   -6.042795    0.436937
    109          6           0       14.201649   -5.157416   -2.868533
    110          6           0       13.503143   -4.150075   -3.756722
    111          7           0       15.059732   -0.770042   -0.263321
    112          6           0       15.997579   -1.748609   -0.639225
    113          6           0       17.322165   -1.186616   -0.541802
    114          6           0       17.056556    0.185134   -0.296208
    115          6           0       15.676806    0.401488   -0.118099
    116          6           0       18.640495   -1.835046   -0.848545
    117          6           0       17.775392    1.491620   -0.180114
    118          8           0       18.973791    1.786637   -0.375935
    119          6           0       16.703855    2.522615    0.167429
    120          6           0       17.073446    3.245108    1.464625
    121          8           0       17.190692    2.799442    2.644250
    122          8           0       17.128255    4.576165    1.173688
    123          6           0       17.392238    5.474231    2.320704
    124          1           0        9.717132    2.245484    0.086923
    125          1           0       10.082484   -4.180215   -0.356369
    126          1           0       16.470816   -3.715641   -1.060792
    127          1           0       14.151686    3.964846    1.561719
    128          1           0       11.452951    3.989654    0.066681
    129          1           0       10.679615    4.518103    2.132182
    130          1           0       12.295427    4.167842    2.784187
    131          1           0       11.236242    2.921262    2.890610
    132          1           0       13.917547    4.123192   -1.386201
    133          1           0       15.124135    4.804082   -0.375664
    134          1           0       12.940069    6.325707    0.528098
    135          1           0       12.708488    6.128208   -1.222791
    136          1           0        6.850328    0.408593   -0.793905
    137          1           0        7.623120    1.639421    0.218994
    138          1           0        6.806151    0.242185    1.009848
    139          1           0        6.028615   -1.667601    0.747964
    140          1           0        5.712689   -3.354161    0.270569
    141          1           0        6.024336   -1.927780   -0.954974
    142          1           0       11.788150   -5.578111   -1.520054
    143          1           0       14.617051   -5.713327   -0.984487
    144          1           0       12.082730   -7.014379    0.178949
    145          1           0       11.887629   -5.596795    1.217924
    146          1           0       13.521942   -6.283202    0.740925
    147          1           0       13.996847   -6.193063   -3.141202
    148          1           0       15.244929   -4.925903   -3.082530
    149          1           0       13.047371   -4.619958   -4.627490
    150          1           0       14.188565   -3.416967   -4.182575
    151          1           0       12.698745   -3.600788   -3.267349
    152          1           0       19.198090   -1.214854   -1.549936
    153          1           0       18.683313   -2.844420   -1.257657
    154          1           0       19.193978   -1.881150    0.089575
    155          1           0       16.715502    3.294632   -0.602486
    156          1           0       16.458341    5.922083    2.659725
    157          1           0       18.118833    6.135134    1.848064
    158          1           0       17.944339    4.978303    3.120071
 ---------------------------------------------------------------------

 SCF Done:  E(RwB97XD) =  -4070.63526947     A.U. after   19 cycles

 Excitation energies and oscillator strengths:

 Excited State   1:      Singlet-A      1.6109 eV  769.65 nm  f=0.4040  <S**2>=0.000
     309 -> 315        0.17048
     311 -> 313        0.68646
     309 <- 315        0.11383
 This state for optimization and/or second-order correction.
 Total Energy, E(TD-HF/TD-DFT) =  -4070.57606959
 Copying the excited state density for this state as the 1-particle RhoCI density.

 Excited State   2:      Singlet-A      1.6940 eV  731.90 nm  f=0.3858  <S**2>=0.000
     310 -> 316       -0.19055
     312 -> 314        0.68135
     310 <- 316       -0.11528

 Excited State   3:      Singlet-A      2.1162 eV  585.88 nm  f=0.1313  <S**2>=0.000
     309 -> 313        0.64978
     311 -> 315       -0.25750

 Excited State   4:      Singlet-A      2.2136 eV  560.11 nm  f=0.1128  <S**2>=0.000
     310 -> 314        0.64263
     312 -> 316        0.27815

 Excited State   5:      Singlet-A      3.2644 eV  379.80 nm  f=0.0055  <S**2>=0.000
     304 -> 313       -0.31849
     308 -> 313        0.60959

 The electronic state is 1-A.
 Alpha  occ. eigenvalues --  -46.95123 -46.94113 -19.31106 -19.30994 -19.25428
 Alpha  occ. eigenvalues --  -19.24618 -19.24562 -19.23926 -19.23863 -19.23500
 Alpha  occ. eigenvalues --  -14.47157 -14.46932 -14.46786 -14.45690 -14.44622
 Alpha  occ. eigenvalues --  -14.43854 -14.43765 -14.43435 -10.43834 -10.43720
 Alpha  occ. eigenvalues --  -10.40263 -10.38747 -10.38653 -10.38564 -10.36024
 Alpha  occ. eigenvalues --  -10.35656 -10.35654 -10.35586 -10.35525 -10.35204
 Alpha  occ. eigenvalues --  -10.35163 -10.34811 -10.34754 -10.34753 -10.34644
 Alpha  occ. eigenvalues --  -10.34605 -10.34532 -10.34011 -10.33813 -10.33642
 Alpha  occ. eigenvalues --  -10.33223 -10.33043 -10.33002 -10.32923 -10.32892
 Alpha  occ. eigenvalues --  -10.32840 -10.32754 -10.32729 -10.32644 -10.32633
 Alpha  occ. eigenvalues --  -10.32611 -10.32603 -10.32457 -10.32080 -10.31803
 Alpha  occ. eigenvalues --  -10.31753 -10.31725 -10.31639 -10.31626 -10.31590
 Alpha  occ. eigenvalues --  -10.31573 -10.31448 -10.31428 -10.31225 -10.31083
 Alpha  occ. eigenvalues --  -10.31018 -10.31000 -10.30987 -10.30799 -10.30317
 Alpha  occ. eigenvalues --  -10.30160 -10.30157 -10.30047 -10.29934 -10.29806
 Alpha  occ. eigenvalues --  -10.29803 -10.29801 -10.29744 -10.29565 -10.29496
 Alpha  occ. eigenvalues --  -10.29396 -10.29174 -10.28988 -10.28707 -10.28378
 Alpha  occ. eigenvalues --  -10.28367  -3.21129  -3.20269  -1.94704  -1.94267
 Alpha  occ. eigenvalues --   -1.94085  -1.93869  -1.93406  -1.93248  -1.19081
 Alpha  occ. eigenvalues --   -1.18192  -1.12717  -1.12660  -1.12584  -1.11055
 Alpha  occ. eigenvalues --   -1.10002  -1.07961  -1.07063  -1.07036  -1.05877
 Alpha  occ. eigenvalues --   -1.05430  -1.04816  -1.04576  -1.04366  -1.02624
 Alpha  occ. eigenvalues --   -0.95874  -0.94261  -0.91560  -0.91349  -0.90831
 Alpha  occ. eigenvalues --   -0.90584  -0.90571  -0.90177  -0.89535  -0.89275
 Alpha  occ. eigenvalues --   -0.89207  -0.89006  -0.88184  -0.87804  -0.86688
 Alpha  occ. eigenvalues --   -0.86057  -0.85938  -0.85586  -0.84872  -0.84379
 Alpha  occ. eigenvalues --   -0.84289  -0.83540  -0.83379  -0.82932  -0.82444
 Alpha  occ. eigenvalues --   -0.82053  -0.80576  -0.80537  -0.79593  -0.79196
 Alpha  occ. eigenvalues --   -0.78719  -0.78589  -0.78126  -0.77900  -0.77459
 Alpha  occ. eigenvalues --   -0.76885  -0.74746  -0.74525  -0.73931  -0.73834
 Alpha  occ. eigenvalues --   -0.72221  -0.72023  -0.71417  -0.71207  -0.70393
 Alpha  occ. eigenvalues --   -0.69637  -0.69177  -0.69100  -0.67415  -0.67052
 Alpha  occ. eigenvalues --   -0.66858  -0.66671  -0.66483  -0.66287  -0.66043
 Alpha  occ. eigenvalues --   -0.65816  -0.64562  -0.63926  -0.62258  -0.62174
 Alpha  occ. eigenvalues --   -0.61524  -0.61407  -0.61158  -0.61090  -0.60644
 Alpha  occ. eigenvalues --   -0.60320  -0.60304  -0.59683  -0.59414  -0.59400
 Alpha  occ. eigenvalues --   -0.58548  -0.58311  -0.57881  -0.57680  -0.57540
 Alpha  occ. eigenvalues --   -0.57471  -0.57296  -0.57229  -0.56727  -0.56644
 Alpha  occ. eigenvalues --   -0.56244  -0.56017  -0.55442  -0.55296  -0.55148
 Alpha  occ. eigenvalues --   -0.55052  -0.54714  -0.54662  -0.54576  -0.54406
 Alpha  occ. eigenvalues --   -0.54104  -0.54102  -0.53141  -0.53090  -0.52999
 Alpha  occ. eigenvalues --   -0.52809  -0.52716  -0.52574  -0.52340  -0.52307
 Alpha  occ. eigenvalues --   -0.52110  -0.51940  -0.51707  -0.51674  -0.51535
 Alpha  occ. eigenvalues --   -0.51437  -0.51242  -0.50973  -0.50817  -0.50759
 Alpha  occ. eigenvalues --   -0.50735  -0.50550  -0.50526  -0.50432  -0.50045
 Alpha  occ. eigenvalues --   -0.49919  -0.49675  -0.49552  -0.49514  -0.49123
 Alpha  occ. eigenvalues --   -0.48937  -0.48707  -0.48685  -0.48446  -0.48144
 Alpha  occ. eigenvalues --   -0.48099  -0.47973  -0.47944  -0.47712  -0.47598
 Alpha  occ. eigenvalues --   -0.47392  -0.47346  -0.47061  -0.46987  -0.46835
 Alpha  occ. eigenvalues --   -0.46710  -0.46484  -0.46422  -0.46280  -0.46199
 Alpha  occ. eigenvalues --   -0.46117  -0.46059  -0.45865  -0.45832  -0.45688
 Alpha  occ. eigenvalues --   -0.45392  -0.45337  -0.45249  -0.45166  -0.44914
 Alpha  occ. eigenvalues --   -0.44610  -0.44604  -0.44494  -0.44476  -0.44381
 Alpha  occ. eigenvalues --   -0.44136  -0.43878  -0.43855  -0.43733  -0.43687
 Alpha  occ. eigenvalues --   -0.43240  -0.42835  -0.42700  -0.42407  -0.42236
 Alpha  occ. eigenvalues --   -0.41889  -0.41569  -0.41165  -0.41007  -0.40803
 Alpha  occ. eigenvalues --   -0.40791  -0.40477  -0.39896  -0.39747  -0.39406
 Alpha  occ. eigenvalues --   -0.39320  -0.39150  -0.38891  -0.38803  -0.38488
 Alpha  occ. eigenvalues --   -0.38344  -0.38120  -0.36987  -0.36327  -0.36313
 Alpha  occ. eigenvalues --   -0.36072  -0.35480  -0.35309  -0.33736  -0.33690
 Alpha  occ. eigenvalues --   -0.33267  -0.33168  -0.32849  -0.32597  -0.32330
 Alpha  occ. eigenvalues --   -0.32302  -0.31402  -0.31302  -0.26191  -0.25801
 Alpha  occ. eigenvalues --   -0.23292  -0.22962
 Alpha virt. eigenvalues --   -0.07661  -0.06797   0.00246   0.00525   0.02362
 Alpha virt. eigenvalues --    0.02415   0.04281   0.04289   0.05324   0.06247
 Alpha virt. eigenvalues --    0.06673   0.07270   0.07684   0.07991   0.08599

 Mulliken charges:
               1
     1  Mg   0.973249
     2  C   -0.006704
     3  C   -0.074342
     4  C   -0.111404
     5  C   -0.060483
     6  N   -0.281996
     7  C   -0.051635
     8  C   -0.081002
     9  C   -0.121242
    10  C    0.038095
    11  C    0.009407
    12  C   -0.013330
    13  C   -0.096412
    14  H    0.058683
    15  N   -0.474579
    16  C    0.176501
    17  C   -0.164544
    18  C   -0.081263
    19  C    0.151188
    20  C    0.071134
    21  C    0.085521
    22  O   -0.233688
    23  C   -0.021675
    24  N   -0.406271
    25  C    0.075883
    26  C   -0.112176
    27  C   -0.035699
    28  C   -0.010166
    29  C    0.035620
    30  C   -0.020940
    31  C   -0.015358
    32  N   -0.411498
    33  C    0.152400
    34  C   -0.157293
    35  C   -0.070564
    36  C    0.151271
    37  C    0.070539
    38  C    0.116305
    39  O   -0.187634
    40  C   -0.074832
    41  C    0.263774
    42  O   -0.227759
    43  O   -0.360562
    44  C    0.124844
    45  H   -0.012702
    46  H    0.022561
    47  H   -0.019405
    48  H    0.047254
    49  H    0.048732
    50  H    0.042427
    51  H    0.025677
    52  H    0.050337
    53  H    0.035570
    54  H    0.032222
    55  H    0.051076
    56  H    0.036074
    57  H    0.044412
    58  H    0.048618
    59  H    0.050331
    60  H    0.058349
    61  H    0.054928
    62  H    0.041331
    63  H    0.041129
    64  H    0.042835
    65  H    0.049029
    66  H    0.031761
    67  H    0.040220
    68  H    0.022868
    69  H    0.034950
    70  H    0.031997
    71  H    0.032806
    72  H    0.035536
    73  H    0.029648
    74  H    0.041861
    75  H    0.064005
    76  H    0.079280
    77  H    0.049993
    78  H    0.068940
    79  H    0.055984
    80  Mg   0.974969
    81  C   -0.025695
    82  C   -0.091748
    83  C   -0.091518
    84  C   -0.077615
    85  N   -0.366240
    86  C   -0.005867
    87  C   -0.064496
    88  C   -0.111899
    89  C    0.088934
    90  C    0.051940
    91  C   -0.006124
    92  C   -0.128095
    93  H    0.029134
    94  N   -0.467363
    95  C    0.163167
    96  C   -0.170474
    97  C   -0.057375
    98  C    0.152425
    99  C    0.067367
   100  C    0.021992
   101  O   -0.243467
   102  C    0.001944
   103  N   -0.422499
   104  C    0.103884
   105  C   -0.088103
   106  C   -0.066173
   107  C    0.109819
   108  C    0.042959
   109  C    0.010330
   110  C   -0.067878
   111  N   -0.449700
   112  C    0.078841
   113  C   -0.151490
   114  C   -0.101739
   115  C    0.167347
   116  C    0.064800
   117  C    0.158647
   118  O   -0.236401
   119  C   -0.063697
   120  C    0.278999
   121  O   -0.286822
   122  O   -0.366272
   123  C    0.125348
   124  H   -0.007296
   125  H    0.021598
   126  H    0.001323
   127  H    0.051939
   128  H    0.035129
   129  H    0.045534
   130  H    0.021856
   131  H    0.048043
   132  H    0.034880
   133  H    0.058265
   134  H    0.052451
   135  H    0.055269
   136  H    0.061530
   137  H    0.044175
   138  H    0.066875
   139  H    0.027047
   140  H    0.066549
   141  H    0.059901
   142  H    0.041469
   143  H    0.013858
   144  H    0.035674
   145  H    0.048234
   146  H    0.036532
   147  H    0.035185
   148  H    0.029068
   149  H    0.029141
   150  H    0.034968
   151  H    0.040808
   152  H    0.061504
   153  H    0.026474
   154  H    0.055474
   155  H    0.079627
   156  H    0.065833
   157  H    0.060849
   158  H    0.076137
 Sum of Mulliken charges =  -0.00000

 Dipole moment (field-independent basis, Debye):
    X=             -4.4458    Y=              1.4803    Z=              3.0942  Tot=              5.6152
 Quadrupole moment (field-independent basis, Debye-Ang):
   XX=           -675.5968   YY=           -476.9737   ZZ=           -505.1432
   XY=             16.3771   XZ=            -65.1790   YZ=             36.7670

 Normal termination of Gaussian 16 at Sat Sep 18 16:58:47 2021.
