 Gaussian 16, Revision A.03,
 Gaussian 16:  ES64L-G16RevA.03 25-Dec-2016

 --------------------------------
 #p wB97XD/Def2SVP td=(nstates=5)
 --------------------------------

 --------------------------------
 TDDFT excited states in gaussian
 --------------------------------
 Symbolic Z-matrix:
 Charge =  0 Multiplicity = 1

                         Standard orientation:
 ---------------------------------------------------------------------
 Center     Atomic      Atomic             Coordinates (Angstroms)
 Number     Number       Type             X           Y           Z
 ---------------------------------------------------------------------
      1         12           0      -30.285481   -0.426286    0.560369
      2          6           0      -30.527535    2.428045   -1.289997
      3          6           0      -27.914869   -1.635820   -1.770113
      4          6           0      -30.189151   -3.335310    2.216126
      5          6           0      -32.546714    0.879404    2.792134
      6          7           0      -29.565296    0.153751   -1.460638
      7          6           0      -29.731921    1.454814   -1.952099
      8          6           0      -28.952418    1.679541   -3.278684
      9          6           0      -28.220729    0.313664   -3.363590
     10          6           0      -28.631420   -0.495805   -2.146864
     11          6           0      -28.288011   -0.585984   -4.670542
     12          6           0      -27.950499    2.916041   -3.320815
     13          6           0      -27.206545    3.014301   -4.679624
     14          1           0      -27.681426    4.182320   -5.545110
     15          7           0      -29.133729   -2.255663    0.273960
     16          6           0      -28.075003   -2.415972   -0.593871
     17          6           0      -27.609477   -3.784241   -0.400149
     18          6           0      -28.288230   -4.271795    0.762749
     19          6           0      -29.239637   -3.284000    1.164431
     20          6           0      -26.560899   -4.361814   -1.270499
     21          6           0      -28.085898   -5.721183    1.327480
     22          8           0      -28.816496   -6.230934    2.201156
     23          6           0      -27.007792   -6.606200    0.758341
     24          7           0      -31.200089   -1.102032    2.151109
     25          6           0      -31.022768   -2.403151    2.700134
     26          6           0      -32.081994   -2.701861    3.736812
     27          6           0      -32.426049   -1.280136    4.176713
     28          6           0      -31.999091   -0.405567    3.006434
     29          6           0      -33.311687   -3.473316    3.150328
     30          6           0      -31.630196   -0.830131    5.422264
     31          6           0      -32.168905   -1.181714    6.783024
     32          7           0      -31.417862    1.281408    0.788441
     33          6           0      -32.168711    1.756718    1.795120
     34          6           0      -32.665656    3.054670    1.445538
     35          6           0      -32.045867    3.385955    0.259394
     36          6           0      -31.250957    2.283009   -0.089278
     37          6           0      -33.576356    3.829862    2.332466
     38          6           0      -31.927839    4.406301   -0.692715
     39          8           0      -32.409873    5.521180   -0.748081
     40          6           0      -30.905704    3.817855   -1.774617
     41          6           0      -31.579612    3.843901   -3.100663
     42          8           0      -32.525916    3.181783   -3.451218
     43          8           0      -30.912857    4.612345   -3.967155
     44          6           0      -31.470483    4.679452   -5.372791
     45          1           0      -27.083315   -1.871689   -2.437233
     46          1           0      -30.163529   -4.275814    2.770137
     47          1           0      -33.167071    1.410949    3.516263
     48          1           0      -29.673600    1.766011   -4.091472
     49          1           0      -27.151735    0.465511   -3.211304
     50          1           0      -27.378489   -1.127743   -4.931456
     51          1           0      -28.745951   -0.022064   -5.483378
     52          1           0      -28.972053   -1.390349   -4.400347
     53          1           0      -27.313371    2.751404   -2.452739
     54          1           0      -28.525078    3.825227   -3.144260
     55          1           0      -27.228307    2.049258   -5.185909
     56          1           0      -26.164893    3.231247   -4.444818
     57          1           0      -27.022483   -5.140517   -1.877975
     58          1           0      -25.743241   -4.638301   -0.604830
     59          1           0      -26.132837   -3.597976   -1.919825
     60          1           0      -26.972366   -7.546987    1.307680
     61          1           0      -26.083059   -6.091680    1.023155
     62          1           0      -27.034553   -6.792437   -0.314978
     63          1           0      -31.678540   -3.306231    4.549727
     64          1           0      -33.489156   -1.129811    4.363495
     65          1           0      -33.937209   -2.815243    2.548455
     66          1           0      -33.894090   -3.923936    3.954415
     67          1           0      -32.886343   -4.270925    2.542226
     68          1           0      -31.417543    0.238162    5.426496
     69          1           0      -30.612525   -1.215969    5.360851
     70          1           0      -31.405339   -1.785781    7.272265
     71          1           0      -32.974473   -1.879400    6.553598
     72          1           0      -32.523639   -0.330642    7.364577
     73          1           0      -33.008156    4.543078    2.928337
     74          1           0      -34.307530    3.284379    2.929860
     75          1           0      -34.179478    4.435220    1.655571
     76          1           0      -30.023235    4.457801   -1.793260
     77          1           0      -31.616848    3.651564   -5.705368
     78          1           0      -30.786452    5.141317   -6.085229
     79          1           0      -32.416652    5.219252   -5.328474
     80         12           0       30.864050    0.459535   -0.040367
     81          6           0       28.145973   -1.591285   -0.656588
     82          6           0       28.827112    2.561004    1.803127
     83          6           0       33.647575    1.964793    1.134802
     84          6           0       32.816867   -1.986417   -1.665628
     85          7           0       28.771169    0.319973    0.746177
     86          6           0       27.870624   -0.492990    0.186776
     87          6           0       26.469338   -0.263447    0.832837
     88          6           0       26.635141    1.226198    1.396673
     89          6           0       28.189340    1.448465    1.252765
     90          6           0       25.707385    2.244654    0.691317
     91          6           0       26.247952   -1.233157    1.971285
     92          6           0       24.848562   -1.820285    2.069252
     93          1           0       24.133598   -2.096473    3.445361
     94          7           0       31.141025    2.190297    1.178854
     95          6           0       30.229448    2.868247    1.897307
     96          6           0       30.908053    3.939952    2.550840
     97          6           0       32.299517    3.902176    2.232588
     98          6           0       32.439482    2.669522    1.447464
     99          6           0       30.167112    5.013718    3.258194
    100          6           0       33.314687    4.819941    2.815299
    101          8           0       32.967305    5.739259    3.537865
    102          6           0       34.795467    4.689781    2.479248
    103          7           0       33.022841    0.058966   -0.333050
    104          6           0       33.920677    0.824346    0.348378
    105          6           0       35.288518    0.228079    0.270401
    106          6           0       34.998582   -1.059427   -0.637137
    107          6           0       33.532830   -1.011321   -0.990745
    108          6           0       36.379957    1.181011   -0.251885
    109          6           0       35.434795   -2.461081   -0.019056
    110          6           0       36.319703   -3.436613   -0.830163
    111          7           0       30.587479   -1.362132   -0.981523
    112          6           0       31.443874   -2.184776   -1.643410
    113          6           0       30.728551   -3.087506   -2.431398
    114          6           0       29.387902   -2.908278   -2.120017
    115          6           0       29.359935   -1.904710   -1.184363
    116          6           0       31.377023   -4.164296   -3.349981
    117          6           0       28.086571   -3.319124   -2.371418
    118          8           0       27.711956   -4.269428   -3.049459
    119          6           0       27.109928   -2.513332   -1.386041
    120          6           0       26.213565   -1.674353   -2.096364
    121          8           0       26.393387   -0.589754   -2.655297
    122          8           0       24.976794   -2.310421   -2.050829
    123          6           0       23.812887   -1.720857   -2.690036
    124          1           0       28.168504    3.307468    2.251479
    125          1           0       34.628342    2.344758    1.429931
    126          1           0       33.506877   -2.629371   -2.216233
    127          1           0       25.717695   -0.402994    0.056376
    128          1           0       26.508904    1.309167    2.475667
    129          1           0       25.173179    1.793932   -0.144858
    130          1           0       26.297552    3.091951    0.340733
    131          1           0       25.022326    2.637103    1.442481
    132          1           0       26.511234   -0.901743    2.975954
    133          1           0       27.016618   -1.993031    1.830523
    134          1           0       24.851655   -2.724125    1.460257
    135          1           0       24.271725   -1.075449    1.521027
    136          1           0       30.126126    5.806209    2.511180
    137          1           0       30.683778    5.325907    4.165973
    138          1           0       29.160079    4.718413    3.552980
    139          1           0       35.168653    3.880855    3.107502
    140          1           0       35.266153    5.586801    2.880889
    141          1           0       34.936578    4.517777    1.412273
    142          1           0       35.441910   -0.025005    1.318961
    143          1           0       35.604794   -1.055612   -1.543022
    144          1           0       36.977856    1.453001    0.618593
    145          1           0       35.972968    2.059275   -0.754061
    146          1           0       37.037225    0.638301   -0.930837
    147          1           0       34.531821   -3.021675    0.222328
    148          1           0       36.023724   -2.357077    0.892497
    149          1           0       35.539945   -4.005771   -1.336098
    150          1           0       36.861109   -4.103326   -0.160240
    151          1           0       36.902338   -3.073756   -1.676801
    152          1           0       31.781227   -4.955469   -2.719795
    153          1           0       32.238237   -3.840900   -3.934961
    154          1           0       30.636205   -4.601701   -4.019857
    155          1           0       26.626639   -3.269709   -0.767443
    156          1           0       23.178838   -2.544823   -3.015942
    157          1           0       24.030789   -0.991320   -3.470486
    158          1           0       23.225483   -1.232977   -1.912070
 ---------------------------------------------------------------------

 SCF Done:  E(RwB97XD) =  -4070.61069229     A.U. after   19 cycles

 Excitation energies and oscillator strengths:

 Excited State   1:      Singlet-A      1.5970 eV  776.35 nm  f=0.3881  <S**2>=0.000
     309 -> 316        0.16565
     312 -> 314        0.68828
     309 <- 316        0.11238
 This state for optimization and/or second-order correction.
 Total Energy, E(TD-HF/TD-DFT) =  -4070.55200321
 Copying the excited state density for this state as the 1-particle RhoCI density.

 Excited State   2:      Singlet-A      1.6376 eV  757.12 nm  f=0.4026  <S**2>=0.000
     310 -> 315        0.19094
     311 -> 313        0.68256
     310 <- 315        0.11966

 Excited State   3:      Singlet-A      2.1723 eV  570.76 nm  f=0.0974  <S**2>=0.000
     310 -> 313        0.63458
     311 -> 315       -0.29666

 Excited State   4:      Singlet-A      2.1950 eV  564.85 nm  f=0.1056  <S**2>=0.000
     309 -> 314        0.63718
     312 -> 316       -0.28949

 Excited State   5:      Singlet-A      3.2156 eV  385.57 nm  f=0.0019  <S**2>=0.000
     308 -> 314        0.67727

 The electronic state is 1-A.
 Alpha  occ. eigenvalues --  -46.96052 -46.93867 -19.30164 -19.29906 -19.25158
 Alpha  occ. eigenvalues --  -19.24503 -19.24345 -19.23712 -19.23561 -19.23392
 Alpha  occ. eigenvalues --  -14.47348 -14.46949 -14.46635 -14.46378 -14.44443
 Alpha  occ. eigenvalues --  -14.43837 -14.43492 -14.43448 -10.43477 -10.42391
 Alpha  occ. eigenvalues --  -10.39277 -10.39178 -10.39014 -10.38598 -10.36150
 Alpha  occ. eigenvalues --  -10.36079 -10.35590 -10.35464 -10.35416 -10.35411
 Alpha  occ. eigenvalues --  -10.35337 -10.35174 -10.34912 -10.34537 -10.34039
 Alpha  occ. eigenvalues --  -10.33828 -10.33553 -10.33476 -10.33455 -10.33267
 Alpha  occ. eigenvalues --  -10.33046 -10.33035 -10.32828 -10.32784 -10.32685
 Alpha  occ. eigenvalues --  -10.32663 -10.32512 -10.32498 -10.32414 -10.32370
 Alpha  occ. eigenvalues --  -10.32283 -10.32267 -10.32252 -10.32161 -10.31940
 Alpha  occ. eigenvalues --  -10.31932 -10.31912 -10.31881 -10.31805 -10.31528
 Alpha  occ. eigenvalues --  -10.31456 -10.31405 -10.31363 -10.31170 -10.31098
 Alpha  occ. eigenvalues --  -10.30760 -10.30751 -10.30738 -10.30729 -10.30679
 Alpha  occ. eigenvalues --  -10.30465 -10.30421 -10.30391 -10.30100 -10.30010
 Alpha  occ. eigenvalues --  -10.29929 -10.29746 -10.29723 -10.29689 -10.29600
 Alpha  occ. eigenvalues --  -10.29524 -10.29504 -10.29113 -10.28906 -10.28890
 Alpha  occ. eigenvalues --  -10.28849  -3.21842  -3.20053  -1.95439  -1.94954
 Alpha  occ. eigenvalues --   -1.94799  -1.93652  -1.93197  -1.93027  -1.19113
 Alpha  occ. eigenvalues --   -1.17933  -1.12745  -1.12308  -1.12217  -1.10467
 Alpha  occ. eigenvalues --   -1.09737  -1.09368  -1.07585  -1.07530  -1.06111
 Alpha  occ. eigenvalues --   -1.05944  -1.05895  -1.05107  -1.04690  -1.03988
 Alpha  occ. eigenvalues --   -0.95926  -0.95370  -0.91431  -0.91030  -0.90955
 Alpha  occ. eigenvalues --   -0.90682  -0.90561  -0.90286  -0.89885  -0.89857
 Alpha  occ. eigenvalues --   -0.89128  -0.88873  -0.88495  -0.88196  -0.87395
 Alpha  occ. eigenvalues --   -0.86556  -0.86295  -0.85856  -0.84973  -0.84432
 Alpha  occ. eigenvalues --   -0.84186  -0.83511  -0.83478  -0.83180  -0.82771
 Alpha  occ. eigenvalues --   -0.82590  -0.80354  -0.80157  -0.79578  -0.79490
 Alpha  occ. eigenvalues --   -0.79156  -0.78529  -0.78449  -0.78160  -0.77150
 Alpha  occ. eigenvalues --   -0.77147  -0.75526  -0.75242  -0.74409  -0.73796
 Alpha  occ. eigenvalues --   -0.71861  -0.71441  -0.71224  -0.70941  -0.70232
 Alpha  occ. eigenvalues --   -0.70119  -0.69380  -0.68119  -0.68063  -0.67870
 Alpha  occ. eigenvalues --   -0.67782  -0.67515  -0.66890  -0.66890  -0.66652
 Alpha  occ. eigenvalues --   -0.66166  -0.64734  -0.64117  -0.62510  -0.62222
 Alpha  occ. eigenvalues --   -0.62034  -0.61948  -0.61140  -0.61122  -0.61088
 Alpha  occ. eigenvalues --   -0.60883  -0.60332  -0.60193  -0.60029  -0.60009
 Alpha  occ. eigenvalues --   -0.58542  -0.58360  -0.58130  -0.58010  -0.57487
 Alpha  occ. eigenvalues --   -0.57031  -0.56813  -0.56699  -0.56341  -0.56222
 Alpha  occ. eigenvalues --   -0.55538  -0.55398  -0.55357  -0.55337  -0.54841
 Alpha  occ. eigenvalues --   -0.54661  -0.54613  -0.54280  -0.54239  -0.54074
 Alpha  occ. eigenvalues --   -0.54028  -0.53832  -0.53741  -0.53602  -0.53469
 Alpha  occ. eigenvalues --   -0.53283  -0.53242  -0.52321  -0.52301  -0.52187
 Alpha  occ. eigenvalues --   -0.52106  -0.51953  -0.51940  -0.51843  -0.51691
 Alpha  occ. eigenvalues --   -0.51545  -0.51445  -0.51186  -0.51000  -0.50946
 Alpha  occ. eigenvalues --   -0.50891  -0.50696  -0.50355  -0.50226  -0.50178
 Alpha  occ. eigenvalues --   -0.49994  -0.49698  -0.49459  -0.49449  -0.49095
 Alpha  occ. eigenvalues --   -0.48859  -0.48849  -0.48731  -0.48672  -0.48556
 Alpha  occ. eigenvalues --   -0.48460  -0.48418  -0.48102  -0.47964  -0.47920
 Alpha  occ. eigenvalues --   -0.47862  -0.47781  -0.47456  -0.47446  -0.47282
 Alpha  occ. eigenvalues --   -0.47232  -0.47115  -0.46687  -0.46664  -0.46512
 Alpha  occ. eigenvalues --   -0.46187  -0.45859  -0.45693  -0.45681  -0.45581
 Alpha  occ. eigenvalues --   -0.45497  -0.45400  -0.45283  -0.45108  -0.44852
 Alpha  occ. eigenvalues --   -0.44818  -0.44168  -0.44030  -0.43919  -0.43880
 Alpha  occ. eigenvalues --   -0.43825  -0.43733  -0.43548  -0.43541  -0.43351
 Alpha  occ. eigenvalues --   -0.43112  -0.42942  -0.42837  -0.42561  -0.42301
 Alpha  occ. eigenvalues --   -0.42225  -0.41973  -0.41746  -0.41654  -0.40324
 Alpha  occ. eigenvalues --   -0.40322  -0.40168  -0.40043  -0.39930  -0.39432
 Alpha  occ. eigenvalues --   -0.39402  -0.39266  -0.39045  -0.38676  -0.38581
 Alpha  occ. eigenvalues --   -0.38306  -0.37609  -0.36858  -0.36521  -0.36265
 Alpha  occ. eigenvalues --   -0.36007  -0.35787  -0.35476  -0.34059  -0.33691
 Alpha  occ. eigenvalues --   -0.33301  -0.33294  -0.32819  -0.32699  -0.32648
 Alpha  occ. eigenvalues --   -0.32440  -0.31669  -0.31255  -0.26550  -0.26506
 Alpha  occ. eigenvalues --   -0.23372  -0.22935
 Alpha virt. eigenvalues --   -0.07574  -0.07434  -0.00399   0.00361   0.01870
 Alpha virt. eigenvalues --    0.02437   0.04422   0.04463   0.05654   0.06200
 Alpha virt. eigenvalues --    0.06366   0.07160   0.07290   0.07989   0.08105

 Mulliken charges:
               1
     1  Mg   0.971458
     2  C   -0.006068
     3  C   -0.072383
     4  C   -0.076314
     5  C   -0.099584
     6  N   -0.340846
     7  C   -0.009372
     8  C   -0.022354
     9  C   -0.153800
    10  C    0.065418
    11  C    0.013350
    12  C   -0.006093
    13  C   -0.111469
    14  H    0.047910
    15  N   -0.435302
    16  C    0.162699
    17  C   -0.218418
    18  C   -0.077953
    19  C    0.134343
    20  C    0.083646
    21  C    0.066573
    22  O   -0.256630
    23  C   -0.006736
    24  N   -0.468568
    25  C    0.098697
    26  C   -0.069566
    27  C   -0.080548
    28  C    0.140051
    29  C    0.040758
    30  C   -0.043650
    31  C   -0.003975
    32  N   -0.428211
    33  C    0.106723
    34  C   -0.178928
    35  C    0.017647
    36  C    0.137065
    37  C    0.064752
    38  C    0.098816
    39  O   -0.191654
    40  C   -0.123661
    41  C    0.249268
    42  O   -0.247079
    43  O   -0.362870
    44  C    0.139196
    45  H   -0.004168
    46  H    0.019917
    47  H   -0.001745
    48  H    0.044517
    49  H    0.034740
    50  H    0.042249
    51  H    0.043403
    52  H    0.037649
    53  H    0.035425
    54  H    0.054649
    55  H    0.050967
    56  H    0.052984
    57  H    0.065783
    58  H    0.049337
    59  H    0.025706
    60  H    0.051267
    61  H    0.045772
    62  H    0.060802
    63  H    0.028080
    64  H    0.023075
    65  H    0.041815
    66  H    0.042121
    67  H    0.041578
    68  H    0.022337
    69  H    0.020621
    70  H    0.035336
    71  H    0.017906
    72  H    0.051251
    73  H    0.062378
    74  H    0.044993
    75  H    0.051487
    76  H    0.073871
    77  H    0.057973
    78  H    0.059964
    79  H    0.069625
    80  Mg   0.939017
    81  C   -0.063443
    82  C   -0.088021
    83  C   -0.039661
    84  C   -0.124253
    85  N   -0.332153
    86  C    0.013020
    87  C   -0.124750
    88  C   -0.102956
    89  C    0.083802
    90  C    0.035827
    91  C    0.029657
    92  C   -0.116568
    93  H    0.044707
    94  N   -0.455805
    95  C    0.158213
    96  C   -0.182147
    97  C   -0.057350
    98  C    0.198382
    99  C    0.076228
   100  C    0.004756
   101  O   -0.236046
   102  C    0.002957
   103  N   -0.354009
   104  C   -0.009578
   105  C   -0.086563
   106  C   -0.051300
   107  C    0.062263
   108  C    0.022936
   109  C   -0.053225
   110  C   -0.067799
   111  N   -0.433948
   112  C    0.194439
   113  C   -0.187383
   114  C    0.053581
   115  C    0.162149
   116  C    0.075226
   117  C    0.056212
   118  O   -0.207014
   119  C   -0.077475
   120  C    0.295392
   121  O   -0.257315
   122  O   -0.388874
   123  C    0.139769
   124  H   -0.000127
   125  H   -0.030094
   126  H   -0.003594
   127  H    0.037088
   128  H    0.045713
   129  H    0.048943
   130  H    0.034011
   131  H    0.036023
   132  H    0.037202
   133  H    0.027168
   134  H    0.055798
   135  H    0.044456
   136  H    0.060691
   137  H    0.065565
   138  H    0.024404
   139  H    0.059347
   140  H    0.052004
   141  H    0.063623
   142  H    0.053048
   143  H    0.024107
   144  H    0.042381
   145  H    0.053159
   146  H    0.040450
   147  H    0.043613
   148  H    0.030924
   149  H    0.022312
   150  H    0.048012
   151  H    0.040157
   152  H    0.047485
   153  H    0.037838
   154  H    0.062239
   155  H    0.083022
   156  H    0.056851
   157  H    0.068859
   158  H    0.036422
 Sum of Mulliken charges =  -0.00000

 Dipole moment (field-independent basis, Debye):
    X=              5.9451    Y=             -1.1361    Z=             -0.6881  Tot=              6.0917
 Quadrupole moment (field-independent basis, Debye-Ang):
   XX=           -545.4116   YY=           -567.3864   ZZ=           -497.2749
   XY=            -23.8811   XZ=              9.9890   YZ=             -9.5173

 Normal termination of Gaussian 16 at Mon Sep 20 02:28:53 2021.
