 Gaussian 16, Revision A.03,
 Gaussian 16:  ES64L-G16RevA.03 25-Dec-2016

 --------------------------------
 #p wB97XD/Def2SVP td=(nstates=5)
 --------------------------------

 --------------------------------
 TDDFT excited states in gaussian
 --------------------------------
 Symbolic Z-matrix:
 Charge =  0 Multiplicity = 1

                         Standard orientation:
 ---------------------------------------------------------------------
 Center     Atomic      Atomic             Coordinates (Angstroms)
 Number     Number       Type             X           Y           Z
 ---------------------------------------------------------------------
      1         12           0       -0.920383    0.042895    0.177975
      2          6           0        2.791825    0.211858    0.244848
      3          6           0       -0.433397   -3.278433   -0.216410
      4          6           0       -4.072715    0.052749   -0.154184
      5          6           0       -0.834378    3.579602   -0.219802
      6          7           0        0.964775   -1.318523   -0.014897
      7          6           0        2.300370   -1.044215    0.226167
      8          6           0        3.188547   -2.283812    0.382901
      9          6           0        2.218715   -3.345403   -0.221910
     10          6           0        0.809315   -2.638321   -0.170559
     11          6           0        2.555927   -3.801702   -1.606463
     12          6           0        3.735834   -2.595648    1.816129
     13          6           0        5.055860   -3.282148    1.930012
     14          1           0        5.168797   -4.294451    3.065487
     15          7           0       -2.151544   -1.449913   -0.103896
     16          6           0       -1.786892   -2.809891   -0.189369
     17          6           0       -2.993687   -3.585419   -0.181206
     18          6           0       -4.048395   -2.588391   -0.001777
     19          6           0       -3.431840   -1.313308   -0.078273
     20          6           0       -3.058914   -5.157504   -0.169312
     21          6           0       -5.499690   -2.894255    0.209193
     22          8           0       -6.365641   -1.989659    0.294273
     23          6           0       -6.023617   -4.272724    0.385035
     24          7           0       -2.282271    1.528870   -0.298645
     25          6           0       -3.593629    1.290501   -0.365494
     26          6           0       -4.458745    2.568988   -0.606552
     27          6           0       -3.408763    3.653805   -0.160821
     28          6           0       -2.058766    2.893465   -0.269998
     29          6           0       -4.860176    2.737042   -2.107355
     30          6           0       -3.640244    4.139497    1.331570
     31          6           0       -5.029894    4.662685    1.751741
     32          7           0        0.623546    1.604118    0.081612
     33          6           0        0.461045    2.981447   -0.014776
     34          6           0        1.755361    3.621372   -0.045750
     35          6           0        2.686251    2.583753    0.091336
     36          6           0        1.969346    1.355791    0.079784
     37          6           0        2.029393    5.087704   -0.056370
     38          6           0        4.110783    2.296613    0.196987
     39          8           0        5.115804    2.992516    0.257038
     40          6           0        4.160782    0.693597    0.395069
     41          6           0        5.118152    0.208975   -0.584369
     42          8           0        5.025674    0.288288   -1.819455
     43          8           0        6.317599    0.054151    0.049566
     44          6           0        7.459774   -0.355151   -0.703009
     45          1           0       -0.207888   -4.346785   -0.192330
     46          1           0       -5.157600    0.102624   -0.266523
     47          1           0       -0.873438    4.665833   -0.328424
     48          1           0        4.036177   -2.156584   -0.290813
     49          1           0        2.100904   -4.187648    0.459242
     50          1           0        1.828094   -3.344743   -2.276977
     51          1           0        2.415104   -4.879830   -1.681977
     52          1           0        3.548811   -3.559666   -1.985033
     53          1           0        3.020164   -3.270259    2.285175
     54          1           0        3.715486   -1.663117    2.379469
     55          1           0        5.751737   -2.463608    2.112890
     56          1           0        5.428937   -3.635655    0.968692
     57          1           0       -3.336759   -5.609240    0.782508
     58          1           0       -2.135071   -5.596294   -0.545293
     59          1           0       -3.825522   -5.341982   -0.922919
     60          1           0       -6.035757   -4.759940   -0.590275
     61          1           0       -7.038198   -4.153631    0.766197
     62          1           0       -5.398523   -4.746147    1.141424
     63          1           0       -5.335774    2.457908    0.031977
     64          1           0       -3.340854    4.535174   -0.797813
     65          1           0       -5.940376    2.596460   -2.153476
     66          1           0       -4.336593    2.095459   -2.815367
     67          1           0       -4.618520    3.786922   -2.279033
     68          1           0       -2.979671    4.984586    1.523927
     69          1           0       -3.284737    3.330031    1.968881
     70          1           0       -5.333017    4.009591    2.569946
     71          1           0       -5.657878    4.473639    0.880638
     72          1           0       -5.003297    5.697515    2.092763
     73          1           0        1.068722    5.541647    0.187917
     74          1           0        2.325552    5.329957   -1.076970
     75          1           0        2.844355    5.393279    0.599777
     76          1           0        4.489658    0.462026    1.407978
     77          1           0        7.211680   -0.535573   -1.749185
     78          1           0        7.760362   -1.306210   -0.263248
     79          1           0        8.299256    0.321006   -0.547583
 ---------------------------------------------------------------------

 SCF Done:  E(RwB97XD) =  -2035.30110740     A.U. after   17 cycles

 Excitation energies and oscillator strengths:

 Excited State   1:      Singlet-A      1.6008 eV  774.50 nm  f=0.3880  <S**2>=0.000
     155 ->158        -0.16178
     156 ->157         0.68931
     155 <-158        -0.11301
 This state for optimization and/or second-order correction.
 Total Energy, E(TD-HF/TD-DFT) =  -2035.24227838
 Copying the excited state density for this state as the 1-particle RhoCI density.

 Excited State   2:      Singlet-A      2.1247 eV  583.54 nm  f=0.2116  <S**2>=0.000
     155 ->157         0.66543
     156 ->158         0.22057

 Excited State   3:      Singlet-A      3.1835 eV  389.46 nm  f=0.0052  <S**2>=0.000
     152 ->157         0.18195
     153 ->157         0.66089

 Excited State   4:      Singlet-A      3.3513 eV  369.96 nm  f=0.0105  <S**2>=0.000
     152 ->157         0.29003
     154 ->157         0.55814
     154 ->159         0.19181
     154 ->160        -0.17745

 Excited State   5:      Singlet-A      3.4320 eV  361.25 nm  f=0.0078  <S**2>=0.000
     152 ->157         0.56667
     153 ->157        -0.18183
     154 ->157        -0.18259
     154 ->159        -0.15527
     154 ->160         0.19233

 The electronic state is 1-A.
 Alpha  occ. eigenvalues --  -46.95246 -19.30060 -19.25002 -19.24407 -19.22451
 Alpha  occ. eigenvalues --  -14.46943 -14.46005 -14.44283 -14.44205 -10.43024
 Alpha  occ. eigenvalues --  -10.40060 -10.37931 -10.35463 -10.34859 -10.34800
 Alpha  occ. eigenvalues --  -10.34782 -10.34698 -10.34488 -10.34452 -10.33849
 Alpha  occ. eigenvalues --  -10.33215 -10.33125 -10.32920 -10.32400 -10.32276
 Alpha  occ. eigenvalues --  -10.32189 -10.32171 -10.32066 -10.32049 -10.32005
 Alpha  occ. eigenvalues --  -10.31712 -10.31547 -10.31420 -10.31000 -10.30777
 Alpha  occ. eigenvalues --  -10.30330 -10.30095 -10.29789 -10.29648 -10.29626
 Alpha  occ. eigenvalues --  -10.29564 -10.29440 -10.29383  -3.21348  -1.94906
 Alpha  occ. eigenvalues --   -1.94471  -1.94334  -1.18745  -1.12521  -1.09643
 Alpha  occ. eigenvalues --   -1.09235  -1.06935  -1.06063  -1.05671  -1.04602
 Alpha  occ. eigenvalues --   -0.95719  -0.91423  -0.90686  -0.89963  -0.89398
 Alpha  occ. eigenvalues --   -0.88796  -0.88187  -0.86640  -0.85985  -0.85031
 Alpha  occ. eigenvalues --   -0.84026  -0.83040  -0.82788  -0.80516  -0.79426
 Alpha  occ. eigenvalues --   -0.79223  -0.78178  -0.77391  -0.75369  -0.72906
 Alpha  occ. eigenvalues --   -0.71221  -0.70601  -0.70184  -0.68921  -0.67662
 Alpha  occ. eigenvalues --   -0.67092  -0.66905  -0.66467  -0.64059  -0.62742
 Alpha  occ. eigenvalues --   -0.61791  -0.61506  -0.60848  -0.60396  -0.59706
 Alpha  occ. eigenvalues --   -0.57864  -0.57612  -0.56868  -0.56622  -0.56105
 Alpha  occ. eigenvalues --   -0.55671  -0.55191  -0.54780  -0.54475  -0.54359
 Alpha  occ. eigenvalues --   -0.53705  -0.53356  -0.53192  -0.52942  -0.52226
 Alpha  occ. eigenvalues --   -0.51851  -0.51826  -0.51645  -0.51457  -0.51164
 Alpha  occ. eigenvalues --   -0.50658  -0.50261  -0.50079  -0.49792  -0.49523
 Alpha  occ. eigenvalues --   -0.49176  -0.48460  -0.48361  -0.48150  -0.47902
 Alpha  occ. eigenvalues --   -0.47385  -0.47042  -0.46927  -0.46748  -0.46301
 Alpha  occ. eigenvalues --   -0.45926  -0.45676  -0.45187  -0.45066  -0.44770
 Alpha  occ. eigenvalues --   -0.44602  -0.44042  -0.43921  -0.43609  -0.43245
 Alpha  occ. eigenvalues --   -0.42662  -0.42594  -0.41750  -0.41379  -0.41239
 Alpha  occ. eigenvalues --   -0.40482  -0.40171  -0.39695  -0.39238  -0.38411
 Alpha  occ. eigenvalues --   -0.37867  -0.36632  -0.36279  -0.35404  -0.33789
 Alpha  occ. eigenvalues --   -0.33450  -0.32253  -0.32081  -0.31776  -0.26182
 Alpha  occ. eigenvalues --   -0.23556
 Alpha virt. eigenvalues --   -0.08032   0.01132   0.02349   0.04273   0.04935
 Alpha virt. eigenvalues --    0.06095   0.07638   0.08297   0.09715   0.10574
 Alpha virt. eigenvalues --    0.11435   0.12485   0.12815   0.13340   0.13391

 Mulliken charges:
               1
     1  Mg   0.983482
     2  C   -0.013885
     3  C   -0.065884
     4  C   -0.042928
     5  C   -0.083039
     6  N   -0.296753
     7  C   -0.036490
     8  C   -0.084026
     9  C   -0.102228
    10  C   -0.016712
    11  C    0.047868
    12  C    0.043043
    13  C   -0.116499
    14  H    0.053883
    15  N   -0.496911
    16  C    0.190217
    17  C   -0.170652
    18  C   -0.082104
    19  C    0.148156
    20  C    0.071564
    21  C    0.008698
    22  O   -0.274942
    23  C    0.009822
    24  N   -0.391742
    25  C    0.045264
    26  C   -0.110697
    27  C   -0.102271
    28  C    0.088895
    29  C    0.051786
    30  C   -0.033962
    31  C   -0.032705
    32  N   -0.400048
    33  C    0.123218
    34  C   -0.202612
    35  C   -0.040036
    36  C    0.129248
    37  C    0.087851
    38  C    0.156511
    39  O   -0.192278
    40  C   -0.059976
    41  C    0.245597
    42  O   -0.268765
    43  O   -0.350400
    44  C    0.133671
    45  H   -0.007698
    46  H    0.013676
    47  H    0.005013
    48  H    0.033331
    49  H    0.025425
    50  H    0.044487
    51  H    0.034255
    52  H    0.048406
    53  H    0.032036
    54  H    0.031281
    55  H    0.047993
    56  H    0.042914
    57  H    0.068073
    58  H    0.040296
    59  H    0.043109
    60  H    0.064006
    61  H    0.055091
    62  H    0.045542
    63  H    0.047152
    64  H    0.025414
    65  H    0.046378
    66  H    0.060250
    67  H    0.027961
    68  H    0.024662
    69  H    0.033423
    70  H    0.042556
    71  H    0.036231
    72  H    0.048596
    73  H    0.031177
    74  H    0.060014
    75  H    0.065027
    76  H    0.071909
    77  H    0.066087
    78  H    0.033747
    79  H    0.061946
 Sum of Mulliken charges =  -0.00000

 Dipole moment (field-independent basis, Debye):
    X=             -0.3920    Y=             -2.7447    Z=              1.8927  Tot=              3.3570
 Quadrupole moment (field-independent basis, Debye-Ang):
   XX=           -274.9565   YY=           -223.9816   ZZ=           -258.8555
   XY=            -25.0288   XZ=              5.2044   YZ=              0.8929

 Normal termination of Gaussian 16 at Sat Sep 18 18:37:42 2021.
