 Gaussian 16, Revision A.03,
 Gaussian 16:  ES64L-G16RevA.03 25-Dec-2016

 --------------------------------
 #p wB97XD/Def2SVP td=(nstates=5)
 --------------------------------

 --------------------------------
 TDDFT excited states in gaussian
 --------------------------------
 Symbolic Z-matrix:
 Charge =  0 Multiplicity = 1

                         Standard orientation:
 ---------------------------------------------------------------------
 Center     Atomic      Atomic             Coordinates (Angstroms)
 Number     Number       Type             X           Y           Z
 ---------------------------------------------------------------------
      1         12           0       19.017204   -0.261383   -0.171559
      2          6           0       15.739280   -1.466479   -0.652735
      3          6           0       18.359500    2.100962   -2.536705
      4          6           0       21.860432    1.353377    0.823458
      5          6           0       19.200376   -2.497632    2.597133
      6          7           0       17.162838    0.349486   -1.367378
      7          6           0       15.996878   -0.338868   -1.543894
      8          6           0       15.015513    0.403590   -2.467236
      9          6           0       16.108652    1.273068   -3.261954
     10          6           0       17.296042    1.241494   -2.332061
     11          6           0       16.484140    0.753944   -4.675832
     12          6           0       13.970868    1.340618   -1.709559
     13          6           0       12.657092    1.682382   -2.395340
     14          1           0       12.341102    3.104883   -2.904424
     15          7           0       20.082507    1.509889   -0.764279
     16          6           0       19.681938    2.232939   -1.850080
     17          6           0       20.653262    3.164968   -2.219360
     18          6           0       21.730729    2.973403   -1.274614
     19          6           0       21.269568    1.935884   -0.309298
     20          6           0       20.544176    4.124008   -3.398661
     21          6           0       23.019096    3.762046   -1.339609
     22          8           0       23.179231    4.615469   -2.249960
     23          6           0       24.244549    3.507422   -0.392955
     24          7           0       20.278543   -0.575955    1.453136
     25          6           0       21.439596    0.223920    1.631936
     26          6           0       22.356739   -0.420569    2.633824
     27          6           0       21.445209   -1.385244    3.422987
     28          6           0       20.265640   -1.580725    2.426366
     29          6           0       23.574288   -1.238742    2.147453
     30          6           0       20.903709   -0.731290    4.801104
     31          6           0       21.789357   -0.802353    6.035940
     32          7           0       17.782531   -1.820182    0.653239
     33          6           0       17.993357   -2.635020    1.755424
     34          6           0       16.902100   -3.444624    2.008540
     35          6           0       15.965957   -3.064334    1.031696
     36          6           0       16.548896   -2.053129    0.249442
     37          6           0       16.819207   -4.465926    3.098754
     38          6           0       14.746576   -3.369944    0.494909
     39          8           0       13.986475   -4.284120    0.746554
     40          6           0       14.451438   -2.181155   -0.443758
     41          6           0       13.388521   -1.390387    0.258863
     42          8           0       13.509661   -0.932677    1.352435
     43          8           0       12.230028   -1.342049   -0.518567
     44          6           0       11.139816   -0.748307    0.174167
     45          1           0       18.273199    2.735470   -3.421513
     46          1           0       22.869767    1.698351    1.059252
     47          1           0       19.386458   -3.247232    3.368806
     48          1           0       14.570195   -0.251508   -3.215249
     49          1           0       15.667090    2.258313   -3.409074
     50          1           0       15.871944    1.380391   -5.325192
     51          1           0       16.191762   -0.285225   -4.826170
     52          1           0       17.536383    0.928192   -4.901198
     53          1           0       14.411269    2.318102   -1.512681
     54          1           0       13.816609    0.895360   -0.726440
     55          1           0       11.899664    1.398024   -1.663459
     56          1           0       12.547601    0.998511   -3.236872
     57          1           0       21.433732    4.369332   -3.979809
     58          1           0       20.093904    4.962954   -2.868584
     59          1           0       19.914576    3.688010   -4.174326
     60          1           0       24.620848    2.497168   -0.551555
     61          1           0       23.812261    3.677729    0.592864
     62          1           0       25.045448    4.245525   -0.434051
     63          1           0       22.672444    0.372091    3.311369
     64          1           0       21.942442   -2.326801    3.656362
     65          1           0       23.521748   -2.309396    2.344263
     66          1           0       24.502649   -0.681049    2.272582
     67          1           0       23.484365   -1.212041    1.061614
     68          1           0       19.991740   -1.312853    4.934487
     69          1           0       20.646614    0.318285    4.657047
     70          1           0       21.899870    0.197971    6.453685
     71          1           0       22.770169   -1.185197    5.752550
     72          1           0       21.333133   -1.410038    6.817830
     73          1           0       15.875374   -4.279637    3.610355
     74          1           0       17.596705   -4.340043    3.853260
     75          1           0       16.807280   -5.488809    2.721972
     76          1           0       14.069924   -2.581089   -1.382594
     77          1           0       10.557174   -1.523378    0.671308
     78          1           0       10.386684   -0.318724   -0.487498
     79          1           0       11.465243   -0.022993    0.917946
     80         12           0      -18.784961    0.359001    0.250116
     81          6           0      -15.699245   -0.591910   -1.116958
     82          6           0      -19.999265   -2.753768   -0.580749
     83          6           0      -21.688236    1.288332    1.514639
     84          6           0      -17.417787    3.533882    0.877542
     85          7           0      -17.873581   -1.445685   -0.655382
     86          6           0      -16.594296   -1.642947   -1.175507
     87          6           0      -16.266671   -3.159593   -1.468946
     88          6           0      -17.677533   -3.713719   -1.422898
     89          6           0      -18.602482   -2.568498   -0.836655
     90          6           0      -18.207397   -4.034128   -2.895257
     91          6           0      -15.436998   -3.628763   -0.192411
     92          6           0      -14.180744   -4.571699   -0.450856
     93          1           0      -14.450084   -5.461838   -1.637100
     94          7           0      -20.576148   -0.532810    0.297760
     95          6           0      -20.897227   -1.767571   -0.078243
     96          6           0      -22.273829   -2.088583    0.191190
     97          6           0      -22.754878   -1.011602    0.961830
     98          6           0      -21.662577    0.031563    0.906750
     99          6           0      -22.973257   -3.339832   -0.195953
    100          6           0      -24.022441   -0.877207    1.780298
    101          8           0      -24.194693    0.024834    2.607977
    102          6           0      -25.201667   -1.819013    1.521416
    103          7           0      -19.458342    2.208784    1.041956
    104          6           0      -20.730493    2.248919    1.562028
    105          6           0      -20.914020    3.581151    2.285800
    106          6           0      -19.476013    4.290324    2.193506
    107          6           0      -18.692989    3.292278    1.381647
    108          6           0      -22.145628    4.347575    1.686331
    109          6           0      -18.819226    4.688657    3.505898
    110          6           0      -18.362621    6.180459    3.552946
    111          7           0      -16.953074    1.290938   -0.074782
    112          6           0      -16.536729    2.626699    0.221923
    113          6           0      -15.202176    2.836239   -0.213447
    114          6           0      -14.849266    1.582823   -0.741302
    115          6           0      -15.963795    0.721488   -0.670808
    116          6           0      -14.319951    4.038798   -0.113600
    117          6           0      -13.796899    0.828659   -1.343568
    118          8           0      -12.670222    1.111970   -1.676852
    119          6           0      -14.294394   -0.636184   -1.500121
    120          6           0      -13.984325   -1.105621   -2.875055
    121          8           0      -14.513776   -0.752649   -3.925066
    122          8           0      -13.041287   -2.045594   -2.758764
    123          6           0      -12.631631   -2.717668   -3.974024
    124          1           0      -20.469521   -3.735842   -0.661897
    125          1           0      -22.677218    1.537360    1.907482
    126          1           0      -16.933289    4.484730    1.109349
    127          1           0      -15.638150   -3.142377   -2.358784
    128          1           0      -17.719083   -4.583616   -0.768273
    129          1           0      -17.479654   -3.775532   -3.664677
    130          1           0      -19.119273   -3.461099   -3.062137
    131          1           0      -18.422804   -5.102395   -2.870185
    132          1           0      -16.035254   -4.182646    0.530451
    133          1           0      -15.132392   -2.716305    0.320835
    134          1           0      -14.089166   -5.313493    0.342612
    135          1           0      -13.243324   -4.020848   -0.369752
    136          1           0      -23.180007   -3.877839    0.730200
    137          1           0      -22.340128   -3.975573   -0.813322
    138          1           0      -23.909663   -3.166198   -0.725305
    139          1           0      -26.002686   -1.232373    1.970631
    140          1           0      -25.082810   -2.809693    1.961784
    141          1           0      -25.525059   -1.943123    0.488094
    142          1           0      -21.161901    3.512785    3.344997
    143          1           0      -19.577753    5.190395    1.587049
    144          1           0      -22.712529    4.707742    2.544893
    145          1           0      -22.752101    3.749110    1.006456
    146          1           0      -21.847357    5.310626    1.270326
    147          1           0      -17.967445    4.070055    3.786815
    148          1           0      -19.639262    4.666888    4.225042
    149          1           0      -18.703878    6.716263    2.667044
    150          1           0      -17.281980    6.274100    3.447416
    151          1           0      -18.743985    6.683988    4.441510
    152          1           0      -14.060485    4.022287    0.945300
    153          1           0      -14.906811    4.884287   -0.471875
    154          1           0      -13.391330    3.922731   -0.670659
    155          1           0      -13.626885   -1.193960   -0.841942
    156          1           0      -12.329951   -1.983579   -4.721677
    157          1           0      -13.393879   -3.296911   -4.496226
    158          1           0      -11.782311   -3.343915   -3.700352
 ---------------------------------------------------------------------

 SCF Done:  E(RwB97XD) =  -4070.60983754     A.U. after   19 cycles

 Excitation energies and oscillator strengths:

 Excited State   1:      Singlet-A      1.6461 eV  753.19 nm  f=0.4145  <S**2>=0.000
     309 -> 315       -0.19118
     311 -> 313        0.68045
     309 <- 315       -0.11796
 This state for optimization and/or second-order correction.
 Total Energy, E(TD-HF/TD-DFT) =  -4070.54934360
 Copying the excited state density for this state as the 1-particle RhoCI density.

 Excited State   2:      Singlet-A      1.6811 eV  737.54 nm  f=0.3712  <S**2>=0.000
     310 -> 316       -0.16571
     312 -> 314        0.68549
     310 <- 316       -0.10523

 Excited State   3:      Singlet-A      2.0912 eV  592.88 nm  f=0.1263  <S**2>=0.000
     309 -> 313        0.64854
     311 -> 315        0.26302

 Excited State   4:      Singlet-A      2.2342 eV  554.93 nm  f=0.1199  <S**2>=0.000
     310 -> 314        0.63529
     312 -> 316        0.28417

 Excited State   5:      Singlet-A      3.1713 eV  390.96 nm  f=0.0098  <S**2>=0.000
     305 -> 313       -0.26035
     307 -> 313        0.61036
     307 -> 317       -0.13634

 The electronic state is 1-A.
 Alpha  occ. eigenvalues --  -46.96624 -46.94099 -19.30592 -19.30427 -19.25808
 Alpha  occ. eigenvalues --  -19.25000 -19.23707 -19.23138 -19.22899 -19.22363
 Alpha  occ. eigenvalues --  -14.47753 -14.47244 -14.46838 -14.46209 -14.44840
 Alpha  occ. eigenvalues --  -14.44378 -14.43791 -14.43014 -10.43523 -10.42121
 Alpha  occ. eigenvalues --  -10.40261 -10.38996 -10.37325 -10.37080 -10.36444
 Alpha  occ. eigenvalues --  -10.36337 -10.35987 -10.35663 -10.35132 -10.35068
 Alpha  occ. eigenvalues --  -10.34965 -10.34731 -10.34728 -10.34698 -10.34697
 Alpha  occ. eigenvalues --  -10.34444 -10.34258 -10.34040 -10.33952 -10.33287
 Alpha  occ. eigenvalues --  -10.33277 -10.33036 -10.32946 -10.32850 -10.32488
 Alpha  occ. eigenvalues --  -10.32445 -10.32379 -10.32351 -10.32341 -10.32152
 Alpha  occ. eigenvalues --  -10.32075 -10.32064 -10.32007 -10.31873 -10.31842
 Alpha  occ. eigenvalues --  -10.31806 -10.31684 -10.31622 -10.31617 -10.31593
 Alpha  occ. eigenvalues --  -10.31502 -10.31464 -10.31411 -10.31265 -10.31109
 Alpha  occ. eigenvalues --  -10.31083 -10.31083 -10.30672 -10.30580 -10.30540
 Alpha  occ. eigenvalues --  -10.30438 -10.30407 -10.30326 -10.30208 -10.30144
 Alpha  occ. eigenvalues --  -10.30122 -10.29938 -10.29937 -10.29893 -10.29765
 Alpha  occ. eigenvalues --  -10.29601 -10.29574 -10.29443 -10.29222 -10.28167
 Alpha  occ. eigenvalues --  -10.27527  -3.22395  -3.20217  -1.95975  -1.95504
 Alpha  occ. eigenvalues --   -1.95353  -1.93825  -1.93328  -1.93221  -1.19762
 Alpha  occ. eigenvalues --   -1.19246  -1.12616  -1.12228  -1.11710  -1.11518
 Alpha  occ. eigenvalues --   -1.09504  -1.09229  -1.07751  -1.07067  -1.06687
 Alpha  occ. eigenvalues --   -1.05952  -1.05884  -1.04901  -1.04341  -1.03879
 Alpha  occ. eigenvalues --   -0.96345  -0.94578  -0.91599  -0.90836  -0.90602
 Alpha  occ. eigenvalues --   -0.90536  -0.90399  -0.90272  -0.89879  -0.89498
 Alpha  occ. eigenvalues --   -0.89001  -0.88924  -0.88568  -0.87839  -0.86272
 Alpha  occ. eigenvalues --   -0.85860  -0.85505  -0.85405  -0.84801  -0.84244
 Alpha  occ. eigenvalues --   -0.83789  -0.83755  -0.83194  -0.82623  -0.82300
 Alpha  occ. eigenvalues --   -0.82276  -0.80898  -0.79992  -0.79320  -0.79281
 Alpha  occ. eigenvalues --   -0.78866  -0.78656  -0.77875  -0.77620  -0.77486
 Alpha  occ. eigenvalues --   -0.76896  -0.75582  -0.75069  -0.74214  -0.73372
 Alpha  occ. eigenvalues --   -0.71451  -0.71156  -0.70774  -0.70393  -0.70358
 Alpha  occ. eigenvalues --   -0.69593  -0.69313  -0.69136  -0.68221  -0.67354
 Alpha  occ. eigenvalues --   -0.67297  -0.67148  -0.66979  -0.66686  -0.66470
 Alpha  occ. eigenvalues --   -0.66209  -0.64772  -0.64411  -0.62813  -0.62475
 Alpha  occ. eigenvalues --   -0.62133  -0.61555  -0.61522  -0.61163  -0.61133
 Alpha  occ. eigenvalues --   -0.61003  -0.60587  -0.60061  -0.59690  -0.59262
 Alpha  occ. eigenvalues --   -0.58650  -0.58469  -0.57658  -0.57556  -0.57287
 Alpha  occ. eigenvalues --   -0.57247  -0.57049  -0.56341  -0.55780  -0.55734
 Alpha  occ. eigenvalues --   -0.55482  -0.55481  -0.55136  -0.55098  -0.54706
 Alpha  occ. eigenvalues --   -0.54536  -0.54501  -0.54461  -0.54191  -0.54042
 Alpha  occ. eigenvalues --   -0.53754  -0.53658  -0.53323  -0.53201  -0.53123
 Alpha  occ. eigenvalues --   -0.53007  -0.52761  -0.52672  -0.52523  -0.52324
 Alpha  occ. eigenvalues --   -0.52203  -0.52042  -0.51934  -0.51753  -0.51638
 Alpha  occ. eigenvalues --   -0.51528  -0.51307  -0.51185  -0.50905  -0.50717
 Alpha  occ. eigenvalues --   -0.50595  -0.50474  -0.50426  -0.50390  -0.49840
 Alpha  occ. eigenvalues --   -0.49789  -0.49544  -0.49443  -0.49249  -0.49128
 Alpha  occ. eigenvalues --   -0.49083  -0.48933  -0.48631  -0.48514  -0.48442
 Alpha  occ. eigenvalues --   -0.48318  -0.48294  -0.48232  -0.47989  -0.47945
 Alpha  occ. eigenvalues --   -0.47696  -0.47204  -0.47193  -0.46980  -0.46916
 Alpha  occ. eigenvalues --   -0.46636  -0.46607  -0.46487  -0.46463  -0.46370
 Alpha  occ. eigenvalues --   -0.46215  -0.45789  -0.45688  -0.45648  -0.45583
 Alpha  occ. eigenvalues --   -0.45259  -0.45147  -0.44966  -0.44884  -0.44867
 Alpha  occ. eigenvalues --   -0.44523  -0.44522  -0.44406  -0.44257  -0.44128
 Alpha  occ. eigenvalues --   -0.43840  -0.43527  -0.43419  -0.43266  -0.43145
 Alpha  occ. eigenvalues --   -0.43003  -0.42885  -0.42683  -0.42371  -0.42286
 Alpha  occ. eigenvalues --   -0.42180  -0.41961  -0.41605  -0.41322  -0.40704
 Alpha  occ. eigenvalues --   -0.40413  -0.40176  -0.39796  -0.39595  -0.39552
 Alpha  occ. eigenvalues --   -0.39350  -0.39098  -0.38869  -0.38860  -0.38601
 Alpha  occ. eigenvalues --   -0.38433  -0.38305  -0.37458  -0.37033  -0.36208
 Alpha  occ. eigenvalues --   -0.35858  -0.35644  -0.34947  -0.34295  -0.33628
 Alpha  occ. eigenvalues --   -0.33560  -0.33102  -0.32433  -0.32131  -0.31955
 Alpha  occ. eigenvalues --   -0.31660  -0.31612  -0.31287  -0.26209  -0.26035
 Alpha  occ. eigenvalues --   -0.23810  -0.22860
 Alpha virt. eigenvalues --   -0.07927  -0.06909  -0.00555   0.00248   0.02033
 Alpha virt. eigenvalues --    0.02553   0.04589   0.04723   0.04981   0.06473
 Alpha virt. eigenvalues --    0.06786   0.07473   0.08034   0.08133   0.08454

 Mulliken charges:
               1
     1  Mg   0.948206
     2  C    0.000502
     3  C   -0.064730
     4  C   -0.087483
     5  C   -0.085749
     6  N   -0.297836
     7  C   -0.037965
     8  C   -0.036690
     9  C   -0.151843
    10  C    0.082361
    11  C    0.029901
    12  C   -0.000984
    13  C   -0.097851
    14  H    0.043925
    15  N   -0.425868
    16  C    0.122566
    17  C   -0.157825
    18  C   -0.085242
    19  C    0.169156
    20  C    0.086433
    21  C    0.032040
    22  O   -0.271710
    23  C   -0.011446
    24  N   -0.428142
    25  C    0.087224
    26  C   -0.091980
    27  C   -0.113463
    28  C    0.082447
    29  C    0.055263
    30  C   -0.033199
    31  C   -0.022702
    32  N   -0.388544
    33  C    0.120817
    34  C   -0.174882
    35  C    0.038928
    36  C    0.121426
    37  C    0.098387
    38  C    0.026027
    39  O   -0.206331
    40  C   -0.074570
    41  C    0.254095
    42  O   -0.209751
    43  O   -0.358099
    44  C    0.118654
    45  H   -0.004319
    46  H   -0.015973
    47  H    0.009910
    48  H    0.028247
    49  H    0.041518
    50  H    0.039204
    51  H    0.042955
    52  H    0.043348
    53  H    0.044047
    54  H    0.047712
    55  H    0.049762
    56  H    0.043115
    57  H    0.069559
    58  H    0.065479
    59  H    0.029152
    60  H    0.067683
    61  H    0.050357
    62  H    0.051407
    63  H    0.031742
    64  H    0.027877
    65  H    0.049113
    66  H    0.044359
    67  H    0.015814
    68  H    0.024924
    69  H    0.037015
    70  H    0.036012
    71  H    0.032819
    72  H    0.043065
    73  H    0.055741
    74  H    0.023716
    75  H    0.063666
    76  H    0.047933
    77  H    0.048958
    78  H    0.048585
    79  H    0.062024
    80  Mg   0.983904
    81  C    0.006602
    82  C   -0.113490
    83  C   -0.075985
    84  C   -0.074189
    85  N   -0.351014
    86  C   -0.049204
    87  C   -0.050220
    88  C   -0.097872
    89  C    0.098288
    90  C    0.023299
    91  C    0.001746
    92  C   -0.114967
    93  H    0.031946
    94  N   -0.466499
    95  C    0.154073
    96  C   -0.174433
    97  C   -0.070273
    98  C    0.138044
    99  C    0.078187
   100  C    0.062975
   101  O   -0.243523
   102  C   -0.045984
   103  N   -0.390042
   104  C    0.116372
   105  C   -0.106986
   106  C   -0.048727
   107  C    0.073139
   108  C    0.009966
   109  C    0.001453
   110  C   -0.071397
   111  N   -0.414339
   112  C    0.082247
   113  C   -0.193421
   114  C   -0.037904
   115  C    0.139185
   116  C    0.088154
   117  C    0.083158
   118  O   -0.205378
   119  C   -0.074224
   120  C    0.226201
   121  O   -0.256840
   122  O   -0.333929
   123  C    0.142524
   124  H   -0.000092
   125  H    0.028404
   126  H   -0.008061
   127  H    0.049736
   128  H    0.040056
   129  H    0.051993
   130  H    0.043564
   131  H    0.040193
   132  H    0.030994
   133  H    0.043331
   134  H    0.042814
   135  H    0.062663
   136  H    0.053130
   137  H    0.041034
   138  H    0.058388
   139  H    0.058621
   140  H    0.065561
   141  H    0.053019
   142  H    0.043231
   143  H    0.032366
   144  H    0.027641
   145  H    0.060850
   146  H    0.025921
   147  H    0.049351
   148  H    0.028160
   149  H    0.020853
   150  H    0.037411
   151  H    0.045758
   152  H    0.054243
   153  H    0.052854
   154  H    0.061471
   155  H    0.067128
   156  H    0.054628
   157  H    0.045144
   158  H    0.057021
 Sum of Mulliken charges =  -0.00000

 Dipole moment (field-independent basis, Debye):
    X=             -2.1194    Y=             -4.1015    Z=              2.2513  Tot=              5.1364
 Quadrupole moment (field-independent basis, Debye-Ang):
   XX=           -320.1648   YY=           -499.2095   ZZ=           -505.8266
   XY=             24.3250   XZ=              5.9622   YZ=             19.2118

 Normal termination of Gaussian 16 at Sun Sep 19 12:52:23 2021.
