 Gaussian 16, Revision A.03,
 Gaussian 16:  ES64L-G16RevA.03 25-Dec-2016

 --------------------------------
 #p wB97XD/Def2SVP td=(nstates=5)
 --------------------------------

 --------------------------------
 TDDFT excited states in gaussian
 --------------------------------
 Symbolic Z-matrix:
 Charge =  0 Multiplicity = 1

                         Standard orientation:
 ---------------------------------------------------------------------
 Center     Atomic      Atomic             Coordinates (Angstroms)
 Number     Number       Type             X           Y           Z
 ---------------------------------------------------------------------
      1         12           0      -27.365772    0.511970   -0.309263
      2          6           0      -23.734816    0.524489   -0.024746
      3          6           0      -26.967682   -0.868955   -3.427620
      4          6           0      -30.406297   -0.847651   -0.010856
      5          6           0      -27.564836    2.008813    2.734776
      6          7           0      -25.514109   -0.279525   -1.489047
      7          6           0      -24.116488   -0.087864   -1.192651
      8          6           0      -23.280333   -0.473304   -2.416194
      9          6           0      -24.310446   -0.548289   -3.581566
     10          6           0      -25.721908   -0.558862   -2.845661
     11          6           0      -24.220105    0.685649   -4.598879
     12          6           0      -22.335678   -1.629817   -2.266289
     13          6           0      -22.560618   -2.585531   -1.070839
     14          1           0      -21.769873   -3.868032   -0.754030
     15          7           0      -28.600118   -0.594639   -1.625771
     16          6           0      -28.231762   -1.080352   -2.860913
     17          6           0      -29.433236   -1.715359   -3.486964
     18          6           0      -30.353056   -1.793218   -2.444352
     19          6           0      -29.823180   -1.121710   -1.259917
     20          6           0      -29.392386   -2.213095   -4.888304
     21          6           0      -31.732352   -2.508227   -2.539106
     22          8           0      -31.990341   -3.112323   -3.565065
     23          6           0      -32.701480   -2.635076   -1.410776
     24          7           0      -28.685972    0.478707    1.262674
     25          6           0      -29.957095   -0.051153    1.043832
     26          6           0      -30.889014    0.258726    2.215321
     27          6           0      -30.125782    1.410154    2.964960
     28          6           0      -28.758796    1.337112    2.280894
     29          6           0      -32.359301    0.643871    1.909362
     30          6           0      -30.061912    1.293586    4.521686
     31          6           0      -30.983440    2.311656    5.336940
     32          7           0      -25.972172    1.233512    1.077835
     33          6           0      -26.229619    1.906888    2.263100
     34          6           0      -24.990260    2.423540    2.789623
     35          6           0      -24.034227    1.825557    1.957406
     36          6           0      -24.708557    1.133566    0.921209
     37          6           0      -24.890941    3.253805    4.081063
     38          6           0      -22.636046    1.710509    1.676225
     39          8           0      -21.725727    2.274078    2.316632
     40          6           0      -22.343961    0.978866    0.291834
     41          6           0      -21.352912   -0.062033    0.630180
     42          8           0      -21.420818   -0.872058    1.560640
     43          8           0      -20.419222   -0.038367   -0.352234
     44          6           0      -19.202032   -0.880469   -0.130876
     45          1           0      -26.839319   -1.323850   -4.411542
     46          1           0      -31.403450   -1.286685    0.066042
     47          1           0      -27.670251    2.595878    3.649083
     48          1           0      -22.720403    0.458344   -2.497868
     49          1           0      -24.307081   -1.511905   -4.091318
     50          1           0      -23.866609    0.221616   -5.518795
     51          1           0      -23.555457    1.446082   -4.188196
     52          1           0      -25.245890    1.033041   -4.727133
     53          1           0      -21.332938   -1.203857   -2.295261
     54          1           0      -22.493049   -2.143118   -3.215489
     55          1           0      -23.608781   -2.876696   -1.146174
     56          1           0      -22.425566   -2.038876   -0.137335
     57          1           0      -29.437767   -3.299576   -4.819386
     58          1           0      -28.466339   -1.865101   -5.344953
     59          1           0      -30.212905   -1.769161   -5.453107
     60          1           0      -32.404586   -3.218298   -0.539938
     61          1           0      -33.601836   -3.181670   -1.689764
     62          1           0      -32.933954   -1.585219   -1.232837
     63          1           0      -30.823989   -0.717327    2.697540
     64          1           0      -30.621811    2.323335    2.635341
     65          1           0      -33.061744   -0.179403    2.043244
     66          1           0      -32.451517    0.922152    0.860055
     67          1           0      -32.602198    1.513165    2.521426
     68          1           0      -29.057350    1.380095    4.936718
     69          1           0      -30.341251    0.258112    4.716677
     70          1           0      -31.413018    1.662019    6.099113
     71          1           0      -31.768567    2.791587    4.752500
     72          1           0      -30.335886    3.122746    5.668058
     73          1           0      -24.060386    3.959032    4.118778
     74          1           0      -24.717154    2.466355    4.813625
     75          1           0      -25.753262    3.914029    4.171215
     76          1           0      -21.973257    1.709365   -0.428731
     77          1           0      -18.536157   -0.781360   -0.988832
     78          1           0      -19.463324   -1.934720   -0.037383
     79          1           0      -18.792970   -0.447615    0.780952
     80         12           0       26.374835   -0.733298    0.392335
     81          6           0       27.200562    2.445347   -0.844378
     82          6           0       24.293534    0.601168    2.630392
     83          6           0       25.802315   -3.737757    1.450194
     84          6           0       29.345689   -1.887553   -1.319506
     85          7           0       25.925146    1.318834    0.870689
     86          6           0       26.205304    2.431828    0.181075
     87          6           0       25.622023    3.659824    0.831184
     88          6           0       25.035467    3.082403    2.181481
     89          6           0       25.062917    1.594432    1.890306
     90          6           0       25.748984    3.452334    3.522226
     91          6           0       24.427910    4.263966   -0.070223
     92          6           0       24.532311    5.809315   -0.286431
     93          1           0       23.508531    6.321554   -1.437897
     94          7           0       25.063729   -1.463718    1.627922
     95          6           0       24.222409   -0.759628    2.472432
     96          6           0       23.269590   -1.676949    3.034322
     97          6           0       23.640336   -3.041410    2.691659
     98          6           0       24.828686   -2.818541    1.781987
     99          6           0       22.180051   -1.130449    4.001059
    100          6           0       23.101175   -4.432360    3.005472
    101          8           0       23.513389   -5.507741    2.534412
    102          6           0       21.901168   -4.394411    3.884030
    103          7           0       27.556733   -2.463686    0.189715
    104          6           0       27.021886   -3.584683    0.774991
    105          6           0       27.966503   -4.778865    0.634274
    106          6           0       28.912776   -4.287172   -0.492316
    107          6           0       28.654089   -2.779522   -0.520191
    108          6           0       28.587051   -5.145785    2.040488
    109          6           0       28.708485   -4.956949   -1.917179
    110          6           0       29.917667   -4.947502   -2.866068
    111          7           0       27.956618    0.060870   -0.871590
    112          6           0       29.034722   -0.534432   -1.453232
    113          6           0       29.733980    0.385042   -2.322661
    114          6           0       28.973552    1.555696   -2.147324
    115          6           0       27.949198    1.335084   -1.215531
    116          6           0       30.975291    0.215293   -3.228487
    117          6           0       28.868360    2.918087   -2.589813
    118          8           0       29.389824    3.542661   -3.476137
    119          6           0       27.782649    3.595081   -1.602615
    120          6           0       26.993970    4.375357   -2.559814
    121          8           0       26.050332    3.999799   -3.300458
    122          8           0       27.506681    5.616513   -2.500539
    123          6           0       26.947731    6.640077   -3.384816
    124          1           0       23.543385    1.022524    3.303061
    125          1           0       25.568569   -4.763412    1.743870
    126          1           0       30.175218   -2.311576   -1.889190
    127          1           0       26.323019    4.480395    0.986558
    128          1           0       23.983189    3.291757    2.374713
    129          1           0       26.229488    2.550225    3.900890
    130          1           0       24.946483    3.757915    4.193350
    131          1           0       26.526421    4.215386    3.507522
    132          1           0       23.415687    4.028352    0.260516
    133          1           0       24.443845    3.704462   -1.005598
    134          1           0       25.543794    6.086539   -0.582614
    135          1           0       24.245219    6.418361    0.570402
    136          1           0       21.308178   -0.863873    3.405257
    137          1           0       22.404379   -0.139937    4.398769
    138          1           0       22.011664   -1.685544    4.923593
    139          1           0       21.047220   -3.864040    3.464115
    140          1           0       22.301461   -3.940526    4.791413
    141          1           0       21.547982   -5.380693    4.186369
    142          1           0       27.333856   -5.606174    0.312414
    143          1           0       29.942639   -4.519898   -0.221691
    144          1           0       29.635226   -4.849448    2.078631
    145          1           0       28.595391   -6.189811    2.352528
    146          1           0       28.195090   -4.608844    2.904547
    147          1           0       27.994951   -4.284940   -2.394787
    148          1           0       28.323241   -5.976433   -1.945559
    149          1           0       29.745003   -4.325590   -3.745385
    150          1           0       30.289055   -5.892271   -3.263564
    151          1           0       30.700837   -4.417707   -2.325609
    152          1           0       31.542153   -0.610648   -2.798844
    153          1           0       31.571865    1.128187   -3.252528
    154          1           0       30.598760   -0.066785   -4.211668
    155          1           0       28.284498    4.291119   -0.930238
    156          1           0       26.400594    7.359856   -2.776249
    157          1           0       26.391787    6.208350   -4.216385
    158          1           0       27.773843    7.218534   -3.798184
 ---------------------------------------------------------------------

 SCF Done:  E(RwB97XD) =  -4070.56866438     A.U. after   19 cycles

 Excitation energies and oscillator strengths:

 Excited State   1:      Singlet-A      1.6105 eV  769.84 nm  f=0.3585  <S**2>=0.000
     309 -> 316       -0.16149
     312 -> 313        0.68856
     309 <- 316       -0.10999
 This state for optimization and/or second-order correction.
 Total Energy, E(TD-HF/TD-DFT) =  -4070.50947873
 Copying the excited state density for this state as the 1-particle RhoCI density.

 Excited State   2:      Singlet-A      1.6708 eV  742.08 nm  f=0.3778  <S**2>=0.000
     310 -> 315        0.20304
     311 -> 314        0.67878
     310 <- 315        0.12002

 Excited State   3:      Singlet-A      2.1931 eV  565.34 nm  f=0.0611  <S**2>=0.000
     310 -> 314        0.61587
     311 -> 315       -0.33612

 Excited State   4:      Singlet-A      2.2277 eV  556.56 nm  f=0.0763  <S**2>=0.000
     309 -> 313        0.61812
     312 -> 316        0.32522

 Excited State   5:      Singlet-A      3.4187 eV  362.67 nm  f=0.4049  <S**2>=0.000
     304 -> 314       -0.13471
     306 -> 314        0.34055
     310 -> 314        0.25481
     311 -> 315        0.52573

 The electronic state is 1-A.
 Alpha  occ. eigenvalues --  -46.95658 -46.93912 -19.30568 -19.30071 -19.24720
 Alpha  occ. eigenvalues --  -19.24354 -19.24148 -19.24057 -19.23390 -19.22099
 Alpha  occ. eigenvalues --  -14.47172 -14.47071 -14.46301 -14.46200 -14.44369
 Alpha  occ. eigenvalues --  -14.44084 -14.43274 -14.42985 -10.42966 -10.42411
 Alpha  occ. eigenvalues --  -10.39977 -10.39529 -10.38650 -10.37530 -10.36066
 Alpha  occ. eigenvalues --  -10.35868 -10.35751 -10.35748 -10.35187 -10.35014
 Alpha  occ. eigenvalues --  -10.34970 -10.34954 -10.34813 -10.34729 -10.34659
 Alpha  occ. eigenvalues --  -10.34531 -10.34243 -10.34239 -10.34140 -10.33447
 Alpha  occ. eigenvalues --  -10.33212 -10.33068 -10.32956 -10.32810 -10.32780
 Alpha  occ. eigenvalues --  -10.32680 -10.32562 -10.32454 -10.32404 -10.32403
 Alpha  occ. eigenvalues --  -10.31980 -10.31969 -10.31885 -10.31872 -10.31858
 Alpha  occ. eigenvalues --  -10.31783 -10.31764 -10.31745 -10.31688 -10.31675
 Alpha  occ. eigenvalues --  -10.31670 -10.31639 -10.31556 -10.31397 -10.31323
 Alpha  occ. eigenvalues --  -10.31281 -10.31229 -10.31116 -10.30828 -10.30798
 Alpha  occ. eigenvalues --  -10.30752 -10.30708 -10.30509 -10.30344 -10.30343
 Alpha  occ. eigenvalues --  -10.30251 -10.30239 -10.30224 -10.29919 -10.29894
 Alpha  occ. eigenvalues --  -10.29873 -10.29857 -10.29718 -10.29177 -10.28468
 Alpha  occ. eigenvalues --  -10.27949  -3.21599  -3.20155  -1.95156  -1.94743
 Alpha  occ. eigenvalues --   -1.94546  -1.93737  -1.93299  -1.93145  -1.18233
 Alpha  occ. eigenvalues --   -1.18105  -1.12992  -1.12958  -1.11617  -1.09641
 Alpha  occ. eigenvalues --   -1.08859  -1.07707  -1.07188  -1.06833  -1.06301
 Alpha  occ. eigenvalues --   -1.06036  -1.05601  -1.04930  -1.04458  -1.02356
 Alpha  occ. eigenvalues --   -0.94681  -0.93884  -0.91265  -0.91046  -0.90888
 Alpha  occ. eigenvalues --   -0.90504  -0.90111  -0.89885  -0.89364  -0.88919
 Alpha  occ. eigenvalues --   -0.88805  -0.88650  -0.88202  -0.88003  -0.86441
 Alpha  occ. eigenvalues --   -0.86297  -0.85720  -0.85603  -0.84670  -0.84378
 Alpha  occ. eigenvalues --   -0.84263  -0.84155  -0.83220  -0.82919  -0.82232
 Alpha  occ. eigenvalues --   -0.82118  -0.80174  -0.80029  -0.79663  -0.79224
 Alpha  occ. eigenvalues --   -0.78815  -0.78425  -0.77925  -0.77838  -0.77309
 Alpha  occ. eigenvalues --   -0.77195  -0.75006  -0.74762  -0.74103  -0.73691
 Alpha  occ. eigenvalues --   -0.71566  -0.71211  -0.70971  -0.70705  -0.69837
 Alpha  occ. eigenvalues --   -0.69569  -0.69187  -0.68925  -0.68145  -0.67977
 Alpha  occ. eigenvalues --   -0.67452  -0.67379  -0.66868  -0.66687  -0.66426
 Alpha  occ. eigenvalues --   -0.65520  -0.64115  -0.63744  -0.62251  -0.61781
 Alpha  occ. eigenvalues --   -0.61670  -0.61133  -0.61121  -0.61033  -0.60607
 Alpha  occ. eigenvalues --   -0.59976  -0.59939  -0.59530  -0.59194  -0.59096
 Alpha  occ. eigenvalues --   -0.58767  -0.58311  -0.58165  -0.57835  -0.57430
 Alpha  occ. eigenvalues --   -0.57105  -0.56532  -0.56274  -0.56185  -0.55830
 Alpha  occ. eigenvalues --   -0.55634  -0.55445  -0.55367  -0.55164  -0.54750
 Alpha  occ. eigenvalues --   -0.54745  -0.54524  -0.54478  -0.54250  -0.54137
 Alpha  occ. eigenvalues --   -0.53741  -0.53512  -0.53381  -0.53325  -0.53149
 Alpha  occ. eigenvalues --   -0.52992  -0.52967  -0.52667  -0.52584  -0.52299
 Alpha  occ. eigenvalues --   -0.52110  -0.51937  -0.51900  -0.51551  -0.51538
 Alpha  occ. eigenvalues --   -0.51347  -0.51004  -0.50844  -0.50829  -0.50719
 Alpha  occ. eigenvalues --   -0.50388  -0.50266  -0.50075  -0.50072  -0.49918
 Alpha  occ. eigenvalues --   -0.49703  -0.49566  -0.49304  -0.49177  -0.49124
 Alpha  occ. eigenvalues --   -0.48863  -0.48800  -0.48788  -0.48482  -0.48399
 Alpha  occ. eigenvalues --   -0.48246  -0.48152  -0.47829  -0.47666  -0.47637
 Alpha  occ. eigenvalues --   -0.47444  -0.47419  -0.47120  -0.47054  -0.46895
 Alpha  occ. eigenvalues --   -0.46839  -0.46336  -0.45949  -0.45938  -0.45849
 Alpha  occ. eigenvalues --   -0.45676  -0.45490  -0.45406  -0.45403  -0.45315
 Alpha  occ. eigenvalues --   -0.45000  -0.44873  -0.44798  -0.44768  -0.44658
 Alpha  occ. eigenvalues --   -0.44580  -0.44493  -0.44239  -0.44149  -0.44066
 Alpha  occ. eigenvalues --   -0.44012  -0.43914  -0.43862  -0.43685  -0.43245
 Alpha  occ. eigenvalues --   -0.43140  -0.42963  -0.42786  -0.42695  -0.42451
 Alpha  occ. eigenvalues --   -0.42190  -0.41828  -0.41490  -0.41252  -0.41000
 Alpha  occ. eigenvalues --   -0.40714  -0.40452  -0.39757  -0.39450  -0.39361
 Alpha  occ. eigenvalues --   -0.39242  -0.38935  -0.38569  -0.38291  -0.37803
 Alpha  occ. eigenvalues --   -0.37502  -0.37207  -0.36320  -0.36142  -0.35961
 Alpha  occ. eigenvalues --   -0.35819  -0.34946  -0.34927  -0.33751  -0.33708
 Alpha  occ. eigenvalues --   -0.33490  -0.33172  -0.32607  -0.32451  -0.32327
 Alpha  occ. eigenvalues --   -0.31761  -0.31550  -0.31155  -0.26403  -0.26106
 Alpha  occ. eigenvalues --   -0.22920  -0.22584
 Alpha virt. eigenvalues --   -0.06926  -0.06775  -0.00384   0.00125   0.01764
 Alpha virt. eigenvalues --    0.03141   0.04467   0.04573   0.04634   0.06229
 Alpha virt. eigenvalues --    0.07074   0.07384   0.07612   0.07768   0.08255

 Mulliken charges:
               1
     1  Mg   0.954394
     2  C   -0.033140
     3  C   -0.082927
     4  C   -0.079703
     5  C   -0.082989
     6  N   -0.368343
     7  C   -0.053367
     8  C   -0.004999
     9  C   -0.142360
    10  C    0.044473
    11  C    0.037074
    12  C    0.030569
    13  C   -0.102185
    14  H    0.037275
    15  N   -0.471029
    16  C    0.144928
    17  C   -0.159884
    18  C   -0.079543
    19  C    0.169662
    20  C    0.104906
    21  C    0.036114
    22  O   -0.227562
    23  C    0.002053
    24  N   -0.386225
    25  C    0.091525
    26  C   -0.126907
    27  C   -0.015462
    28  C    0.025629
    29  C    0.031684
    30  C   -0.022296
    31  C   -0.061811
    32  N   -0.378272
    33  C    0.092500
    34  C   -0.180490
    35  C   -0.010854
    36  C    0.118852
    37  C    0.073252
    38  C    0.083835
    39  O   -0.250575
    40  C   -0.041253
    41  C    0.265209
    42  O   -0.260795
    43  O   -0.368585
    44  C    0.138611
    45  H    0.004109
    46  H   -0.041757
    47  H   -0.008991
    48  H    0.025760
    49  H    0.040009
    50  H    0.048701
    51  H    0.050478
    52  H    0.040823
    53  H    0.031548
    54  H    0.017664
    55  H    0.047112
    56  H    0.072047
    57  H    0.073538
    58  H    0.022197
    59  H    0.060932
    60  H    0.076672
    61  H    0.048883
    62  H    0.056594
    63  H    0.052206
    64  H    0.031508
    65  H    0.041502
    66  H    0.036527
    67  H    0.042379
    68  H    0.044463
    69  H    0.024545
    70  H    0.051165
    71  H    0.034952
    72  H    0.047431
    73  H    0.051613
    74  H    0.071737
    75  H    0.038756
    76  H    0.074324
    77  H    0.059718
    78  H    0.067156
    79  H    0.072710
    80  Mg   0.994334
    81  C    0.048573
    82  C   -0.082940
    83  C   -0.068803
    84  C   -0.108889
    85  N   -0.341622
    86  C    0.046082
    87  C   -0.121757
    88  C   -0.075721
    89  C    0.029339
    90  C    0.026861
    91  C    0.023887
    92  C   -0.140345
    93  H    0.018708
    94  N   -0.559209
    95  C    0.189820
    96  C   -0.126439
    97  C   -0.130482
    98  C    0.181201
    99  C    0.043777
   100  C    0.089088
   101  O   -0.240698
   102  C   -0.020537
   103  N   -0.364064
   104  C    0.073061
   105  C   -0.083604
   106  C   -0.059783
   107  C    0.063478
   108  C    0.017226
   109  C   -0.011366
   110  C   -0.064759
   111  N   -0.360425
   112  C    0.130708
   113  C   -0.202712
   114  C   -0.017961
   115  C    0.092159
   116  C    0.097839
   117  C    0.101678
   118  O   -0.185118
   119  C   -0.133304
   120  C    0.263544
   121  O   -0.285051
   122  O   -0.350121
   123  C    0.138294
   124  H   -0.014415
   125  H    0.026598
   126  H   -0.019338
   127  H    0.037176
   128  H    0.028917
   129  H    0.042200
   130  H    0.037599
   131  H    0.042994
   132  H    0.031572
   133  H    0.058193
   134  H    0.053243
   135  H    0.056601
   136  H    0.054110
   137  H    0.028135
   138  H    0.054184
   139  H    0.074525
   140  H    0.050144
   141  H    0.047484
   142  H    0.043285
   143  H    0.027331
   144  H    0.021174
   145  H    0.043988
   146  H    0.041028
   147  H    0.036404
   148  H    0.043293
   149  H    0.035196
   150  H    0.044616
   151  H    0.027514
   152  H    0.034207
   153  H    0.066247
   154  H    0.064433
   155  H    0.073462
   156  H    0.048549
   157  H    0.075984
   158  H    0.049422
 Sum of Mulliken charges =  -0.00000

 Dipole moment (field-independent basis, Debye):
    X=             -4.7075    Y=              2.0208    Z=              2.8848  Tot=              5.8794
 Quadrupole moment (field-independent basis, Debye-Ang):
   XX=           -330.3860   YY=           -511.1975   ZZ=           -505.6340
   XY=            -68.3808   XZ=            123.4269   YZ=             14.0870

 Normal termination of Gaussian 16 at Sat Sep 18 15:38:58 2021.
