 Gaussian 16, Revision A.03,
 Gaussian 16:  ES64L-G16RevA.03 25-Dec-2016

 --------------------------------
 #p wB97XD/Def2SVP td=(nstates=5)
 --------------------------------

 --------------------------------
 TDDFT excited states in gaussian
 --------------------------------
 Symbolic Z-matrix:
 Charge =  0 Multiplicity = 1

                         Standard orientation:
 ---------------------------------------------------------------------
 Center     Atomic      Atomic             Coordinates (Angstroms)
 Number     Number       Type             X           Y           Z
 ---------------------------------------------------------------------
      1         12           0       -9.989519    0.376706    0.327791
      2          6           0       -8.705718   -2.279532   -1.506710
      3          6           0       -8.137106   -0.939669    3.093161
      4          6           0      -10.716501    3.081399    2.048668
      5          6           0      -11.100792    1.818935   -2.679328
      6          7           0       -8.499425   -1.331263    0.685248
      7          6           0       -8.233990   -2.323222   -0.231997
      8          6           0       -7.263199   -3.346032    0.364403
      9          6           0       -7.351815   -3.018403    1.880660
     10          6           0       -7.998352   -1.658575    1.914752
     11          6           0       -8.135469   -4.014317    2.822901
     12          6           0       -5.839716   -3.230139   -0.205048
     13          6           0       -4.896898   -4.296647    0.203370
     14          1           0       -3.642904   -4.539313   -0.720593
     15          7           0       -9.490247    1.020471    2.320120
     16          6           0       -8.751716    0.331305    3.294656
     17          6           0       -8.723549    1.136948    4.483457
     18          6           0       -9.361213    2.389587    4.154225
     19          6           0       -9.922854    2.186538    2.774113
     20          6           0       -7.961051    0.717533    5.770541
     21          6           0       -9.449682    3.557834    5.141325
     22          8           0       -9.116431    3.442152    6.309045
     23          6           0       -9.963061    4.862820    4.664939
     24          7           0      -10.996435    2.096446   -0.216702
     25          6           0      -11.203960    3.045198    0.702687
     26          6           0      -11.831019    4.325592    0.016290
     27          6           0      -11.923970    3.989418   -1.521744
     28          6           0      -11.233590    2.518051   -1.501855
     29          6           0      -13.137828    4.898432    0.625189
     30          6           0      -11.093757    5.000703   -2.340920
     31          6           0      -11.601126    5.261114   -3.764457
     32          7           0       -9.957431   -0.069051   -1.723991
     33          6           0      -10.545753    0.527604   -2.803811
     34          6           0      -10.401387   -0.362893   -3.961675
     35          6           0       -9.783305   -1.482159   -3.472189
     36          6           0       -9.467526   -1.258551   -2.151231
     37          6           0      -10.973674   -0.121791   -5.362285
     38          6           0       -9.258410   -2.762302   -3.841449
     39          8           0       -9.273478   -3.373877   -4.881223
     40          6           0       -8.547741   -3.341172   -2.572630
     41          6           0       -9.283305   -4.570847   -2.168535
     42          8           0      -10.467949   -4.693333   -2.023397
     43          8           0       -8.344773   -5.563276   -1.836614
     44          6           0       -8.892335   -6.796026   -1.346264
     45          1           0       -7.620475   -1.468226    3.896436
     46          1           0      -11.046736    4.022366    2.494647
     47          1           0      -11.497203    2.205166   -3.620812
     48          1           0       -7.724723   -4.319664    0.205330
     49          1           0       -6.402015   -2.856620    2.389171
     50          1           0       -7.433106   -4.216570    3.631250
     51          1           0       -8.725725   -4.801933    2.353775
     52          1           0       -8.920419   -3.427966    3.300322
     53          1           0       -5.277909   -2.349145    0.106496
     54          1           0       -5.880041   -3.184364   -1.293396
     55          1           0       -5.479096   -5.215275    0.275949
     56          1           0       -4.555670   -4.094174    1.218440
     57          1           0       -7.114289    1.393720    5.648540
     58          1           0       -7.505302   -0.272701    5.754932
     59          1           0       -8.379700    0.803648    6.773415
     60          1           0       -9.400411    5.060738    3.752613
     61          1           0       -9.689738    5.625939    5.393846
     62          1           0      -11.025236    4.673434    4.508019
     63          1           0      -11.099721    5.120175    0.167088
     64          1           0      -12.935325    3.908643   -1.918893
     65          1           0      -12.886691    5.817680    1.155306
     66          1           0      -13.605897    4.123639    1.231496
     67          1           0      -13.801537    5.228705   -0.173853
     68          1           0      -10.087233    4.583483   -2.357943
     69          1           0      -10.944149    5.959485   -1.844074
     70          1           0      -11.761357    6.339801   -3.770535
     71          1           0      -12.477696    4.678391   -4.047859
     72          1           0      -10.812610    5.058835   -4.489422
     73          1           0      -10.312133   -0.340082   -6.199972
     74          1           0      -11.248788    0.931922   -5.310672
     75          1           0      -11.947356   -0.611824   -5.374979
     76          1           0       -7.525382   -3.569803   -2.873887
     77          1           0       -8.731291   -7.535959   -2.130324
     78          1           0       -9.937863   -6.833551   -1.039440
     79          1           0       -8.332335   -7.063946   -0.450727
     80         12           0        9.781533    0.764266   -0.159025
     81          6           0        8.772603   -2.429809    0.748895
     82          6           0        6.559606    1.708181   -0.478922
     83          6           0       10.879335    3.752471   -1.193597
     84          6           0       13.092995   -0.355974    0.044101
     85          7           0        7.904007   -0.313078    0.156740
     86          6           0        7.710138   -1.532059    0.600306
     87          6           0        6.132815   -1.750174    0.734279
     88          6           0        5.691661   -0.781234   -0.342288
     89          6           0        6.774021    0.336480   -0.206135
     90          6           0        5.617383   -1.496357   -1.708593
     91          6           0        5.669967   -1.582936    2.245259
     92          6           0        4.315958   -2.220451    2.571762
     93          1           0        3.448887   -2.722454    1.430111
     94          7           0        8.867128    2.520441   -0.575271
     95          6           0        7.489348    2.725038   -0.574833
     96          6           0        7.253085    4.193586   -0.711589
     97          6           0        8.540681    4.820166   -0.994462
     98          6           0        9.452480    3.645414   -0.997176
     99          6           0        5.877746    4.812303   -0.628767
    100          6           0        8.947164    6.351889   -1.201507
    101          8           0       10.110286    6.737122   -1.361595
    102          6           0        7.816587    7.359211   -1.174928
    103          7           0       11.647385    1.530595   -0.620751
    104          6           0       11.855956    2.775790   -1.039952
    105          6           0       13.348556    3.050465   -1.400519
    106          6           0       14.008957    1.819700   -0.762847
    107          6           0       12.866791    0.942333   -0.356682
    108          6           0       13.629372    3.217623   -2.920023
    109          6           0       15.144795    2.049438    0.330736
    110          6           0       14.774817    1.839090    1.762206
    111          7           0       10.778467   -1.055525    0.093147
    112          6           0       12.094356   -1.350514    0.216962
    113          6           0       12.337335   -2.724803    0.476242
    114          6           0       11.016681   -3.222814    0.708538
    115          6           0       10.177009   -2.160284    0.463788
    116          6           0       13.578255   -3.577167    0.537971
    117          6           0       10.204943   -4.346217    1.071103
    118          8           0       10.484102   -5.492434    1.349564
    119          6           0        8.730269   -3.872249    1.272489
    120          6           0        7.825455   -4.752498    0.527106
    121          8           0        7.879943   -4.870799   -0.687559
    122          8           0        7.019124   -5.577787    1.352035
    123          6           0        6.178397   -6.563285    0.654335
    124          1           0        5.508431    1.954819   -0.635214
    125          1           0       11.201671    4.723337   -1.573655
    126          1           0       14.135043   -0.681365    0.048769
    127          1           0        5.883609   -2.785071    0.503694
    128          1           0        4.746956   -0.278985   -0.135521
    129          1           0        4.546539   -1.483414   -1.914411
    130          1           0        5.987646   -2.521789   -1.673535
    131          1           0        6.099078   -0.827242   -2.421243
    132          1           0        5.594221   -0.525145    2.498716
    133          1           0        6.413402   -2.129039    2.826397
    134          1           0        3.756751   -1.482404    3.145983
    135          1           0        4.515485   -3.048798    3.251122
    136          1           0        5.238798    4.271245    0.070094
    137          1           0        5.324633    4.920824   -1.561150
    138          1           0        5.975940    5.807981   -0.196492
    139          1           0        7.104084    6.957786   -1.895164
    140          1           0        8.086036    8.354036   -1.528455
    141          1           0        7.437308    7.461871   -0.158080
    142          1           0       13.708046    3.966868   -0.932720
    143          1           0       14.406041    1.242729   -1.597229
    144          1           0       14.545183    2.654309   -3.100746
    145          1           0       13.728870    4.234984   -3.295226
    146          1           0       12.769252    2.823336   -3.461228
    147          1           0       15.594281    3.027354    0.157890
    148          1           0       15.923617    1.300038    0.191386
    149          1           0       15.311364    0.955864    2.109612
    150          1           0       13.751883    1.511722    1.952095
    151          1           0       15.058922    2.654012    2.428096
    152          1           0       14.475322   -3.027128    0.251486
    153          1           0       13.407688   -4.491332   -0.031373
    154          1           0       13.896139   -3.902452    1.528780
    155          1           0        8.439375   -3.889373    2.322483
    156          1           0        5.441683   -7.066248    1.280254
    157          1           0        6.906747   -7.278005    0.270250
    158          1           0        5.749311   -6.027094   -0.191303
 ---------------------------------------------------------------------

 SCF Done:  E(RwB97XD) =  -4070.62303991     A.U. after   19 cycles

 Excitation energies and oscillator strengths:

 Excited State   1:      Singlet-A      1.6905 eV  733.42 nm  f=0.3865  <S**2>=0.000
     310 -> 316        0.18164
     312 -> 314        0.68411
     310 <- 316        0.11471
 This state for optimization and/or second-order correction.
 Total Energy, E(TD-HF/TD-DFT) =  -4070.56091507
 Copying the excited state density for this state as the 1-particle RhoCI density.

 Excited State   2:      Singlet-A      1.7217 eV  720.13 nm  f=0.3910  <S**2>=0.000
     309 -> 315       -0.17627
     311 -> 313        0.68534
     309 <- 315       -0.11118

 Excited State   3:      Singlet-A      2.1644 eV  572.84 nm  f=0.1469  <S**2>=0.000
     310 -> 314        0.65210
     312 -> 316       -0.26025

 Excited State   4:      Singlet-A      2.2424 eV  552.91 nm  f=0.1146  <S**2>=0.000
     309 -> 313        0.63507
     311 -> 315        0.29263

 Excited State   5:      Singlet-A      3.5427 eV  349.97 nm  f=0.0000  <S**2>=0.000
     312 -> 313        0.70681

 The electronic state is 1-A.
 Alpha  occ. eigenvalues --  -46.96148 -46.94129 -19.30288 -19.29158 -19.25587
 Alpha  occ. eigenvalues --  -19.25521 -19.24413 -19.23905 -19.23658 -19.22925
 Alpha  occ. eigenvalues --  -14.47373 -14.47116 -14.46624 -14.46041 -14.45008
 Alpha  occ. eigenvalues --  -14.44761 -14.43794 -14.43207 -10.43453 -10.42731
 Alpha  occ. eigenvalues --  -10.41306 -10.39006 -10.38247 -10.38090 -10.36590
 Alpha  occ. eigenvalues --  -10.35858 -10.35478 -10.35425 -10.35336 -10.35265
 Alpha  occ. eigenvalues --  -10.35200 -10.35149 -10.35054 -10.34802 -10.34692
 Alpha  occ. eigenvalues --  -10.34658 -10.34588 -10.34466 -10.33936 -10.33807
 Alpha  occ. eigenvalues --  -10.33305 -10.33247 -10.32762 -10.32720 -10.32663
 Alpha  occ. eigenvalues --  -10.32476 -10.32414 -10.32412 -10.32390 -10.32377
 Alpha  occ. eigenvalues --  -10.32283 -10.32157 -10.32090 -10.32057 -10.32047
 Alpha  occ. eigenvalues --  -10.32044 -10.32039 -10.31901 -10.31755 -10.31659
 Alpha  occ. eigenvalues --  -10.31606 -10.31606 -10.31575 -10.31354 -10.31281
 Alpha  occ. eigenvalues --  -10.31098 -10.31033 -10.31014 -10.30841 -10.30789
 Alpha  occ. eigenvalues --  -10.30645 -10.30526 -10.30495 -10.30290 -10.30243
 Alpha  occ. eigenvalues --  -10.30130 -10.30000 -10.29864 -10.29649 -10.29605
 Alpha  occ. eigenvalues --  -10.29595 -10.29569 -10.29532 -10.28306 -10.28183
 Alpha  occ. eigenvalues --  -10.28068  -3.22026  -3.20295  -1.95618  -1.95150
 Alpha  occ. eigenvalues --   -1.94979  -1.93904  -1.93391  -1.93319  -1.18877
 Alpha  occ. eigenvalues --   -1.16644  -1.12780  -1.12658  -1.12525  -1.11787
 Alpha  occ. eigenvalues --   -1.11136  -1.08949  -1.07596  -1.06753  -1.06739
 Alpha  occ. eigenvalues --   -1.06187  -1.05980  -1.05877  -1.05246  -1.05009
 Alpha  occ. eigenvalues --   -0.95357  -0.94102  -0.91437  -0.91325  -0.91105
 Alpha  occ. eigenvalues --   -0.90849  -0.90463  -0.90228  -0.90158  -0.89285
 Alpha  occ. eigenvalues --   -0.89053  -0.88564  -0.88182  -0.88041  -0.87293
 Alpha  occ. eigenvalues --   -0.86233  -0.86054  -0.85527  -0.85235  -0.84716
 Alpha  occ. eigenvalues --   -0.84664  -0.84532  -0.83374  -0.82962  -0.82901
 Alpha  occ. eigenvalues --   -0.82052  -0.80602  -0.79856  -0.79398  -0.79210
 Alpha  occ. eigenvalues --   -0.79157  -0.78588  -0.78260  -0.77777  -0.77631
 Alpha  occ. eigenvalues --   -0.77010  -0.75348  -0.74817  -0.74174  -0.73168
 Alpha  occ. eigenvalues --   -0.71453  -0.71138  -0.71123  -0.70748  -0.69911
 Alpha  occ. eigenvalues --   -0.69899  -0.68910  -0.68683  -0.68131  -0.67697
 Alpha  occ. eigenvalues --   -0.67109  -0.67038  -0.66756  -0.66593  -0.66196
 Alpha  occ. eigenvalues --   -0.65979  -0.64792  -0.63261  -0.62704  -0.62450
 Alpha  occ. eigenvalues --   -0.62013  -0.61561  -0.61436  -0.61134  -0.60918
 Alpha  occ. eigenvalues --   -0.60590  -0.60023  -0.59965  -0.59705  -0.59585
 Alpha  occ. eigenvalues --   -0.58639  -0.57965  -0.57851  -0.57668  -0.57587
 Alpha  occ. eigenvalues --   -0.57368  -0.56958  -0.56692  -0.56461  -0.56078
 Alpha  occ. eigenvalues --   -0.55910  -0.55665  -0.55586  -0.55421  -0.55347
 Alpha  occ. eigenvalues --   -0.55248  -0.54962  -0.54713  -0.54598  -0.54252
 Alpha  occ. eigenvalues --   -0.54098  -0.53982  -0.53801  -0.53750  -0.53748
 Alpha  occ. eigenvalues --   -0.53145  -0.52953  -0.52785  -0.52732  -0.52711
 Alpha  occ. eigenvalues --   -0.52439  -0.52340  -0.52238  -0.51927  -0.51830
 Alpha  occ. eigenvalues --   -0.51425  -0.51377  -0.51120  -0.51097  -0.50998
 Alpha  occ. eigenvalues --   -0.50969  -0.50803  -0.50496  -0.50419  -0.50385
 Alpha  occ. eigenvalues --   -0.50203  -0.49762  -0.49620  -0.49472  -0.49327
 Alpha  occ. eigenvalues --   -0.49220  -0.49121  -0.48805  -0.48557  -0.48464
 Alpha  occ. eigenvalues --   -0.48363  -0.48225  -0.48186  -0.47950  -0.47923
 Alpha  occ. eigenvalues --   -0.47712  -0.47459  -0.47442  -0.47157  -0.46865
 Alpha  occ. eigenvalues --   -0.46785  -0.46592  -0.46273  -0.46216  -0.46008
 Alpha  occ. eigenvalues --   -0.45944  -0.45900  -0.45788  -0.45452  -0.45423
 Alpha  occ. eigenvalues --   -0.45300  -0.45279  -0.45176  -0.45021  -0.44942
 Alpha  occ. eigenvalues --   -0.44767  -0.44462  -0.44444  -0.44376  -0.44234
 Alpha  occ. eigenvalues --   -0.44039  -0.43962  -0.43761  -0.43552  -0.43315
 Alpha  occ. eigenvalues --   -0.42971  -0.42872  -0.42629  -0.42432  -0.42298
 Alpha  occ. eigenvalues --   -0.42115  -0.41959  -0.41889  -0.41739  -0.41116
 Alpha  occ. eigenvalues --   -0.40873  -0.40264  -0.40218  -0.39991  -0.39804
 Alpha  occ. eigenvalues --   -0.39463  -0.39054  -0.38660  -0.38646  -0.38167
 Alpha  occ. eigenvalues --   -0.38138  -0.37633  -0.37319  -0.36453  -0.36415
 Alpha  occ. eigenvalues --   -0.36063  -0.35901  -0.35449  -0.34215  -0.34132
 Alpha  occ. eigenvalues --   -0.33401  -0.33203  -0.32740  -0.32730  -0.32403
 Alpha  occ. eigenvalues --   -0.32266  -0.32169  -0.31705  -0.26752  -0.25834
 Alpha  occ. eigenvalues --   -0.23626  -0.23226
 Alpha virt. eigenvalues --   -0.07516  -0.07185  -0.00168   0.00651   0.01990
 Alpha virt. eigenvalues --    0.02847   0.04564   0.04686   0.05076   0.06592
 Alpha virt. eigenvalues --    0.06789   0.06965   0.07460   0.08026   0.08376

 Mulliken charges:
               1
     1  Mg   0.953621
     2  C   -0.018604
     3  C   -0.078231
     4  C   -0.102451
     5  C   -0.070843
     6  N   -0.331772
     7  C   -0.062294
     8  C    0.031689
     9  C   -0.153767
    10  C    0.038503
    11  C    0.036070
    12  C    0.038310
    13  C   -0.109378
    14  H    0.040880
    15  N   -0.434360
    16  C    0.181719
    17  C   -0.135756
    18  C   -0.121186
    19  C    0.236198
    20  C    0.063198
    21  C    0.024804
    22  O   -0.229570
    23  C    0.002017
    24  N   -0.396472
    25  C    0.068658
    26  C   -0.119402
    27  C   -0.096884
    28  C    0.094229
    29  C    0.022088
    30  C   -0.030721
    31  C   -0.043133
    32  N   -0.425006
    33  C    0.086011
    34  C   -0.233636
    35  C    0.018558
    36  C    0.142520
    37  C    0.107349
    38  C    0.094460
    39  O   -0.186215
    40  C   -0.073896
    41  C    0.260093
    42  O   -0.212927
    43  O   -0.378475
    44  C    0.124605
    45  H   -0.006432
    46  H   -0.019595
    47  H   -0.005875
    48  H    0.021064
    49  H    0.031024
    50  H    0.043461
    51  H    0.049560
    52  H    0.029277
    53  H    0.029083
    54  H    0.035468
    55  H    0.036940
    56  H    0.039640
    57  H    0.058049
    58  H    0.019593
    59  H    0.074705
    60  H    0.052109
    61  H    0.057994
    62  H    0.079266
    63  H    0.040171
    64  H    0.042427
    65  H    0.035886
    66  H    0.050202
    67  H    0.035544
    68  H    0.032756
    69  H    0.029917
    70  H    0.038342
    71  H    0.042552
    72  H    0.038838
    73  H    0.070702
    74  H    0.005433
    75  H    0.058471
    76  H    0.072815
    77  H    0.057404
    78  H    0.062397
    79  H    0.040213
    80  Mg   0.985792
    81  C   -0.033824
    82  C   -0.089439
    83  C   -0.081448
    84  C   -0.113166
    85  N   -0.312388
    86  C   -0.022144
    87  C   -0.084768
    88  C   -0.106175
    89  C    0.035576
    90  C    0.056906
    91  C    0.017327
    92  C   -0.109371
    93  H    0.037445
    94  N   -0.477230
    95  C    0.190181
    96  C   -0.158468
    97  C   -0.108894
    98  C    0.127324
    99  C    0.049076
   100  C    0.101769
   101  O   -0.227635
   102  C   -0.029630
   103  N   -0.378869
   104  C    0.081070
   105  C   -0.097555
   106  C   -0.032628
   107  C    0.053163
   108  C    0.021154
   109  C   -0.006313
   110  C   -0.048402
   111  N   -0.374735
   112  C    0.116028
   113  C   -0.174693
   114  C   -0.023322
   115  C    0.102163
   116  C    0.084904
   117  C    0.096595
   118  O   -0.204577
   119  C   -0.019910
   120  C    0.245643
   121  O   -0.251598
   122  O   -0.402827
   123  C    0.147291
   124  H    0.004648
   125  H    0.017891
   126  H   -0.007170
   127  H    0.021275
   128  H    0.004125
   129  H    0.035654
   130  H    0.070987
   131  H    0.037148
   132  H    0.035383
   133  H    0.041344
   134  H    0.045230
   135  H    0.052957
   136  H    0.040659
   137  H    0.065887
   138  H    0.030958
   139  H    0.059283
   140  H    0.056216
   141  H    0.081314
   142  H    0.037163
   143  H    0.030759
   144  H    0.038473
   145  H    0.045388
   146  H    0.041292
   147  H    0.033888
   148  H    0.028064
   149  H    0.018051
   150  H    0.047738
   151  H    0.040834
   152  H    0.015410
   153  H    0.066081
   154  H    0.046078
   155  H    0.068186
   156  H    0.063703
   157  H    0.057432
   158  H    0.048275
 Sum of Mulliken charges =  -0.00000

 Dipole moment (field-independent basis, Debye):
    X=             -3.7534    Y=              6.9540    Z=              2.4000  Tot=              8.2587
 Quadrupole moment (field-independent basis, Debye-Ang):
   XX=           -523.7710   YY=           -507.5629   ZZ=           -547.4095
   XY=              2.9503   XZ=            -10.7664   YZ=            -35.3040

 Normal termination of Gaussian 16 at Mon Sep 20 18:17:29 2021.
