 Gaussian 16, Revision A.03,
 Gaussian 16:  ES64L-G16RevA.03 25-Dec-2016

 --------------------------------
 #p wB97XD/Def2SVP td=(nstates=5)
 --------------------------------

 --------------------------------
 TDDFT excited states in gaussian
 --------------------------------
 Symbolic Z-matrix:
 Charge =  0 Multiplicity = 1

                         Standard orientation:
 ---------------------------------------------------------------------
 Center     Atomic      Atomic             Coordinates (Angstroms)
 Number     Number       Type             X           Y           Z
 ---------------------------------------------------------------------
      1         12           0       25.528492   -0.094680   -0.182909
      2          6           0       22.168219   -0.478356    0.548452
      3          6           0       24.688571    1.942324   -2.849163
      4          6           0       28.768327    0.835383   -0.365363
      5          6           0       26.167749   -1.909460    2.772691
      6          7           0       23.632836    0.877087   -0.876047
      7          6           0       22.436469    0.395147   -0.527822
      8          6           0       21.309459    1.167285   -1.281040
      9          6           0       22.117020    1.725553   -2.546200
     10          6           0       23.608440    1.443212   -2.120055
     11          6           0       21.637075    1.115220   -3.885100
     12          6           0       20.800181    2.313398   -0.436959
     13          6           0       19.295752    2.533079   -0.469270
     14          1           0       18.642113    3.966067   -0.448559
     15          7           0       26.588116    1.108096   -1.593328
     16          6           0       26.095888    1.911513   -2.551969
     17          6           0       27.204506    2.509346   -3.222583
     18          6           0       28.427422    2.066066   -2.633633
     19          6           0       27.985618    1.261763   -1.487617
     20          6           0       27.029045    3.289386   -4.472811
     21          6           0       29.772812    2.561666   -3.029516
     22          8           0       29.892500    3.319981   -3.977437
     23          6           0       31.037461    2.091839   -2.320638
     24          7           0       27.301197   -0.584876    1.051483
     25          6           0       28.485228    0.018454    0.750948
     26          6           0       29.476215   -0.187825    1.850038
     27          6           0       28.611728   -1.075528    2.864931
     28          6           0       27.272283   -1.294514    2.206362
     29          6           0       30.817648   -0.799277    1.404185
     30          6           0       28.480847   -0.510614    4.348400
     31          6           0       28.819197   -1.406240    5.563304
     32          7           0       24.453935   -1.021297    1.322894
     33          6           0       24.841068   -1.764530    2.393401
     34          6           0       23.757884   -2.491598    2.888999
     35          6           0       22.638708   -2.058645    2.191562
     36          6           0       23.100015   -1.116393    1.306839
     37          6           0       23.831365   -3.473638    4.094811
     38          6           0       21.268066   -2.194373    2.023107
     39          8           0       20.483476   -2.843190    2.706195
     40          6           0       20.790468   -1.118232    0.933190
     41          6           0       20.264874   -1.737775   -0.229491
     42          8           0       20.829606   -2.302100   -1.169550
     43          8           0       18.883857   -1.585428   -0.153060
     44          6           0       18.018418   -2.111888   -1.194553
     45          1           0       24.432811    2.454386   -3.778879
     46          1           0       29.838618    1.043453   -0.297820
     47          1           0       26.486457   -2.525377    3.616338
     48          1           0       20.507874    0.461025   -1.495492
     49          1           0       22.122087    2.812169   -2.625498
     50          1           0       20.900329    0.327335   -3.729677
     51          1           0       22.493473    0.719332   -4.431885
     52          1           0       21.235818    1.928434   -4.489456
     53          1           0       21.255213    3.292678   -0.586857
     54          1           0       21.174787    2.097576    0.563621
     55          1           0       18.878762    1.919174    0.328885
     56          1           0       19.034512    2.045272   -1.408350
     57          1           0       27.258266    2.555450   -5.245176
     58          1           0       27.698605    4.149071   -4.505936
     59          1           0       26.016502    3.671837   -4.602061
     60          1           0       31.093758    2.677284   -1.402805
     61          1           0       31.865470    2.456276   -2.928167
     62          1           0       31.010262    1.015140   -2.153562
     63          1           0       29.594702    0.840492    2.190010
     64          1           0       29.091966   -2.032544    3.068957
     65          1           0       31.541501    0.015586    1.439245
     66          1           0       30.769153   -1.255556    0.414929
     67          1           0       31.137638   -1.539249    2.137367
     68          1           0       27.449536   -0.192868    4.501141
     69          1           0       29.130771    0.344638    4.534756
     70          1           0       27.836973   -1.843947    5.741013
     71          1           0       29.090024   -0.793411    6.422092
     72          1           0       29.430291   -2.299278    5.433023
     73          1           0       23.923282   -2.888939    5.009222
     74          1           0       24.699999   -4.131650    4.125973
     75          1           0       22.925647   -4.077092    4.161046
     76          1           0       20.089767   -0.464402    1.452675
     77          1           0       17.078081   -2.385528   -0.717017
     78          1           0       18.454227   -2.903071   -1.805214
     79          1           0       17.747199   -1.280074   -1.844804
     80         12           0      -25.372010    0.409151    0.303733
     81          6           0      -22.324096   -1.299405   -0.158082
     82          6           0      -26.910237   -2.271838   -1.242481
     83          6           0      -28.381610    1.997900    0.573495
     84          6           0      -23.715176    3.083341    1.475435
     85          7           0      -24.685481   -1.601430   -0.576664
     86          6           0      -23.414151   -2.161352   -0.539163
     87          6           0      -23.468881   -3.624993   -0.928425
     88          6           0      -24.879750   -3.773824   -1.605512
     89          6           0      -25.518172   -2.498958   -1.101657
     90          6           0      -24.871302   -3.963507   -3.173059
     91          6           0      -23.365843   -4.575511    0.273679
     92          6           0      -22.580435   -5.867692    0.025139
     93          1           0      -23.195385   -6.939078   -0.917751
     94          7           0      -27.370801   -0.093539   -0.167198
     95          6           0      -27.721075   -1.221645   -0.826879
     96          6           0      -29.119300   -1.169103   -1.106350
     97          6           0      -29.672404   -0.001478   -0.475664
     98          6           0      -28.474477    0.699325   -0.047970
     99          6           0      -29.819461   -2.244145   -1.890344
    100          6           0      -31.103262    0.529681   -0.387715
    101          8           0      -31.404141    1.488939    0.356493
    102          6           0      -32.235580   -0.014841   -1.251091
    103          7           0      -25.961463    2.216328    1.010608
    104          6           0      -27.257044    2.722839    0.971648
    105          6           0      -27.242530    4.133994    1.462822
    106          6           0      -25.772919    4.538843    1.843089
    107          6           0      -25.080026    3.215854    1.478687
    108          6           0      -28.000780    5.147768    0.554071
    109          6           0      -25.549538    4.926457    3.320928
    110          6           0      -25.589477    6.446474    3.570743
    111          7           0      -23.468737    0.874704    0.571619
    112          6           0      -22.870006    2.001847    1.132679
    113          6           0      -21.372473    1.860467    1.263796
    114          6           0      -21.177568    0.579267    0.722802
    115          6           0      -22.443805    0.007821    0.375622
    116          6           0      -20.407149    2.882475    1.836020
    117          6           0      -20.120404   -0.375795    0.426777
    118          8           0      -18.898198   -0.293938    0.555462
    119          6           0      -20.877916   -1.687250   -0.049320
    120          6           0      -20.211639   -2.077324   -1.383375
    121          8           0      -19.859583   -1.318722   -2.263011
    122          8           0      -19.920180   -3.439701   -1.351543
    123          6           0      -19.275471   -3.914546   -2.576010
    124          1           0      -27.372624   -3.167807   -1.661422
    125          1           0      -29.286144    2.592658    0.715213
    126          1           0      -23.247674    4.031708    1.747100
    127          1           0      -22.719277   -3.929023   -1.658601
    128          1           0      -25.457006   -4.635357   -1.269789
    129          1           0      -23.887084   -4.082224   -3.627098
    130          1           0      -25.299575   -3.154665   -3.764571
    131          1           0      -25.389314   -4.880898   -3.452677
    132          1           0      -24.352047   -4.860437    0.639452
    133          1           0      -22.830432   -4.100331    1.095896
    134          1           0      -22.294462   -6.355465    0.956914
    135          1           0      -21.596422   -5.657376   -0.393376
    136          1           0      -29.167328   -2.344542   -2.758081
    137          1           0      -30.812685   -2.022593   -2.280615
    138          1           0      -29.873670   -3.211997   -1.392445
    139          1           0      -31.940933   -0.051649   -2.299996
    140          1           0      -33.030708    0.705152   -1.058035
    141          1           0      -32.498548   -1.031459   -0.958821
    142          1           0      -27.921991    4.171814    2.314836
    143          1           0      -25.325904    5.308075    1.212038
    144          1           0      -28.348348    4.606826   -0.326356
    145          1           0      -27.302808    5.919941    0.231631
    146          1           0      -28.828783    5.489011    1.176313
    147          1           0      -24.643476    4.420720    3.653934
    148          1           0      -26.379769    4.586813    3.940555
    149          1           0      -26.167053    6.934159    2.785215
    150          1           0      -24.636735    6.974339    3.525054
    151          1           0      -26.114762    6.617462    4.510860
    152          1           0      -20.558042    2.897288    2.915567
    153          1           0      -20.547920    3.907430    1.493441
    154          1           0      -19.411202    2.515896    1.587909
    155          1           0      -20.825989   -2.536185    0.632118
    156          1           0      -19.961516   -4.257106   -3.351256
    157          1           0      -18.622787   -4.715602   -2.229284
    158          1           0      -18.652170   -3.228426   -3.149428
 ---------------------------------------------------------------------

 SCF Done:  E(RwB97XD) =  -4070.61627581     A.U. after   20 cycles

 Excitation energies and oscillator strengths:

 Excited State   1:      Singlet-A      1.6375 eV  757.15 nm  f=0.4166  <S**2>=0.000
     309 -> 315        0.19088
     311 -> 313        0.68211
     309 <- 315        0.11960
 This state for optimization and/or second-order correction.
 Total Energy, E(TD-HF/TD-DFT) =  -4070.55609827
 Copying the excited state density for this state as the 1-particle RhoCI density.

 Excited State   2:      Singlet-A      1.6477 eV  752.48 nm  f=0.3593  <S**2>=0.000
     310 -> 316        0.19168
     312 -> 314        0.68099
     310 <- 316        0.11851

 Excited State   3:      Singlet-A      2.1722 eV  570.76 nm  f=0.0976  <S**2>=0.000
     309 -> 313        0.63454
     311 -> 315       -0.29670

 Excited State   4:      Singlet-A      2.1798 eV  568.78 nm  f=0.0970  <S**2>=0.000
     310 -> 314        0.63414
     312 -> 316       -0.30024

 Excited State   5:      Singlet-A      3.2600 eV  380.32 nm  f=0.0048  <S**2>=0.000
     308 -> 313        0.67169
     311 -> 315        0.12903

 The electronic state is 1-A.
 Alpha  occ. eigenvalues --  -46.96022 -46.93981 -19.30974 -19.29869 -19.25328
 Alpha  occ. eigenvalues --  -19.25122 -19.24312 -19.24262 -19.24126 -19.23360
 Alpha  occ. eigenvalues --  -14.47282 -14.46915 -14.46603 -14.45867 -14.44485
 Alpha  occ. eigenvalues --  -14.44413 -14.44096 -14.43808 -10.43529 -10.43441
 Alpha  occ. eigenvalues --  -10.39854 -10.39244 -10.39088 -10.38568 -10.35557
 Alpha  occ. eigenvalues --  -10.35446 -10.35431 -10.35380 -10.35297 -10.35215
 Alpha  occ. eigenvalues --  -10.35143 -10.34896 -10.34881 -10.34826 -10.34787
 Alpha  occ. eigenvalues --  -10.34308 -10.34275 -10.33796 -10.33649 -10.33425
 Alpha  occ. eigenvalues --  -10.33186 -10.33073 -10.32914 -10.32880 -10.32830
 Alpha  occ. eigenvalues --  -10.32789 -10.32749 -10.32691 -10.32580 -10.32481
 Alpha  occ. eigenvalues --  -10.32467 -10.32429 -10.32384 -10.32340 -10.32232
 Alpha  occ. eigenvalues --  -10.32217 -10.31907 -10.31901 -10.31890 -10.31881
 Alpha  occ. eigenvalues --  -10.31681 -10.31424 -10.31296 -10.31219 -10.31157
 Alpha  occ. eigenvalues --  -10.31066 -10.31015 -10.30731 -10.30723 -10.30697
 Alpha  occ. eigenvalues --  -10.30472 -10.30433 -10.30311 -10.30251 -10.30240
 Alpha  occ. eigenvalues --  -10.30027 -10.29974 -10.29968 -10.29901 -10.29718
 Alpha  occ. eigenvalues --  -10.29712 -10.29688 -10.29520 -10.29365 -10.28859
 Alpha  occ. eigenvalues --  -10.28818  -3.21811  -3.20175  -1.95409  -1.94923
 Alpha  occ. eigenvalues --   -1.94770  -1.93770  -1.93280  -1.93193  -1.18452
 Alpha  occ. eigenvalues --   -1.17896  -1.12274  -1.12187  -1.11439  -1.11159
 Alpha  occ. eigenvalues --   -1.10369  -1.09701  -1.07555  -1.06718  -1.06079
 Alpha  occ. eigenvalues --   -1.05864  -1.05738  -1.05069  -1.04659  -1.03440
 Alpha  occ. eigenvalues --   -0.95894  -0.94533  -0.91400  -0.91288  -0.90995
 Alpha  occ. eigenvalues --   -0.90910  -0.90257  -0.90205  -0.89825  -0.89393
 Alpha  occ. eigenvalues --   -0.88983  -0.88841  -0.88165  -0.88078  -0.87362
 Alpha  occ. eigenvalues --   -0.86524  -0.86318  -0.85429  -0.84941  -0.84209
 Alpha  occ. eigenvalues --   -0.84154  -0.83663  -0.83446  -0.82910  -0.82739
 Alpha  occ. eigenvalues --   -0.82038  -0.80427  -0.80126  -0.79546  -0.79378
 Alpha  occ. eigenvalues --   -0.79190  -0.78495  -0.78415  -0.78081  -0.77118
 Alpha  occ. eigenvalues --   -0.76996  -0.75494  -0.74667  -0.74377  -0.73627
 Alpha  occ. eigenvalues --   -0.71829  -0.71344  -0.71194  -0.70730  -0.70154
 Alpha  occ. eigenvalues --   -0.70086  -0.69346  -0.69321  -0.68088  -0.67837
 Alpha  occ. eigenvalues --   -0.67715  -0.67483  -0.67438  -0.66857  -0.66481
 Alpha  occ. eigenvalues --   -0.66155  -0.64699  -0.64547  -0.62477  -0.62357
 Alpha  occ. eigenvalues --   -0.62145  -0.61916  -0.61090  -0.61054  -0.60933
 Alpha  occ. eigenvalues --   -0.60470  -0.60161  -0.59998  -0.59696  -0.59490
 Alpha  occ. eigenvalues --   -0.58329  -0.58096  -0.58030  -0.57455  -0.57454
 Alpha  occ. eigenvalues --   -0.57077  -0.56781  -0.56530  -0.56307  -0.55748
 Alpha  occ. eigenvalues --   -0.55504  -0.55421  -0.55324  -0.55081  -0.54816
 Alpha  occ. eigenvalues --   -0.54582  -0.54505  -0.54249  -0.54112  -0.54042
 Alpha  occ. eigenvalues --   -0.53997  -0.53800  -0.53772  -0.53691  -0.53436
 Alpha  occ. eigenvalues --   -0.53207  -0.53159  -0.52387  -0.52291  -0.52190
 Alpha  occ. eigenvalues --   -0.52074  -0.51992  -0.51919  -0.51719  -0.51513
 Alpha  occ. eigenvalues --   -0.51413  -0.51262  -0.51006  -0.50968  -0.50916
 Alpha  occ. eigenvalues --   -0.50842  -0.50396  -0.50323  -0.50193  -0.50185
 Alpha  occ. eigenvalues --   -0.50000  -0.49576  -0.49430  -0.49320  -0.48828
 Alpha  occ. eigenvalues --   -0.48769  -0.48699  -0.48640  -0.48587  -0.48525
 Alpha  occ. eigenvalues --   -0.48448  -0.48208  -0.48071  -0.47886  -0.47827
 Alpha  occ. eigenvalues --   -0.47750  -0.47446  -0.47412  -0.47251  -0.47081
 Alpha  occ. eigenvalues --   -0.46831  -0.46653  -0.46581  -0.46479  -0.46455
 Alpha  occ. eigenvalues --   -0.46289  -0.46255  -0.45828  -0.45548  -0.45513
 Alpha  occ. eigenvalues --   -0.45368  -0.45366  -0.45134  -0.45074  -0.44954
 Alpha  occ. eigenvalues --   -0.44821  -0.44629  -0.44295  -0.44134  -0.43999
 Alpha  occ. eigenvalues --   -0.43852  -0.43847  -0.43792  -0.43727  -0.43518
 Alpha  occ. eigenvalues --   -0.43322  -0.43107  -0.42969  -0.42910  -0.42394
 Alpha  occ. eigenvalues --   -0.42195  -0.42156  -0.41619  -0.41595  -0.40596
 Alpha  occ. eigenvalues --   -0.40286  -0.40235  -0.40137  -0.39899  -0.39855
 Alpha  occ. eigenvalues --   -0.39398  -0.39289  -0.39232  -0.38844  -0.38713
 Alpha  occ. eigenvalues --   -0.38269  -0.37576  -0.37146  -0.36950  -0.36821
 Alpha  occ. eigenvalues --   -0.36489  -0.35755  -0.35091  -0.34027  -0.33501
 Alpha  occ. eigenvalues --   -0.33261  -0.33151  -0.32934  -0.32677  -0.32668
 Alpha  occ. eigenvalues --   -0.32616  -0.32201  -0.31638  -0.26474  -0.25868
 Alpha  occ. eigenvalues --   -0.23341  -0.22883
 Alpha virt. eigenvalues --   -0.07542  -0.06912  -0.00368   0.00142   0.01903
 Alpha virt. eigenvalues --    0.02048   0.03854   0.04454   0.05685   0.06235
 Alpha virt. eigenvalues --    0.06785   0.07118   0.07197   0.07426   0.08139

 Mulliken charges:
               1
     1  Mg   0.939063
     2  C   -0.063748
     3  C   -0.088052
     4  C   -0.039719
     5  C   -0.124274
     6  N   -0.332197
     7  C    0.013312
     8  C   -0.124721
     9  C   -0.102979
    10  C    0.083714
    11  C    0.035818
    12  C    0.029645
    13  C   -0.116597
    14  H    0.044771
    15  N   -0.455917
    16  C    0.158369
    17  C   -0.182184
    18  C   -0.057310
    19  C    0.198320
    20  C    0.076233
    21  C    0.004791
    22  O   -0.236043
    23  C    0.002804
    24  N   -0.354068
    25  C   -0.009485
    26  C   -0.086530
    27  C   -0.051354
    28  C    0.062335
    29  C    0.022929
    30  C   -0.053235
    31  C   -0.067795
    32  N   -0.434068
    33  C    0.194524
    34  C   -0.187424
    35  C    0.053632
    36  C    0.162218
    37  C    0.075221
    38  C    0.056268
    39  O   -0.206978
    40  C   -0.077391
    41  C    0.295368
    42  O   -0.257332
    43  O   -0.388862
    44  C    0.139760
    45  H   -0.000128
    46  H   -0.030102
    47  H   -0.003610
    48  H    0.037101
    49  H    0.045719
    50  H    0.048956
    51  H    0.033996
    52  H    0.036052
    53  H    0.037194
    54  H    0.027158
    55  H    0.055806
    56  H    0.044486
    57  H    0.060681
    58  H    0.065550
    59  H    0.024432
    60  H    0.059364
    61  H    0.051985
    62  H    0.063659
    63  H    0.053034
    64  H    0.024091
    65  H    0.042368
    66  H    0.053151
    67  H    0.040424
    68  H    0.043634
    69  H    0.030907
    70  H    0.022323
    71  H    0.047989
    72  H    0.040140
    73  H    0.047482
    74  H    0.037827
    75  H    0.062250
    76  H    0.083048
    77  H    0.056905
    78  H    0.068848
    79  H    0.036448
    80  Mg   1.001472
    81  C   -0.064899
    82  C   -0.110664
    83  C   -0.083507
    84  C   -0.100713
    85  N   -0.307714
    86  C    0.022485
    87  C   -0.031723
    88  C   -0.097750
    89  C    0.019034
    90  C    0.007943
    91  C    0.023160
    92  C   -0.123398
    93  H    0.017001
    94  N   -0.427960
    95  C    0.223844
    96  C   -0.180343
    97  C   -0.042906
    98  C    0.127652
    99  C    0.061648
   100  C    0.049330
   101  O   -0.257600
   102  C   -0.023965
   103  N   -0.456538
   104  C    0.108858
   105  C   -0.100360
   106  C   -0.055406
   107  C    0.059316
   108  C    0.015925
   109  C    0.000267
   110  C   -0.055618
   111  N   -0.483423
   112  C    0.140372
   113  C   -0.167152
   114  C   -0.071798
   115  C    0.182667
   116  C    0.080914
   117  C    0.161307
   118  O   -0.208550
   119  C   -0.105865
   120  C    0.266348
   121  O   -0.223775
   122  O   -0.369670
   123  C    0.126339
   124  H   -0.009070
   125  H    0.016401
   126  H   -0.010458
   127  H    0.030626
   128  H    0.039924
   129  H    0.034307
   130  H    0.041862
   131  H    0.034277
   132  H    0.040678
   133  H    0.036926
   134  H    0.048545
   135  H    0.050351
   136  H    0.046202
   137  H    0.026906
   138  H    0.058729
   139  H    0.061452
   140  H    0.063754
   141  H    0.063679
   142  H    0.042760
   143  H    0.042932
   144  H    0.043675
   145  H    0.034114
   146  H    0.043575
   147  H    0.037033
   148  H    0.028017
   149  H    0.024568
   150  H    0.041177
   151  H    0.040904
   152  H    0.050546
   153  H    0.047758
   154  H    0.066169
   155  H    0.072912
   156  H    0.043208
   157  H    0.055708
   158  H    0.065269
 Sum of Mulliken charges =  -0.00000

 Dipole moment (field-independent basis, Debye):
    X=             -1.5909    Y=             -2.2680    Z=              0.7010  Tot=              2.8577
 Quadrupole moment (field-independent basis, Debye-Ang):
   XX=           -276.7724   YY=           -489.0959   ZZ=           -504.6405
   XY=             46.8080   XZ=            111.1232   YZ=             24.9587

 Normal termination of Gaussian 16 at Sun Sep 19 04:13:39 2021.
