 Gaussian 16, Revision A.03,
 Gaussian 16:  ES64L-G16RevA.03 25-Dec-2016

 --------------------------------
 #p wB97XD/Def2SVP td=(nstates=5)
 --------------------------------

 --------------------------------
 TDDFT excited states in gaussian
 --------------------------------
 Symbolic Z-matrix:
 Charge =  0 Multiplicity = 1

                         Standard orientation:
 ---------------------------------------------------------------------
 Center     Atomic      Atomic             Coordinates (Angstroms)
 Number     Number       Type             X           Y           Z
 ---------------------------------------------------------------------
      1         12           0       18.826559   -0.197280    0.047346
      2          6           0       15.419091   -0.781380   -0.039505
      3          6           0       18.532635    1.496870   -3.056891
      4          6           0       22.053648    0.920830    0.326431
      5          6           0       19.014739   -1.419571    3.272188
      6          7           0       17.167277    0.160378   -1.407024
      7          6           0       15.833348   -0.090013   -1.162683
      8          6           0       14.859173    0.548848   -2.222155
      9          6           0       15.892207    0.926066   -3.386076
     10          6           0       17.335064    0.834215   -2.636136
     11          6           0       15.875395    0.101168   -4.729080
     12          6           0       14.087733    1.729010   -1.745703
     13          6           0       12.571780    1.702161   -1.708946
     14          1           0       11.868894    3.058807   -1.876933
     15          7           0       20.152443    0.970619   -1.252322
     16          6           0       19.796892    1.506225   -2.504556
     17          6           0       20.940461    2.112616   -3.108527
     18          6           0       21.975475    2.093912   -2.041701
     19          6           0       21.427457    1.314229   -0.888902
     20          6           0       20.912175    2.858076   -4.446890
     21          6           0       23.341439    2.773533   -2.241041
     22          8           0       23.722595    3.402365   -3.224106
     23          6           0       24.179069    2.973488   -1.027905
     24          7           0       20.342698   -0.080739    1.713950
     25          6           0       21.614406    0.261426    1.466314
     26          6           0       22.313521    0.344122    2.822465
     27          6           0       21.397125   -0.496709    3.828762
     28          6           0       20.137459   -0.729546    2.880644
     29          6           0       23.721219   -0.344854    2.732633
     30          6           0       20.982699    0.126187    5.224753
     31          6           0       21.480503   -0.488612    6.524302
     32          7           0       17.492202   -1.044001    1.374095
     33          6           0       17.710758   -1.540030    2.663151
     34          6           0       16.474979   -1.986967    3.229560
     35          6           0       15.505990   -1.714916    2.214860
     36          6           0       16.238688   -1.176900    1.085989
     37          6           0       16.228422   -2.577623    4.581989
     38          6           0       14.160186   -1.818975    1.826032
     39          8           0       13.229861   -2.268805    2.464584
     40          6           0       14.022950   -1.154371    0.401611
     41          6           0       13.198852   -2.029610   -0.446611
     42          8           0       12.031188   -1.786844   -0.729900
     43          8           0       13.927541   -3.144438   -0.833482
     44          6           0       13.142310   -4.092665   -1.655245
     45          1           0       18.574573    2.002629   -4.023347
     46          1           0       23.098090    1.239257    0.294733
     47          1           0       19.086320   -1.762162    4.306457
     48          1           0       14.168153   -0.212302   -2.582760
     49          1           0       15.752213    1.988494   -3.588657
     50          1           0       14.956927   -0.485701   -4.731219
     51          1           0       16.737552   -0.550141   -4.873160
     52          1           0       15.909328    0.823519   -5.543798
     53          1           0       14.315745    2.542242   -2.436382
     54          1           0       14.373406    1.971007   -0.722582
     55          1           0       12.271812    1.367296   -0.716406
     56          1           0       12.131645    1.083960   -2.491053
     57          1           0       19.981258    3.008977   -4.992989
     58          1           0       21.660548    2.313633   -5.022226
     59          1           0       21.456749    3.776088   -4.228316
     60          1           0       24.890743    2.204318   -0.730989
     61          1           0       23.588815    3.285318   -0.166109
     62          1           0       24.838230    3.811680   -1.256872
     63          1           0       22.433774    1.368618    3.175404
     64          1           0       21.809711   -1.495596    3.966145
     65          1           0       24.440873    0.357738    3.152803
     66          1           0       24.034725   -0.645263    1.732052
     67          1           0       23.779411   -1.278541    3.292519
     68          1           0       19.893286    0.106894    5.204261
     69          1           0       21.398814    1.134561    5.217135
     70          1           0       20.750828   -0.186713    7.276079
     71          1           0       22.434127   -0.030805    6.788115
     72          1           0       21.570112   -1.570427    6.617214
     73          1           0       15.159472   -2.788224    4.624175
     74          1           0       16.572954   -1.851795    5.317960
     75          1           0       16.738880   -3.520841    4.777432
     76          1           0       13.442532   -0.252119    0.597306
     77          1           0       12.645877   -4.821366   -1.014513
     78          1           0       13.840833   -4.501999   -2.385015
     79          1           0       12.393237   -3.581639   -2.259428
     80         12           0      -18.601659    0.623297    0.448080
     81          6           0      -16.062652   -1.552139   -1.175015
     82          6           0      -20.406947   -2.223991    0.688492
     83          6           0      -20.804411    2.617744    1.551569
     84          6           0      -16.689914    3.363040   -0.781944
     85          7           0      -18.263644   -1.585086   -0.225176
     86          6           0      -17.119384   -2.223448   -0.672764
     87          6           0      -17.185213   -3.754483   -0.632475
     88          6           0      -18.728134   -3.918907   -0.472138
     89          6           0      -19.206866   -2.500384    0.025476
     90          6           0      -19.456099   -4.343468   -1.708553
     91          6           0      -16.305162   -4.480804    0.439380
     92          6           0      -15.791076   -5.844583    0.119157
     93          1           0      -15.745830   -6.816988    1.293548
     94          7           0      -20.405209    0.252593    1.106464
     95          6           0      -20.999782   -1.023337    1.197594
     96          6           0      -22.228524   -0.880050    1.923906
     97          6           0      -22.245869    0.531473    2.305964
     98          6           0      -21.143838    1.149658    1.661600
     99          6           0      -23.177049   -2.064528    2.340027
    100          6           0      -23.260834    1.171398    3.202992
    101          8           0      -23.255836    2.403524    3.442251
    102          6           0      -24.313827    0.405329    3.917094
    103          7           0      -18.857740    2.671883    0.281516
    104          6           0      -19.879616    3.305640    0.860369
    105          6           0      -19.817798    4.861158    0.727671
    106          6           0      -18.287769    5.010032    0.388835
    107          6           0      -17.906952    3.592691   -0.119743
    108          6           0      -20.719939    5.391995   -0.432568
    109          6           0      -17.421049    5.381088    1.664697
    110          6           0      -17.811991    6.607053    2.516500
    111          7           0      -16.741833    0.891579   -0.691874
    112          6           0      -16.095640    2.074086   -1.033698
    113          6           0      -14.900033    1.773317   -1.785882
    114          6           0      -14.830653    0.375013   -1.829889
    115          6           0      -16.013810   -0.135437   -1.228593
    116          6           0      -13.876787    2.745966   -2.267808
    117          6           0      -14.021135   -0.741833   -2.299184
    118          8           0      -12.935876   -0.828948   -2.858273
    119          6           0      -14.821152   -2.040554   -1.765617
    120          6           0      -14.963720   -2.912268   -2.919091
    121          8           0      -15.586050   -2.668729   -3.964880
    122          8           0      -13.963232   -3.839903   -2.863996
    123          6           0      -13.830478   -4.790370   -3.921092
    124          1           0      -20.868626   -3.197747    0.865870
    125          1           0      -21.534553    3.340123    1.921897
    126          1           0      -16.138559    4.243705   -1.119079
    127          1           0      -16.893404   -4.112759   -1.619915
    128          1           0      -18.957689   -4.570164    0.370710
    129          1           0      -19.993387   -3.469195   -2.076126
    130          1           0      -20.210139   -5.087801   -1.453044
    131          1           0      -18.858081   -4.732133   -2.532585
    132          1           0      -16.929758   -4.609742    1.322865
    133          1           0      -15.499857   -3.799108    0.711695
    134          1           0      -14.774705   -5.657063   -0.226562
    135          1           0      -16.227671   -6.254018   -0.791908
    136          1           0      -23.150535   -2.339939    3.393911
    137          1           0      -23.017536   -2.940624    1.712017
    138          1           0      -24.152561   -1.657142    2.071591
    139          1           0      -25.084770    0.131922    3.196225
    140          1           0      -24.715127    1.088278    4.666349
    141          1           0      -23.810436   -0.426755    4.408247
    142          1           0      -20.136641    5.253766    1.693816
    143          1           0      -18.046133    5.718213   -0.403172
    144          1           0      -21.524924    5.956546    0.038606
    145          1           0      -21.101266    4.639532   -1.122088
    146          1           0      -20.038637    6.076778   -0.939537
    147          1           0      -16.407505    5.610192    1.336406
    148          1           0      -17.346148    4.466480    2.252633
    149          1           0      -17.984509    6.204040    3.514344
    150          1           0      -18.758104    6.936831    2.086337
    151          1           0      -17.026389    7.361698    2.551361
    152          1           0      -14.116265    3.669952   -1.740997
    153          1           0      -14.046835    2.853902   -3.339001
    154          1           0      -12.847657    2.412703   -2.134027
    155          1           0      -14.243246   -2.526693   -0.979829
    156          1           0      -14.611393   -4.671624   -4.672528
    157          1           0      -13.970657   -5.761249   -3.445697
    158          1           0      -12.817080   -4.799895   -4.319851
 ---------------------------------------------------------------------

 SCF Done:  E(RwB97XD) =  -4070.59003316     A.U. after   20 cycles

 Excitation energies and oscillator strengths:

 Excited State   1:      Singlet-A      1.6009 eV  774.47 nm  f=0.3938  <S**2>=0.000
     310 -> 316       -0.16168
     312 -> 314        0.68933
     310 <- 316       -0.11298
 This state for optimization and/or second-order correction.
 Total Energy, E(TD-HF/TD-DFT) =  -4070.53120181
 Copying the excited state density for this state as the 1-particle RhoCI density.

 Excited State   2:      Singlet-A      1.6653 eV  744.51 nm  f=0.3766  <S**2>=0.000
     309 -> 315       -0.17862
     311 -> 313        0.68430
     309 <- 315       -0.11348

 Excited State   3:      Singlet-A      2.1183 eV  585.29 nm  f=0.1600  <S**2>=0.000
     309 -> 313        0.64830
     311 -> 315        0.25623

 Excited State   4:      Singlet-A      2.1247 eV  583.54 nm  f=0.2076  <S**2>=0.000
     310 -> 314        0.66462
     312 -> 316        0.22025

 Excited State   5:      Singlet-A      3.0630 eV  404.78 nm  f=0.0077  <S**2>=0.000
     307 -> 313        0.68066

 The electronic state is 1-A.
 Alpha  occ. eigenvalues --  -46.96826 -46.95197 -19.30334 -19.30008 -19.24951
 Alpha  occ. eigenvalues --  -19.24763 -19.24357 -19.24199 -19.23292 -19.22407
 Alpha  occ. eigenvalues --  -14.48160 -14.46894 -14.46558 -14.45961 -14.44705
 Alpha  occ. eigenvalues --  -14.44417 -14.44236 -14.44154 -10.42973 -10.42968
 Alpha  occ. eigenvalues --  -10.40009 -10.39307 -10.38147 -10.37887 -10.37276
 Alpha  occ. eigenvalues --  -10.36229 -10.35757 -10.35685 -10.35418 -10.35228
 Alpha  occ. eigenvalues --  -10.34807 -10.34789 -10.34751 -10.34734 -10.34650
 Alpha  occ. eigenvalues --  -10.34554 -10.34439 -10.34406 -10.34101 -10.34087
 Alpha  occ. eigenvalues --  -10.33802 -10.33527 -10.33167 -10.33077 -10.33027
 Alpha  occ. eigenvalues --  -10.32866 -10.32772 -10.32747 -10.32736 -10.32575
 Alpha  occ. eigenvalues --  -10.32350 -10.32342 -10.32329 -10.32306 -10.32228
 Alpha  occ. eigenvalues --  -10.32214 -10.32143 -10.32126 -10.32015 -10.32000
 Alpha  occ. eigenvalues --  -10.31958 -10.31914 -10.31668 -10.31541 -10.31499
 Alpha  occ. eigenvalues --  -10.31373 -10.31327 -10.30964 -10.30948 -10.30865
 Alpha  occ. eigenvalues --  -10.30845 -10.30730 -10.30283 -10.30161 -10.30070
 Alpha  occ. eigenvalues --  -10.30043 -10.29885 -10.29747 -10.29711 -10.29599
 Alpha  occ. eigenvalues --  -10.29579 -10.29519 -10.29395 -10.29342 -10.29338
 Alpha  occ. eigenvalues --  -10.28896  -3.22520  -3.21300  -1.96130  -1.95611
 Alpha  occ. eigenvalues --   -1.95482  -1.94858  -1.94423  -1.94286  -1.18693
 Alpha  occ. eigenvalues --   -1.17684  -1.12469  -1.12337  -1.11952  -1.09672
 Alpha  occ. eigenvalues --   -1.09599  -1.09184  -1.06887  -1.06800  -1.06062
 Alpha  occ. eigenvalues --   -1.06015  -1.05625  -1.04641  -1.04554  -1.03813
 Alpha  occ. eigenvalues --   -0.95669  -0.94541  -0.91474  -0.91374  -0.91254
 Alpha  occ. eigenvalues --   -0.90640  -0.90050  -0.89916  -0.89654  -0.89351
 Alpha  occ. eigenvalues --   -0.89084  -0.88748  -0.88140  -0.87840  -0.86591
 Alpha  occ. eigenvalues --   -0.86445  -0.85936  -0.85728  -0.84984  -0.84824
 Alpha  occ. eigenvalues --   -0.84182  -0.83979  -0.82992  -0.82831  -0.82743
 Alpha  occ. eigenvalues --   -0.82728  -0.80470  -0.79788  -0.79377  -0.79175
 Alpha  occ. eigenvalues --   -0.79141  -0.78940  -0.78147  -0.78129  -0.77464
 Alpha  occ. eigenvalues --   -0.77344  -0.75500  -0.75321  -0.74290  -0.72859
 Alpha  occ. eigenvalues --   -0.71344  -0.71174  -0.70974  -0.70552  -0.70134
 Alpha  occ. eigenvalues --   -0.69991  -0.69097  -0.68874  -0.67613  -0.67546
 Alpha  occ. eigenvalues --   -0.67456  -0.67287  -0.67045  -0.66858  -0.66783
 Alpha  occ. eigenvalues --   -0.66419  -0.64979  -0.64009  -0.62696  -0.62306
 Alpha  occ. eigenvalues --   -0.61743  -0.61731  -0.61456  -0.61456  -0.61072
 Alpha  occ. eigenvalues --   -0.60798  -0.60348  -0.59799  -0.59658  -0.58904
 Alpha  occ. eigenvalues --   -0.58556  -0.57931  -0.57815  -0.57563  -0.57406
 Alpha  occ. eigenvalues --   -0.56819  -0.56693  -0.56575  -0.56059  -0.55772
 Alpha  occ. eigenvalues --   -0.55622  -0.55496  -0.55175  -0.55142  -0.54803
 Alpha  occ. eigenvalues --   -0.54734  -0.54698  -0.54427  -0.54395  -0.54309
 Alpha  occ. eigenvalues --   -0.54043  -0.53846  -0.53657  -0.53309  -0.53264
 Alpha  occ. eigenvalues --   -0.53142  -0.52895  -0.52839  -0.52354  -0.52181
 Alpha  occ. eigenvalues --   -0.52155  -0.51800  -0.51780  -0.51712  -0.51600
 Alpha  occ. eigenvalues --   -0.51446  -0.51407  -0.51180  -0.51118  -0.50843
 Alpha  occ. eigenvalues --   -0.50610  -0.50558  -0.50221  -0.50213  -0.50034
 Alpha  occ. eigenvalues --   -0.49832  -0.49789  -0.49746  -0.49478  -0.49146
 Alpha  occ. eigenvalues --   -0.49131  -0.48964  -0.48612  -0.48515  -0.48411
 Alpha  occ. eigenvalues --   -0.48312  -0.48101  -0.48087  -0.47924  -0.47854
 Alpha  occ. eigenvalues --   -0.47796  -0.47650  -0.47334  -0.47208  -0.47094
 Alpha  occ. eigenvalues --   -0.46996  -0.46877  -0.46700  -0.46650  -0.46498
 Alpha  occ. eigenvalues --   -0.46255  -0.46070  -0.45878  -0.45659  -0.45627
 Alpha  occ. eigenvalues --   -0.45567  -0.45140  -0.45019  -0.44974  -0.44744
 Alpha  occ. eigenvalues --   -0.44723  -0.44554  -0.44341  -0.44154  -0.43996
 Alpha  occ. eigenvalues --   -0.43872  -0.43591  -0.43558  -0.43430  -0.43242
 Alpha  occ. eigenvalues --   -0.43197  -0.42618  -0.42548  -0.42335  -0.41889
 Alpha  occ. eigenvalues --   -0.41702  -0.41626  -0.41369  -0.41331  -0.41189
 Alpha  occ. eigenvalues --   -0.40436  -0.40262  -0.40121  -0.39939  -0.39647
 Alpha  occ. eigenvalues --   -0.39409  -0.39197  -0.39189  -0.38785  -0.38364
 Alpha  occ. eigenvalues --   -0.37835  -0.37815  -0.36584  -0.36518  -0.36327
 Alpha  occ. eigenvalues --   -0.36229  -0.35474  -0.35356  -0.34001  -0.33741
 Alpha  occ. eigenvalues --   -0.33398  -0.33211  -0.32473  -0.32297  -0.32206
 Alpha  occ. eigenvalues --   -0.32032  -0.31843  -0.31732  -0.26545  -0.26135
 Alpha  occ. eigenvalues --   -0.23976  -0.23508
 Alpha virt. eigenvalues --   -0.08091  -0.07984  -0.00420   0.01180   0.02062
 Alpha virt. eigenvalues --    0.02398   0.04320   0.04326   0.04985   0.05470
 Alpha virt. eigenvalues --    0.06145   0.07057   0.07431   0.07691   0.08345

 Mulliken charges:
               1
     1  Mg   0.930272
     2  C    0.060698
     3  C   -0.053553
     4  C   -0.067787
     5  C   -0.064582
     6  N   -0.367853
     7  C   -0.017562
     8  C   -0.066796
     9  C   -0.122731
    10  C    0.087881
    11  C    0.030126
    12  C    0.037180
    13  C   -0.149475
    14  H    0.025355
    15  N   -0.454689
    16  C    0.135220
    17  C   -0.149541
    18  C   -0.136799
    19  C    0.177554
    20  C    0.084139
    21  C    0.092289
    22  O   -0.239818
    23  C   -0.062642
    24  N   -0.335516
    25  C    0.120415
    26  C   -0.138853
    27  C   -0.048724
    28  C    0.022579
    29  C    0.006360
    30  C   -0.011639
    31  C   -0.052428
    32  N   -0.425280
    33  C    0.118245
    34  C   -0.169434
    35  C   -0.018297
    36  C    0.076877
    37  C    0.078426
    38  C    0.069271
    39  O   -0.202356
    40  C   -0.060290
    41  C    0.246517
    42  O   -0.245704
    43  O   -0.384185
    44  C    0.134976
    45  H   -0.012736
    46  H   -0.019754
    47  H   -0.002634
    48  H    0.034920
    49  H    0.040613
    50  H    0.043326
    51  H    0.048375
    52  H    0.043036
    53  H    0.039688
    54  H    0.043276
    55  H    0.068922
    56  H    0.059061
    57  H    0.056970
    58  H    0.057831
    59  H    0.063766
    60  H    0.068461
    61  H    0.055844
    62  H    0.048630
    63  H    0.055213
    64  H    0.030133
    65  H    0.036196
    66  H    0.039796
    67  H    0.031066
    68  H    0.041415
    69  H    0.028821
    70  H    0.036985
    71  H    0.037548
    72  H    0.038377
    73  H    0.063008
    74  H    0.045510
    75  H    0.046911
    76  H    0.066622
    77  H    0.069711
    78  H    0.052456
    79  H    0.054797
    80  Mg   0.983527
    81  C   -0.013774
    82  C   -0.065910
    83  C   -0.042940
    84  C   -0.082951
    85  N   -0.296735
    86  C   -0.036547
    87  C   -0.083986
    88  C   -0.102195
    89  C   -0.016835
    90  C    0.047874
    91  C    0.043088
    92  C   -0.116554
    93  H    0.053905
    94  N   -0.496845
    95  C    0.190246
    96  C   -0.170731
    97  C   -0.082160
    98  C    0.148039
    99  C    0.071690
   100  C    0.008597
   101  O   -0.274986
   102  C    0.010031
   103  N   -0.391796
   104  C    0.045161
   105  C   -0.110413
   106  C   -0.102469
   107  C    0.088942
   108  C    0.051777
   109  C   -0.033930
   110  C   -0.032719
   111  N   -0.399895
   112  C    0.123048
   113  C   -0.202470
   114  C   -0.040039
   115  C    0.129324
   116  C    0.087847
   117  C    0.156491
   118  O   -0.192133
   119  C   -0.059913
   120  C    0.245482
   121  O   -0.268813
   122  O   -0.350328
   123  C    0.133677
   124  H   -0.007736
   125  H    0.013626
   126  H    0.005014
   127  H    0.033294
   128  H    0.025411
   129  H    0.044455
   130  H    0.034210
   131  H    0.048391
   132  H    0.032028
   133  H    0.031326
   134  H    0.048099
   135  H    0.042863
   136  H    0.068002
   137  H    0.040274
   138  H    0.043034
   139  H    0.063905
   140  H    0.055025
   141  H    0.045477
   142  H    0.047061
   143  H    0.025403
   144  H    0.046329
   145  H    0.060219
   146  H    0.027944
   147  H    0.024720
   148  H    0.033463
   149  H    0.042571
   150  H    0.036155
   151  H    0.048631
   152  H    0.031189
   153  H    0.059996
   154  H    0.065168
   155  H    0.072006
   156  H    0.066006
   157  H    0.033743
   158  H    0.062024
 Sum of Mulliken charges =  -0.00000

 Dipole moment (field-independent basis, Debye):
    X=              3.3544    Y=             -2.6444    Z=              2.2187  Tot=              4.8133
 Quadrupole moment (field-independent basis, Debye-Ang):
   XX=           -375.5500   YY=           -476.1951   ZZ=           -507.3499
   XY=             28.8727   XZ=              3.8013   YZ=              3.3028

 Normal termination of Gaussian 16 at Mon Sep 20 05:07:44 2021.
