 Gaussian 16, Revision A.03,
 Gaussian 16:  ES64L-G16RevA.03 25-Dec-2016

 --------------------------------
 #p wB97XD/Def2SVP td=(nstates=5)
 --------------------------------

 --------------------------------
 TDDFT excited states in gaussian
 --------------------------------
 Symbolic Z-matrix:
 Charge =  0 Multiplicity = 1

                         Standard orientation:
 ---------------------------------------------------------------------
 Center     Atomic      Atomic             Coordinates (Angstroms)
 Number     Number       Type             X           Y           Z
 ---------------------------------------------------------------------
      1         12           0      -21.991980    0.417273   -0.214575
      2          6           0      -18.335546    0.615219    0.024008
      3          6           0      -21.415202   -1.115700   -3.263674
      4          6           0      -24.965869   -0.714601   -0.003122
      5          6           0      -22.005877    1.642140    3.163483
      6          7           0      -19.970715   -0.310016   -1.414704
      7          6           0      -18.635497   -0.113056   -1.137825
      8          6           0      -17.765230   -0.842496   -2.225631
      9          6           0      -18.745898   -1.128435   -3.376169
     10          6           0      -20.118582   -0.839868   -2.657602
     11          6           0      -18.643842   -0.253873   -4.694354
     12          6           0      -17.005785   -2.102040   -1.684633
     13          6           0      -15.598546   -2.312191   -2.200699
     14          1           0      -15.412988   -3.390519   -3.313955
     15          7           0      -23.086499   -0.632641   -1.486195
     16          6           0      -22.746780   -1.091288   -2.729883
     17          6           0      -23.907630   -1.792336   -3.343683
     18          6           0      -24.934881   -1.690944   -2.369651
     19          6           0      -24.334054   -1.031146   -1.213099
     20          6           0      -23.939585   -2.530775   -4.691794
     21          6           0      -26.314578   -2.355441   -2.366459
     22          8           0      -26.639729   -2.978709   -3.373396
     23          6           0      -27.246091   -2.277256   -1.311300
     24          7           0      -23.218445    0.238651    1.506701
     25          6           0      -24.526875   -0.055938    1.178469
     26          6           0      -25.423305    0.224735    2.446122
     27          6           0      -24.388521    0.682259    3.535767
     28          6           0      -23.150582    0.963740    2.650794
     29          6           0      -26.587091    1.232454    2.238450
     30          6           0      -24.084138   -0.280807    4.753215
     31          6           0      -25.087075   -0.311579    5.919589
     32          7           0      -20.550226    1.073103    1.334991
     33          6           0      -20.740309    1.650215    2.574663
     34          6           0      -19.507280    2.156103    3.127410
     35          6           0      -18.524064    1.780243    2.137260
     36          6           0      -19.150653    1.063633    1.058609
     37          6           0      -19.392164    2.808699    4.470482
     38          6           0      -17.154114    1.782321    1.877372
     39          8           0      -16.201655    2.078672    2.586004
     40          6           0      -16.937236    0.933737    0.591067
     41          6           0      -16.187974    1.851769   -0.346268
     42          8           0      -15.166427    1.517982   -0.951756
     43          8           0      -16.837424    3.120094   -0.630139
     44          6           0      -16.263893    3.791999   -1.795098
     45          1           0      -21.267302   -1.535575   -4.260317
     46          1           0      -26.036310   -0.876513    0.139660
     47          1           0      -22.183409    2.070571    4.152023
     48          1           0      -17.092779   -0.110761   -2.675643
     49          1           0      -18.773984   -2.187861   -3.630957
     50          1           0      -18.200401   -0.922188   -5.432170
     51          1           0      -17.951717    0.577367   -4.562966
     52          1           0      -19.575821    0.198671   -5.032899
     53          1           0      -17.445672   -3.057084   -1.972983
     54          1           0      -16.908237   -2.048385   -0.600120
     55          1           0      -14.964860   -2.482855   -1.330383
     56          1           0      -15.270660   -1.373392   -2.648204
     57          1           0      -24.887272   -2.338125   -5.195366
     58          1           0      -23.776034   -3.573639   -4.420407
     59          1           0      -23.168768   -2.153766   -5.362583
     60          1           0      -27.582237   -1.242684   -1.235241
     61          1           0      -26.897829   -2.682357   -0.361140
     62          1           0      -27.992566   -2.998125   -1.646556
     63          1           0      -25.911608   -0.664593    2.843154
     64          1           0      -24.646770    1.659729    3.942431
     65          1           0      -26.417068    2.017903    2.974964
     66          1           0      -27.524549    0.718792    2.449293
     67          1           0      -26.475025    1.537132    1.197195
     68          1           0      -23.121350    0.076645    5.119869
     69          1           0      -24.062361   -1.321992    4.430737
     70          1           0      -25.779938    0.470516    5.607831
     71          1           0      -24.635520    0.063766    6.839021
     72          1           0      -25.613327   -1.248971    6.098110
     73          1           0      -19.784692    2.079079    5.177555
     74          1           0      -20.047772    3.670657    4.592899
     75          1           0      -18.358818    2.939746    4.791835
     76          1           0      -16.277591    0.110512    0.864746
     77          1           0      -17.161119    4.361168   -2.041205
     78          1           0      -15.833092    3.087426   -2.506465
     79          1           0      -15.539412    4.508220   -1.407271
     80         12           0       20.941106   -0.922549   -0.227762
     81          6           0       22.163090    2.312566   -0.684825
     82          6           0       17.836678    0.267467   -0.075229
     83          6           0       20.076247   -3.748469    1.490171
     84          6           0       24.212810   -2.113652   -0.343920
     85          7           0       20.074645    1.074434   -0.533912
     86          6           0       20.755887    2.198956   -0.717078
     87          6           0       19.744992    3.365451   -1.012254
     88          6           0       18.382408    2.702111   -0.699099
     89          6           0       18.760886    1.256853   -0.389461
     90          6           0       17.659917    3.280101    0.617134
     91          6           0       19.792726    3.947780   -2.497496
     92          6           0       19.680361    5.433522   -2.526683
     93          1           0       18.650557    6.089459   -3.433597
     94          7           0       19.185988   -1.634741    0.565669
     95          6           0       17.976643   -0.994162    0.507881
     96          6           0       16.922297   -1.949882    0.874615
     97          6           0       17.591315   -3.119821    1.330880
     98          6           0       19.026541   -2.828626    1.178784
     99          6           0       15.401973   -1.591479    0.860490
    100          6           0       16.979089   -4.415392    1.943642
    101          8           0       17.638300   -5.382867    2.307352
    102          6           0       15.504668   -4.493960    2.070786
    103          7           0       21.950755   -2.614504    0.484365
    104          6           0       21.418822   -3.662157    1.242123
    105          6           0       22.568732   -4.570502    1.750588
    106          6           0       23.694122   -4.369576    0.643359
    107          6           0       23.228382   -2.942333    0.238171
    108          6           0       22.983062   -4.270838    3.207255
    109          6           0       23.675772   -5.304133   -0.532759
    110          6           0       22.703481   -5.113347   -1.658755
    111          7           0       22.818424   -0.177095   -0.658584
    112          6           0       24.068905   -0.750119   -0.634355
    113          6           0       25.121055    0.214662   -0.962268
    114          6           0       24.425172    1.504727   -0.896174
    115          6           0       23.028056    1.175256   -0.696669
    116          6           0       26.536328   -0.050565   -1.044119
    117          6           0       24.577921    2.953556   -0.949793
    118          8           0       25.520097    3.650040   -1.019403
    119          6           0       23.069587    3.532880   -0.891108
    120          6           0       22.873276    4.656378    0.095183
    121          8           0       22.512348    4.520815    1.260528
    122          8           0       23.075217    5.867363   -0.566169
    123          6           0       22.900513    7.107126    0.212013
    124          1           0       16.761895    0.436142   -0.173038
    125          1           0       19.730679   -4.617123    2.055179
    126          1           0       25.198172   -2.568455   -0.461992
    127          1           0       19.857386    4.193740   -0.312233
    128          1           0       17.617510    2.780821   -1.471630
    129          1           0       16.999675    4.081784    0.285622
    130          1           0       18.322042    3.747292    1.345667
    131          1           0       17.063018    2.476314    1.049699
    132          1           0       18.983492    3.552698   -3.111848
    133          1           0       20.676921    3.683651   -3.077786
    134          1           0       20.636721    5.742225   -2.947911
    135          1           0       19.576600    5.957122   -1.576740
    136          1           0       15.182522   -1.204985    1.855366
    137          1           0       14.790281   -2.445150    0.567639
    138          1           0       15.162559   -0.692606    0.291331
    139          1           0       14.911597   -3.638335    2.393318
    140          1           0       15.239150   -5.297105    2.757768
    141          1           0       15.094314   -4.967223    1.178290
    142          1           0       22.154858   -5.574217    1.658166
    143          1           0       24.699079   -4.400905    1.063910
    144          1           0       24.039241   -4.066046    3.382422
    145          1           0       22.567077   -4.970325    3.932706
    146          1           0       22.502213   -3.353612    3.546768
    147          1           0       23.527539   -6.350938   -0.270332
    148          1           0       24.665808   -5.278832   -0.988276
    149          1           0       23.294900   -4.548160   -2.378872
    150          1           0       21.823837   -4.510430   -1.432262
    151          1           0       22.414522   -6.088233   -2.052765
    152          1           0       26.911567    0.594111   -1.839115
    153          1           0       26.649753   -1.091737   -1.345086
    154          1           0       27.021435    0.199059   -0.100993
    155          1           0       22.846836    3.934135   -1.879793
    156          1           0       23.523271    7.012350    1.101968
    157          1           0       21.868942    7.212929    0.546793
    158          1           0       23.128266    8.068673   -0.248345
 ---------------------------------------------------------------------

 SCF Done:  E(RwB97XD) =  -4070.56626089     A.U. after   17 cycles

 Excitation energies and oscillator strengths:

 Excited State   1:      Singlet-A      1.6237 eV  763.57 nm  f=0.3840  <S**2>=0.000
     310 -> 316       -0.18260
     312 -> 314        0.68416
     310 <- 316       -0.11752
 This state for optimization and/or second-order correction.
 Total Energy, E(TD-HF/TD-DFT) =  -4070.50658944
 Copying the excited state density for this state as the 1-particle RhoCI density.

 Excited State   2:      Singlet-A      1.6686 eV  743.05 nm  f=0.3481  <S**2>=0.000
     309 -> 315        0.20210
     311 -> 313        0.67709
     309 <- 315        0.11956

 Excited State   3:      Singlet-A      2.1894 eV  566.29 nm  f=0.0674  <S**2>=0.000
     309 -> 313        0.61434
     311 -> 315       -0.33149

 Excited State   4:      Singlet-A      2.2000 eV  563.56 nm  f=0.1018  <S**2>=0.000
     310 -> 314        0.63110
     312 -> 316        0.30777

 Excited State   5:      Singlet-A      3.2142 eV  385.74 nm  f=0.0157  <S**2>=0.000
     308 -> 313        0.61828
     308 -> 317       -0.11996
     311 -> 315        0.24316

 The electronic state is 1-A.
 Alpha  occ. eigenvalues --  -46.97122 -46.94228 -19.30235 -19.28966 -19.25060
 Alpha  occ. eigenvalues --  -19.25013 -19.24720 -19.24140 -19.23853 -19.22925
 Alpha  occ. eigenvalues --  -14.47373 -14.46723 -14.46593 -14.45983 -14.45439
 Alpha  occ. eigenvalues --  -14.43869 -14.43759 -14.43758 -10.43524 -10.43300
 Alpha  occ. eigenvalues --  -10.39552 -10.39514 -10.38915 -10.37512 -10.36436
 Alpha  occ. eigenvalues --  -10.35990 -10.35670 -10.35630 -10.35513 -10.35480
 Alpha  occ. eigenvalues --  -10.35326 -10.35028 -10.34576 -10.34523 -10.34522
 Alpha  occ. eigenvalues --  -10.33985 -10.33896 -10.33842 -10.33766 -10.33493
 Alpha  occ. eigenvalues --  -10.33388 -10.33338 -10.33256 -10.33090 -10.33006
 Alpha  occ. eigenvalues --  -10.32928 -10.32871 -10.32808 -10.32703 -10.32467
 Alpha  occ. eigenvalues --  -10.32428 -10.32399 -10.32339 -10.32323 -10.32317
 Alpha  occ. eigenvalues --  -10.32303 -10.32193 -10.32134 -10.31894 -10.31670
 Alpha  occ. eigenvalues --  -10.31615 -10.31576 -10.31422 -10.31421 -10.31107
 Alpha  occ. eigenvalues --  -10.30897 -10.30872 -10.30796 -10.30784 -10.30758
 Alpha  occ. eigenvalues --  -10.30698 -10.30640 -10.30533 -10.30149 -10.30139
 Alpha  occ. eigenvalues --  -10.30120 -10.30059 -10.29944 -10.29752 -10.29671
 Alpha  occ. eigenvalues --  -10.29617 -10.29441 -10.29342 -10.29334 -10.29278
 Alpha  occ. eigenvalues --  -10.28325  -3.23025  -3.20348  -1.96549  -1.96191
 Alpha  occ. eigenvalues --   -1.95944  -1.93944  -1.93451  -1.93352  -1.17299
 Alpha  occ. eigenvalues --   -1.16110  -1.15192  -1.12707  -1.12304  -1.11220
 Alpha  occ. eigenvalues --   -1.09630  -1.08580  -1.07132  -1.07130  -1.05534
 Alpha  occ. eigenvalues --   -1.05388  -1.05378  -1.04857  -1.04139  -1.03112
 Alpha  occ. eigenvalues --   -0.94900  -0.93818  -0.90921  -0.90854  -0.90849
 Alpha  occ. eigenvalues --   -0.90429  -0.90428  -0.89907  -0.89104  -0.89008
 Alpha  occ. eigenvalues --   -0.88909  -0.88780  -0.88173  -0.87879  -0.86949
 Alpha  occ. eigenvalues --   -0.86018  -0.85792  -0.85625  -0.85453  -0.84508
 Alpha  occ. eigenvalues --   -0.84410  -0.83722  -0.83139  -0.82916  -0.82294
 Alpha  occ. eigenvalues --   -0.81874  -0.80265  -0.80150  -0.79303  -0.79129
 Alpha  occ. eigenvalues --   -0.78986  -0.78641  -0.77794  -0.77722  -0.77256
 Alpha  occ. eigenvalues --   -0.76747  -0.74853  -0.74215  -0.73946  -0.73395
 Alpha  occ. eigenvalues --   -0.71125  -0.71103  -0.70576  -0.70469  -0.69739
 Alpha  occ. eigenvalues --   -0.69643  -0.69029  -0.68660  -0.67600  -0.67540
 Alpha  occ. eigenvalues --   -0.67355  -0.67026  -0.66577  -0.66204  -0.66058
 Alpha  occ. eigenvalues --   -0.65998  -0.63917  -0.63770  -0.62441  -0.62094
 Alpha  occ. eigenvalues --   -0.61838  -0.61507  -0.61291  -0.60935  -0.60839
 Alpha  occ. eigenvalues --   -0.60062  -0.59718  -0.59213  -0.59173  -0.59024
 Alpha  occ. eigenvalues --   -0.58697  -0.57751  -0.57617  -0.57442  -0.57262
 Alpha  occ. eigenvalues --   -0.56777  -0.56719  -0.56322  -0.56017  -0.55864
 Alpha  occ. eigenvalues --   -0.55710  -0.55503  -0.55483  -0.55272  -0.55256
 Alpha  occ. eigenvalues --   -0.54876  -0.54828  -0.54467  -0.54388  -0.54052
 Alpha  occ. eigenvalues --   -0.53937  -0.53708  -0.53660  -0.53512  -0.53446
 Alpha  occ. eigenvalues --   -0.53271  -0.53168  -0.52997  -0.52547  -0.52290
 Alpha  occ. eigenvalues --   -0.52083  -0.51971  -0.51843  -0.51826  -0.51534
 Alpha  occ. eigenvalues --   -0.51511  -0.51391  -0.51130  -0.51009  -0.50928
 Alpha  occ. eigenvalues --   -0.50589  -0.50484  -0.50361  -0.50190  -0.50116
 Alpha  occ. eigenvalues --   -0.49924  -0.49862  -0.49693  -0.49687  -0.49267
 Alpha  occ. eigenvalues --   -0.48852  -0.48734  -0.48685  -0.48498  -0.48471
 Alpha  occ. eigenvalues --   -0.48146  -0.48072  -0.48001  -0.47880  -0.47709
 Alpha  occ. eigenvalues --   -0.47382  -0.47343  -0.47094  -0.46931  -0.46831
 Alpha  occ. eigenvalues --   -0.46634  -0.46512  -0.46469  -0.46347  -0.46238
 Alpha  occ. eigenvalues --   -0.46056  -0.46050  -0.45751  -0.45615  -0.45591
 Alpha  occ. eigenvalues --   -0.45220  -0.45183  -0.45161  -0.44671  -0.44584
 Alpha  occ. eigenvalues --   -0.44551  -0.44412  -0.44288  -0.44069  -0.43937
 Alpha  occ. eigenvalues --   -0.43745  -0.43476  -0.43454  -0.43406  -0.43317
 Alpha  occ. eigenvalues --   -0.43284  -0.43046  -0.42342  -0.42194  -0.42151
 Alpha  occ. eigenvalues --   -0.42075  -0.41855  -0.41246  -0.41000  -0.40805
 Alpha  occ. eigenvalues --   -0.40553  -0.39919  -0.39838  -0.39644  -0.39563
 Alpha  occ. eigenvalues --   -0.39193  -0.38905  -0.38613  -0.38559  -0.38317
 Alpha  occ. eigenvalues --   -0.37801  -0.37375  -0.36576  -0.36387  -0.36238
 Alpha  occ. eigenvalues --   -0.35964  -0.35297  -0.35025  -0.33866  -0.33554
 Alpha  occ. eigenvalues --   -0.33360  -0.33237  -0.33232  -0.33090  -0.32147
 Alpha  occ. eigenvalues --   -0.32147  -0.31728  -0.30894  -0.26428  -0.25866
 Alpha  occ. eigenvalues --   -0.23296  -0.22545
 Alpha virt. eigenvalues --   -0.07164  -0.06772  -0.00830   0.00577   0.01851
 Alpha virt. eigenvalues --    0.02523   0.03614   0.04291   0.04579   0.05950
 Alpha virt. eigenvalues --    0.06767   0.06788   0.06949   0.08114   0.08117

 Mulliken charges:
               1
     1  Mg   0.966398
     2  C   -0.023692
     3  C   -0.063264
     4  C   -0.092037
     5  C   -0.101005
     6  N   -0.282687
     7  C   -0.034079
     8  C    0.018217
     9  C   -0.119660
    10  C   -0.008113
    11  C    0.015374
    12  C    0.017566
    13  C   -0.125783
    14  H    0.022179
    15  N   -0.499444
    16  C    0.163161
    17  C   -0.190120
    18  C   -0.055676
    19  C    0.215238
    20  C    0.096976
    21  C    0.017719
    22  O   -0.245728
    23  C    0.020284
    24  N   -0.385023
    25  C    0.048313
    26  C   -0.125751
    27  C   -0.090046
    28  C    0.045238
    29  C    0.037754
    30  C   -0.003807
    31  C   -0.042746
    32  N   -0.423355
    33  C    0.155172
    34  C   -0.159579
    35  C   -0.021021
    36  C    0.159107
    37  C    0.093611
    38  C    0.074388
    39  O   -0.216393
    40  C   -0.098818
    41  C    0.286783
    42  O   -0.256914
    43  O   -0.417797
    44  C    0.139156
    45  H   -0.001278
    46  H   -0.023719
    47  H   -0.001900
    48  H    0.034630
    49  H    0.044274
    50  H    0.048552
    51  H    0.036625
    52  H    0.049392
    53  H    0.048472
    54  H    0.043929
    55  H    0.057334
    56  H    0.052591
    57  H    0.068269
    58  H    0.069358
    59  H    0.030860
    60  H    0.075408
    61  H    0.063983
    62  H    0.054831
    63  H    0.035916
    64  H    0.019960
    65  H    0.037859
    66  H    0.042253
    67  H    0.042233
    68  H    0.028934
    69  H    0.036395
    70  H    0.015414
    71  H    0.040199
    72  H    0.050270
    73  H    0.034122
    74  H    0.047828
    75  H    0.062808
    76  H    0.072054
    77  H    0.050749
    78  H    0.068765
    79  H    0.052534
    80  Mg   0.983797
    81  C    0.016822
    82  C   -0.089905
    83  C   -0.082474
    84  C   -0.106086
    85  N   -0.316750
    86  C    0.009746
    87  C   -0.040698
    88  C   -0.128910
    89  C    0.104089
    90  C   -0.004742
    91  C    0.028240
    92  C   -0.147909
    93  H    0.026142
    94  N   -0.452961
    95  C    0.111680
    96  C   -0.155660
    97  C   -0.103421
    98  C    0.123607
    99  C    0.045881
   100  C    0.084848
   101  O   -0.233068
   102  C   -0.023513
   103  N   -0.364447
   104  C    0.051409
   105  C   -0.052967
   106  C   -0.060146
   107  C    0.046755
   108  C    0.044649
   109  C   -0.025404
   110  C   -0.034921
   111  N   -0.448115
   112  C    0.163675
   113  C   -0.168901
   114  C   -0.084495
   115  C    0.117350
   116  C    0.076980
   117  C    0.137583
   118  O   -0.142258
   119  C   -0.138993
   120  C    0.283402
   121  O   -0.249083
   122  O   -0.383379
   123  C    0.147031
   124  H   -0.012994
   125  H    0.021640
   126  H   -0.009774
   127  H    0.043031
   128  H    0.044085
   129  H    0.031271
   130  H    0.051230
   131  H    0.038111
   132  H    0.037923
   133  H    0.036907
   134  H    0.053884
   135  H    0.051468
   136  H    0.057751
   137  H    0.063586
   138  H    0.032759
   139  H    0.059437
   140  H    0.038723
   141  H    0.062621
   142  H    0.024362
   143  H    0.023833
   144  H    0.039118
   145  H    0.044473
   146  H    0.032119
   147  H    0.026683
   148  H    0.023402
   149  H    0.026938
   150  H    0.051717
   151  H    0.040136
   152  H    0.057340
   153  H    0.036639
   154  H    0.074567
   155  H    0.075975
   156  H    0.054231
   157  H    0.040583
   158  H    0.061744
 Sum of Mulliken charges =  -0.00000

 Dipole moment (field-independent basis, Debye):
    X=             -8.5802    Y=              0.4665    Z=             -2.2630  Tot=              8.8858
 Quadrupole moment (field-independent basis, Debye-Ang):
   XX=           -415.3765   YY=           -506.4974   ZZ=           -502.7994
   XY=            -56.4668   XZ=            -62.9244   YZ=             -4.7559

 Normal termination of Gaussian 16 at Mon Sep 20 05:12:40 2021.
