 Gaussian 16, Revision A.03,
 Gaussian 16:  ES64L-G16RevA.03 25-Dec-2016

 --------------------------------
 #p wB97XD/Def2SVP td=(nstates=5)
 --------------------------------

 --------------------------------
 TDDFT excited states in gaussian
 --------------------------------
 Symbolic Z-matrix:
 Charge =  0 Multiplicity = 1

                         Standard orientation:
 ---------------------------------------------------------------------
 Center     Atomic      Atomic             Coordinates (Angstroms)
 Number     Number       Type             X           Y           Z
 ---------------------------------------------------------------------
      1         12           0      -21.309306    0.096173    0.063603
      2          6           0      -18.284620    1.303979   -0.967098
      3          6           0      -21.826017   -1.023733   -3.274278
      4          6           0      -24.113961   -1.454307    1.119934
      5          6           0      -20.272357    0.410025    3.374700
      6          7           0      -19.944057   -0.181670   -1.883119
      7          6           0      -18.860064    0.621344   -2.075072
      8          6           0      -18.334115    0.442218   -3.472298
      9          6           0      -19.485005   -0.353113   -4.228900
     10          6           0      -20.538724   -0.553852   -3.094189
     11          6           0      -19.795738    0.089055   -5.612177
     12          6           0      -16.856691   -0.132700   -3.700484
     13          6           0      -16.314466   -1.110685   -2.700731
     14          1           0      -15.676866   -2.379302   -3.249699
     15          7           0      -22.862158   -0.858343   -0.983776
     16          6           0      -22.911619   -1.192661   -2.301555
     17          6           0      -24.120120   -1.885799   -2.637279
     18          6           0      -24.874140   -1.918156   -1.352868
     19          6           0      -23.950448   -1.387644   -0.326421
     20          6           0      -24.546124   -2.395877   -3.930461
     21          6           0      -26.296088   -2.394427   -1.092902
     22          8           0      -26.906017   -2.950330   -1.935908
     23          6           0      -27.036493   -2.327246    0.214044
     24          7           0      -22.001201   -0.547876    1.935602
     25          6           0      -23.258095   -0.989597    2.095138
     26          6           0      -23.519276   -1.428303    3.630165
     27          6           0      -22.437827   -0.472085    4.334134
     28          6           0      -21.509469   -0.245618    3.164756
     29          6           0      -24.945309   -1.223757    4.149084
     30          6           0      -21.851721   -1.079764    5.621319
     31          6           0      -21.754061   -0.249766    6.906776
     32          7           0      -19.577836    0.626009    1.032930
     33          6           0      -19.279040    0.758479    2.383281
     34          6           0      -18.028203    1.381653    2.579870
     35          6           0      -17.582065    1.684174    1.303937
     36          6           0      -18.564608    1.202859    0.367852
     37          6           0      -17.366090    1.724059    3.878657
     38          6           0      -16.617915    2.293793    0.486220
     39          8           0      -15.582460    2.850080    0.846298
     40          6           0      -16.914781    1.938922   -0.998635
     41          6           0      -16.857929    3.291155   -1.694009
     42          8           0      -16.164099    3.531127   -2.704844
     43          8           0      -17.794505    4.101618   -1.096881
     44          6           0      -18.187049    5.410224   -1.674755
     45          1           0      -21.866769   -1.448747   -4.279281
     46          1           0      -24.906211   -2.124730    1.459180
     47          1           0      -19.986509    0.569441    4.416148
     48          1           0      -18.202475    1.428751   -3.918240
     49          1           0      -19.114779   -1.371247   -4.345531
     50          1           0      -20.861381    0.227494   -5.794383
     51          1           0      -19.312283   -0.535434   -6.363450
     52          1           0      -19.389041    1.088118   -5.769219
     53          1           0      -16.075850    0.627699   -3.718296
     54          1           0      -16.839095   -0.730777   -4.612115
     55          1           0      -16.970510   -1.309469   -1.853923
     56          1           0      -15.421443   -0.656208   -2.270441
     57          1           0      -24.128531   -1.760878   -4.711177
     58          1           0      -25.627131   -2.444683   -4.055851
     59          1           0      -24.136113   -3.402604   -4.018736
     60          1           0      -26.553398   -1.409314    0.549735
     61          1           0      -26.801975   -3.158315    0.878463
     62          1           0      -28.122222   -2.240994    0.167942
     63          1           0      -23.163060   -2.456102    3.706074
     64          1           0      -22.736466    0.538331    4.612282
     65          1           0      -24.918414   -0.358736    4.812305
     66          1           0      -25.352502   -2.163936    4.519912
     67          1           0      -25.654170   -0.964718    3.363189
     68          1           0      -20.846130   -1.419816    5.372392
     69          1           0      -22.377450   -2.014578    5.816406
     70          1           0      -22.129938   -0.679236    7.835539
     71          1           0      -22.137296    0.764616    6.788548
     72          1           0      -20.686714   -0.035475    6.950733
     73          1           0      -16.776697    2.641137    3.862347
     74          1           0      -16.714692    0.896693    4.161118
     75          1           0      -18.073710    1.901320    4.689622
     76          1           0      -16.088318    1.277486   -1.255694
     77          1           0      -19.254285    5.608247   -1.576817
     78          1           0      -17.919857    5.406637   -2.731617
     79          1           0      -17.739829    6.335043   -1.312483
     80         12           0       20.467970   -0.887778   -0.001690
     81          6           0       21.246420    2.645032    0.145435
     82          6           0       17.605150   -0.094109    1.267852
     83          6           0       20.061263   -4.158182    0.038171
     84          6           0       23.968966   -1.626344   -0.639805
     85          7           0       19.499076    1.128589    0.521088
     86          6           0       19.951901    2.431574    0.526380
     87          6           0       18.901999    3.341235    1.054675
     88          6           0       17.964469    2.392425    1.844880
     89          6           0       18.389748    1.041867    1.221882
     90          6           0       18.197739    2.391446    3.371601
     91          6           0       18.110079    3.973727   -0.130123
     92          6           0       17.801803    5.517556   -0.024458
     93          1           0       17.443203    6.343007   -1.323712
     94          7           0       18.912822   -1.994905    0.569079
     95          6           0       17.765303   -1.512094    0.965038
     96          6           0       16.842504   -2.618867    1.132895
     97          6           0       17.552673   -3.743008    0.649518
     98          6           0       18.906763   -3.315535    0.423772
     99          6           0       15.384711   -2.375580    1.563777
    100          6           0       17.008778   -5.133654    0.475480
    101          8           0       17.718567   -6.012222    0.086017
    102          6           0       15.551865   -5.379654    0.696319
    103          7           0       21.970465   -2.670255   -0.000138
    104          6           0       21.408535   -3.870786   -0.125013
    105          6           0       22.378942   -4.896849   -0.576236
    106          6           0       23.697451   -4.060389   -0.592766
    107          6           0       23.224162   -2.645038   -0.391513
    108          6           0       22.436132   -6.253612    0.213809
    109          6           0       24.503385   -4.294009   -1.929849
    110          6           0       25.794245   -5.159299   -1.910096
    111          7           0       22.208012    0.150236   -0.206563
    112          6           0       23.531429   -0.219220   -0.535378
    113          6           0       24.362604    0.995572   -0.663766
    114          6           0       23.510340    2.066337   -0.429365
    115          6           0       22.261064    1.556970   -0.117990
    116          6           0       25.898497    1.009624   -0.855916
    117          6           0       23.498160    3.563463   -0.370761
    118          8           0       24.327265    4.416908   -0.581425
    119          6           0       22.049487    3.999828    0.180304
    120          6           0       21.517519    5.093607   -0.546379
    121          8           0       20.778170    4.933974   -1.527666
    122          8           0       21.898930    6.366213   -0.132859
    123          6           0       21.217423    7.555815   -0.729397
    124          1           0       16.591331    0.039128    1.649463
    125          1           0       19.911197   -5.238584   -0.011560
    126          1           0       25.021715   -1.830818   -0.840722
    127          1           0       19.337050    4.027405    1.781783
    128          1           0       16.893904    2.565245    1.736511
    129          1           0       17.295469    2.707584    3.895960
    130          1           0       19.009196    3.091678    3.567686
    131          1           0       18.523692    1.435091    3.781517
    132          1           0       17.162473    3.435015   -0.146516
    133          1           0       18.670355    3.719272   -1.029586
    134          1           0       18.644286    5.986237    0.483406
    135          1           0       16.940149    5.531793    0.644024
    136          1           0       14.731068   -2.653520    0.735957
    137          1           0       15.152929   -1.372215    1.919387
    138          1           0       15.093657   -3.098577    2.325252
    139          1           0       14.924768   -4.821187    0.001857
    140          1           0       15.134238   -5.039895    1.644016
    141          1           0       15.341125   -6.430467    0.496053
    142          1           0       22.130238   -5.152411   -1.606262
    143          1           0       24.276742   -4.285301    0.303006
    144          1           0       21.615954   -6.222402    0.930297
    145          1           0       23.390144   -6.532174    0.662821
    146          1           0       22.272280   -7.067570   -0.492599
    147          1           0       24.830622   -3.328600   -2.316820
    148          1           0       23.740898   -4.541747   -2.668310
    149          1           0       25.781271   -5.861898   -2.743174
    150          1           0       25.865894   -5.682550   -0.956437
    151          1           0       26.678297   -4.533727   -2.039148
    152          1           0       26.165433    0.134344   -1.447476
    153          1           0       26.379569    0.859303    0.110838
    154          1           0       26.242993    1.922777   -1.341829
    155          1           0       22.163390    4.286441    1.225347
    156          1           0       20.153475    7.560333   -0.488371
    157          1           0       21.514506    7.709030   -1.766184
    158          1           0       21.524273    8.415884   -0.134363
 ---------------------------------------------------------------------

 SCF Done:  E(RwB97XD) =  -4070.52832159     A.U. after   19 cycles

 Excitation energies and oscillator strengths:

 Excited State   1:      Singlet-A      1.5769 eV  786.26 nm  f=0.3909  <S**2>=0.000
     309 -> 315        0.17496
     311 -> 313        0.68653
     309 <- 315        0.11859
 This state for optimization and/or second-order correction.
 Total Energy, E(TD-HF/TD-DFT) =  -4070.47037232
 Copying the excited state density for this state as the 1-particle RhoCI density.

 Excited State   2:      Singlet-A      1.6950 eV  731.47 nm  f=0.3785  <S**2>=0.000
     310 -> 316       -0.16832
     312 -> 314        0.68667
     310 <- 316       -0.11047

 Excited State   3:      Singlet-A      2.0921 eV  592.63 nm  f=0.1444  <S**2>=0.000
     309 -> 313        0.64988
     311 -> 315       -0.25879

 Excited State   4:      Singlet-A      2.1227 eV  584.08 nm  f=0.2212  <S**2>=0.000
     310 -> 314        0.67196
     312 -> 316        0.20544

 Excited State   5:      Singlet-A      3.0074 eV  412.26 nm  f=0.0074  <S**2>=0.000
     307 -> 313        0.21843
     308 -> 313        0.63560
     308 -> 317        0.12430

 The electronic state is 1-A.
 Alpha  occ. eigenvalues --  -46.96349 -46.95762 -19.31528 -19.29169 -19.25378
 Alpha  occ. eigenvalues --  -19.24604 -19.24293 -19.23660 -19.23431 -19.22229
 Alpha  occ. eigenvalues --  -14.47225 -14.46700 -14.46367 -14.44713 -14.44659
 Alpha  occ. eigenvalues --  -14.44394 -14.44346 -14.44335 -10.44447 -10.42301
 Alpha  occ. eigenvalues --  -10.39912 -10.39102 -10.38404 -10.37511 -10.36618
 Alpha  occ. eigenvalues --  -10.36194 -10.35708 -10.35347 -10.35272 -10.35075
 Alpha  occ. eigenvalues --  -10.35062 -10.34972 -10.34906 -10.34744 -10.34717
 Alpha  occ. eigenvalues --  -10.34200 -10.34054 -10.34004 -10.33809 -10.33563
 Alpha  occ. eigenvalues --  -10.33494 -10.33334 -10.33092 -10.33003 -10.32934
 Alpha  occ. eigenvalues --  -10.32826 -10.32628 -10.32556 -10.32413 -10.32411
 Alpha  occ. eigenvalues --  -10.32245 -10.32221 -10.32109 -10.32042 -10.31972
 Alpha  occ. eigenvalues --  -10.31951 -10.31922 -10.31878 -10.31640 -10.31608
 Alpha  occ. eigenvalues --  -10.31327 -10.31293 -10.31278 -10.31277 -10.30837
 Alpha  occ. eigenvalues --  -10.30802 -10.30799 -10.30759 -10.30742 -10.30542
 Alpha  occ. eigenvalues --  -10.30372 -10.30252 -10.30250 -10.30145 -10.30114
 Alpha  occ. eigenvalues --  -10.29995 -10.29958 -10.29860 -10.29671 -10.29580
 Alpha  occ. eigenvalues --  -10.29529 -10.29376 -10.29330 -10.29060 -10.29047
 Alpha  occ. eigenvalues --  -10.28983  -3.22284  -3.21740  -1.95825  -1.95440
 Alpha  occ. eigenvalues --   -1.95314  -1.95223  -1.94872  -1.94700  -1.17940
 Alpha  occ. eigenvalues --   -1.16299  -1.14405  -1.13623  -1.13023  -1.11707
 Alpha  occ. eigenvalues --   -1.09541  -1.08510  -1.07805  -1.07260  -1.06953
 Alpha  occ. eigenvalues --   -1.06896  -1.06480  -1.04984  -1.04211  -1.02940
 Alpha  occ. eigenvalues --   -0.95795  -0.93168  -0.91768  -0.91124  -0.90794
 Alpha  occ. eigenvalues --   -0.90678  -0.90364  -0.89963  -0.89861  -0.89748
 Alpha  occ. eigenvalues --   -0.89600  -0.89237  -0.87838  -0.87105  -0.86505
 Alpha  occ. eigenvalues --   -0.86253  -0.85961  -0.85058  -0.84924  -0.84147
 Alpha  occ. eigenvalues --   -0.84053  -0.83894  -0.82989  -0.82854  -0.82603
 Alpha  occ. eigenvalues --   -0.82356  -0.80750  -0.80517  -0.79802  -0.79015
 Alpha  occ. eigenvalues --   -0.78966  -0.78703  -0.78583  -0.78108  -0.77485
 Alpha  occ. eigenvalues --   -0.77364  -0.75641  -0.74706  -0.73795  -0.73068
 Alpha  occ. eigenvalues --   -0.72021  -0.71434  -0.71186  -0.70699  -0.70405
 Alpha  occ. eigenvalues --   -0.69949  -0.69257  -0.68615  -0.68253  -0.68032
 Alpha  occ. eigenvalues --   -0.67560  -0.67514  -0.66959  -0.66745  -0.66434
 Alpha  occ. eigenvalues --   -0.66216  -0.65656  -0.63470  -0.63028  -0.62337
 Alpha  occ. eigenvalues --   -0.62049  -0.61508  -0.61038  -0.60908  -0.60102
 Alpha  occ. eigenvalues --   -0.60010  -0.59629  -0.59507  -0.59264  -0.59150
 Alpha  occ. eigenvalues --   -0.58554  -0.58553  -0.57852  -0.57616  -0.57459
 Alpha  occ. eigenvalues --   -0.57312  -0.57117  -0.56449  -0.56010  -0.55897
 Alpha  occ. eigenvalues --   -0.55810  -0.55345  -0.55335  -0.55142  -0.54997
 Alpha  occ. eigenvalues --   -0.54575  -0.54479  -0.54355  -0.54099  -0.53909
 Alpha  occ. eigenvalues --   -0.53802  -0.53782  -0.53751  -0.53377  -0.53203
 Alpha  occ. eigenvalues --   -0.53094  -0.52694  -0.52599  -0.52508  -0.52163
 Alpha  occ. eigenvalues --   -0.52050  -0.51962  -0.51777  -0.51678  -0.51616
 Alpha  occ. eigenvalues --   -0.51515  -0.51501  -0.51173  -0.51152  -0.50993
 Alpha  occ. eigenvalues --   -0.50735  -0.50629  -0.50214  -0.50188  -0.49920
 Alpha  occ. eigenvalues --   -0.49870  -0.49676  -0.49531  -0.49446  -0.49339
 Alpha  occ. eigenvalues --   -0.49332  -0.49203  -0.49089  -0.48867  -0.48426
 Alpha  occ. eigenvalues --   -0.48354  -0.48122  -0.48112  -0.47690  -0.47628
 Alpha  occ. eigenvalues --   -0.47520  -0.47437  -0.47313  -0.47285  -0.47017
 Alpha  occ. eigenvalues --   -0.46868  -0.46856  -0.46712  -0.46501  -0.46407
 Alpha  occ. eigenvalues --   -0.46174  -0.45987  -0.45919  -0.45403  -0.45354
 Alpha  occ. eigenvalues --   -0.45252  -0.45032  -0.44886  -0.44712  -0.44707
 Alpha  occ. eigenvalues --   -0.44641  -0.44599  -0.44424  -0.44139  -0.44094
 Alpha  occ. eigenvalues --   -0.43982  -0.43755  -0.43699  -0.43465  -0.43254
 Alpha  occ. eigenvalues --   -0.43183  -0.42891  -0.42531  -0.42503  -0.42248
 Alpha  occ. eigenvalues --   -0.42230  -0.42071  -0.41765  -0.41742  -0.40994
 Alpha  occ. eigenvalues --   -0.40679  -0.40235  -0.39996  -0.39547  -0.39487
 Alpha  occ. eigenvalues --   -0.39076  -0.39028  -0.38449  -0.38206  -0.38147
 Alpha  occ. eigenvalues --   -0.37697  -0.37588  -0.36851  -0.35903  -0.35537
 Alpha  occ. eigenvalues --   -0.35369  -0.35018  -0.34739  -0.33954  -0.33850
 Alpha  occ. eigenvalues --   -0.33599  -0.33258  -0.33117  -0.32743  -0.32632
 Alpha  occ. eigenvalues --   -0.31773  -0.31576  -0.30444  -0.26435  -0.25444
 Alpha  occ. eigenvalues --   -0.23570  -0.23445
 Alpha virt. eigenvalues --   -0.08088  -0.07403  -0.00071   0.01595   0.02287
 Alpha virt. eigenvalues --    0.03062   0.04030   0.04733   0.04785   0.05508
 Alpha virt. eigenvalues --    0.06602   0.06755   0.07310   0.07750   0.08447

 Mulliken charges:
               1
     1  Mg   0.958738
     2  C    0.008441
     3  C   -0.083333
     4  C   -0.083909
     5  C   -0.096642
     6  N   -0.330818
     7  C   -0.005412
     8  C   -0.018928
     9  C   -0.091843
    10  C    0.035729
    11  C    0.041611
    12  C   -0.010578
    13  C   -0.168830
    14  H    0.029969
    15  N   -0.448501
    16  C    0.171466
    17  C   -0.181694
    18  C   -0.096651
    19  C    0.137476
    20  C    0.086272
    21  C    0.013524
    22  O   -0.209753
    23  C   -0.015036
    24  N   -0.361638
    25  C    0.084155
    26  C   -0.139051
    27  C   -0.084221
    28  C    0.074753
    29  C    0.050108
    30  C   -0.015391
    31  C   -0.044721
    32  N   -0.442152
    33  C    0.139369
    34  C   -0.188109
    35  C    0.058631
    36  C    0.109800
    37  C    0.078531
    38  C    0.062348
    39  O   -0.216542
    40  C   -0.121615
    41  C    0.312956
    42  O   -0.256650
    43  O   -0.379225
    44  C    0.145011
    45  H    0.008477
    46  H    0.003821
    47  H   -0.014227
    48  H    0.042110
    49  H    0.049757
    50  H    0.035512
    51  H    0.041465
    52  H    0.026942
    53  H    0.059152
    54  H    0.045104
    55  H    0.064530
    56  H    0.055809
    57  H    0.031712
    58  H    0.063250
    59  H    0.053831
    60  H    0.032405
    61  H    0.070932
    62  H    0.058044
    63  H    0.056100
    64  H    0.040621
    65  H    0.038907
    66  H    0.039585
    67  H    0.032355
    68  H    0.030252
    69  H    0.027721
    70  H    0.056419
    71  H    0.025831
    72  H    0.030846
    73  H    0.060910
    74  H    0.060815
    75  H    0.031926
    76  H    0.065612
    77  H    0.053601
    78  H    0.053926
    79  H    0.058301
    80  Mg   0.973646
    81  C   -0.021236
    82  C   -0.054204
    83  C   -0.053612
    84  C   -0.109988
    85  N   -0.301955
    86  C   -0.006883
    87  C   -0.073334
    88  C   -0.132729
    89  C    0.070183
    90  C    0.036899
    91  C    0.034057
    92  C   -0.096287
    93  H    0.049907
    94  N   -0.460633
    95  C    0.091502
    96  C   -0.147477
    97  C   -0.078558
    98  C    0.134336
    99  C    0.063295
   100  C    0.051921
   101  O   -0.201406
   102  C   -0.020713
   103  N   -0.271104
   104  C    0.014728
   105  C   -0.095346
   106  C   -0.044725
   107  C    0.058103
   108  C    0.023230
   109  C   -0.029516
   110  C   -0.028140
   111  N   -0.485286
   112  C    0.125926
   113  C   -0.223675
   114  C   -0.055342
   115  C    0.152263
   116  C    0.077593
   117  C    0.163207
   118  O   -0.174832
   119  C   -0.083144
   120  C    0.267232
   121  O   -0.273059
   122  O   -0.390030
   123  C    0.157567
   124  H   -0.025660
   125  H    0.021037
   126  H   -0.000282
   127  H    0.020572
   128  H    0.035080
   129  H    0.041966
   130  H    0.027838
   131  H    0.045257
   132  H    0.025072
   133  H    0.073844
   134  H    0.043857
   135  H    0.037087
   136  H    0.048578
   137  H    0.053738
   138  H    0.042048
   139  H    0.049916
   140  H    0.042971
   141  H    0.056147
   142  H    0.045877
   143  H    0.031627
   144  H    0.049308
   145  H    0.037520
   146  H    0.032017
   147  H    0.020889
   148  H    0.014737
   149  H    0.040135
   150  H    0.034890
   151  H    0.038228
   152  H    0.028640
   153  H    0.052671
   154  H    0.061902
   155  H    0.080194
   156  H    0.043711
   157  H    0.073790
   158  H    0.042417
 Sum of Mulliken charges =  -0.00000

 Dipole moment (field-independent basis, Debye):
    X=             -6.9313    Y=             -0.4226    Z=              5.7706  Tot=              9.0289
 Quadrupole moment (field-independent basis, Debye-Ang):
   XX=           -605.1009   YY=           -512.2553   ZZ=           -481.0771
   XY=           -104.7674   XZ=            -35.3206   YZ=              5.5295

 Normal termination of Gaussian 16 at Sat Sep 18 22:14:22 2021.
