 Gaussian 16, Revision A.03,
 Gaussian 16:  ES64L-G16RevA.03 25-Dec-2016

 --------------------------------
 #p wB97XD/Def2SVP td=(nstates=5)
 --------------------------------

 --------------------------------
 TDDFT excited states in gaussian
 --------------------------------
 Symbolic Z-matrix:
 Charge =  0 Multiplicity = 1

                         Standard orientation:
 ---------------------------------------------------------------------
 Center     Atomic      Atomic             Coordinates (Angstroms)
 Number     Number       Type             X           Y           Z
 ---------------------------------------------------------------------
      1         12           0       28.693044    0.561234    0.471207
      2          6           0       29.240148   -2.293205   -1.434104
      3          6           0       27.632708    2.178818   -2.287166
      4          6           0       28.911512    3.494065    2.141509
      5          6           0       30.570836   -0.919679    3.085503
      6          7           0       28.417567   -0.094280   -1.534741
      7          6           0       28.534957   -1.328711   -2.135512
      8          6           0       28.147710   -1.241872   -3.637507
      9          6           0       28.203596    0.298543   -3.876616
     10          6           0       27.961118    0.846157   -2.477806
     11          6           0       29.567445    0.825848   -4.446232
     12          6           0       26.848039   -2.043171   -3.835930
     13          6           0       26.828841   -2.879592   -5.058381
     14          1           0       25.852305   -3.966951   -5.046462
     15          7           0       28.108403    2.489950    0.037095
     16          6           0       27.633385    2.931491   -1.156173
     17          6           0       27.039081    4.229476   -0.957392
     18          6           0       27.420241    4.622603    0.376138
     19          6           0       28.262826    3.536873    0.885953
     20          6           0       26.325830    4.982024   -2.022926
     21          6           0       27.210478    5.961573    1.155682
     22          8           0       27.600316    6.129795    2.312926
     23          6           0       26.386544    7.078615    0.578690
     24          7           0       29.928654    1.244229    2.209094
     25          6           0       29.692115    2.530969    2.765275
     26          6           0       30.303626    2.716544    4.114504
     27          6           0       30.611928    1.217345    4.432767
     28          6           0       30.284935    0.431996    3.165394
     29          6           0       31.545938    3.670274    4.131897
     30          6           0       29.780746    0.650979    5.641449
     31          6           0       28.248450    0.871512    5.565219
     32          7           0       29.617953   -1.259646    0.845672
     33          6           0       30.300315   -1.740545    1.973871
     34          6           0       30.688020   -3.068140    1.674869
     35          6           0       30.265234   -3.313914    0.374453
     36          6           0       29.643919   -2.194721   -0.072649
     37          6           0       31.366507   -4.007960    2.619881
     38          6           0       30.315085   -4.254065   -0.644728
     39          8           0       30.831354   -5.386436   -0.651653
     40          6           0       29.637580   -3.693497   -1.931418
     41          6           0       28.469289   -4.695320   -2.190284
     42          8           0       27.453820   -4.818393   -1.482491
     43          8           0       28.770415   -5.418930   -3.339063
     44          6           0       27.933978   -6.617982   -3.663411
     45          1           0       27.402065    2.616505   -3.260738
     46          1           0       28.954385    4.300240    2.877800
     47          1           0       30.966185   -1.494010    3.925986
     48          1           0       28.869982   -1.784814   -4.246199
     49          1           0       27.359745    0.593083   -4.499822
     50          1           0       30.310796    0.067379   -4.693360
     51          1           0       30.093263    1.414294   -3.695423
     52          1           0       29.374378    1.353402   -5.380092
     53          1           0       26.070163   -1.298987   -4.000990
     54          1           0       26.684401   -2.634779   -2.934788
     55          1           0       27.810592   -3.351092   -5.105570
     56          1           0       26.738605   -2.223728   -5.924068
     57          1           0       26.006634    4.323701   -2.830677
     58          1           0       26.918579    5.863192   -2.270769
     59          1           0       25.390580    5.371753   -1.620881
     60          1           0       26.762409    7.974142    1.074044
     61          1           0       25.335922    6.964367    0.846592
     62          1           0       26.539513    7.188173   -0.495397
     63          1           0       29.607453    3.086752    4.868398
     64          1           0       31.676242    1.118326    4.648571
     65          1           0       31.955183    3.735176    3.123365
     66          1           0       32.375255    3.384508    4.779139
     67          1           0       31.354228    4.698192    4.441027
     68          1           0       30.237369    1.072340    6.537186
     69          1           0       30.052599   -0.404388    5.658272
     70          1           0       27.688381   -0.063697    5.579548
     71          1           0       28.059165    1.427112    4.646331
     72          1           0       27.867363    1.464567    6.396040
     73          1           0       32.279347   -4.324539    2.115381
     74          1           0       30.674180   -4.823218    2.829919
     75          1           0       31.700515   -3.567901    3.559583
     76          1           0       30.352781   -3.766445   -2.750296
     77          1           0       28.045222   -7.299379   -2.820257
     78          1           0       28.173426   -7.173051   -4.570366
     79          1           0       26.975288   -6.100593   -3.700864
     80         12           0      -29.443837   -0.257316    0.038787
     81          6           0      -26.264725    0.197101   -1.125952
     82          6           0      -28.130619   -2.766139    2.193755
     83          6           0      -32.481508   -0.462065    1.493623
     84          6           0      -30.374314    2.772711   -1.406995
     85          7           0      -27.261420   -0.936270    0.750760
     86          6           0      -26.189794   -0.754957   -0.071104
     87          6           0      -24.999382   -1.495305    0.472728
     88          6           0      -25.605145   -2.451076    1.590359
     89          6           0      -27.120934   -2.078654    1.547039
     90          6           0      -25.068501   -3.834954    1.639523
     91          6           0      -23.691235   -0.684900    0.916999
     92          6           0      -23.867729    0.699719    1.466224
     93          1           0      -23.137749    1.028566    2.760937
     94          7           0      -30.237080   -1.605646    1.443146
     95          6           0      -29.581420   -2.546903    2.174516
     96          6           0      -30.458024   -3.240440    3.071286
     97          6           0      -31.793190   -2.643365    2.788198
     98          6           0      -31.545875   -1.516454    1.862375
     99          6           0      -30.143216   -4.310526    4.003910
    100          6           0      -33.157057   -3.060632    3.319336
    101          8           0      -33.246141   -3.866714    4.176073
    102          6           0      -34.485279   -2.470728    2.933772
    103          7           0      -31.099119    1.026097    0.142676
    104          6           0      -32.267758    0.609453    0.653597
    105          6           0      -33.363209    1.799329    0.619388
    106          6           0      -32.773388    2.624783   -0.625681
    107          6           0      -31.340779    2.149116   -0.581486
    108          6           0      -34.818004    1.361529    0.428102
    109          6           0      -33.041483    4.136953   -0.520312
    110          6           0      -33.599493    4.919764   -1.714744
    111          7           0      -28.493252    1.264179   -0.961088
    112          6           0      -28.975597    2.431070   -1.540728
    113          6           0      -27.992988    3.062212   -2.333020
    114          6           0      -26.896897    2.217556   -2.272188
    115          6           0      -27.238839    1.112928   -1.414175
    116          6           0      -28.127930    4.318837   -3.136243
    117          6           0      -25.596858    1.910726   -2.703042
    118          8           0      -24.888567    2.573228   -3.458484
    119          6           0      -25.056904    0.712155   -1.871937
    120          6           0      -24.519156   -0.231538   -2.937574
    121          8           0      -23.367621   -0.715954   -2.928637
    122          8           0      -25.561081   -0.537919   -3.780847
    123          6           0      -25.465196   -1.620487   -4.790467
    124          1           0      -27.646756   -3.430898    2.912298
    125          1           0      -33.380683   -0.413393    2.111142
    126          1           0      -30.695633    3.684326   -1.914388
    127          1           0      -24.565764   -2.087222   -0.334150
    128          1           0      -25.314884   -2.012753    2.544764
    129          1           0      -25.843791   -4.599525    1.687655
    130          1           0      -24.303927   -3.954051    2.407226
    131          1           0      -24.563717   -4.057477    0.699381
    132          1           0      -22.970839   -0.519440    0.115820
    133          1           0      -23.224008   -1.189850    1.763051
    134          1           0      -24.894450    1.064186    1.465180
    135          1           0      -23.324655    1.372099    0.801271
    136          1           0      -29.316115   -4.893638    3.600163
    137          1           0      -30.977523   -4.979105    4.212751
    138          1           0      -29.834515   -3.832278    4.934171
    139          1           0      -34.194040   -2.243507    1.907994
    140          1           0      -34.721796   -1.560569    3.484042
    141          1           0      -35.356209   -3.123852    2.991055
    142          1           0      -33.191111    2.382479    1.524562
    143          1           0      -33.093415    2.353085   -1.631292
    144          1           0      -35.090370    1.612059   -0.597519
    145          1           0      -35.435871    1.730631    1.246184
    146          1           0      -34.955302    0.283696    0.509593
    147          1           0      -32.095584    4.599442   -0.237131
    148          1           0      -33.661017    4.303661    0.361000
    149          1           0      -34.456686    5.574190   -1.555759
    150          1           0      -33.771906    4.293439   -2.590990
    151          1           0      -32.718541    5.464501   -2.052777
    152          1           0      -27.555034    4.331062   -4.063779
    153          1           0      -27.807614    5.157962   -2.518259
    154          1           0      -29.147673    4.506452   -3.474971
    155          1           0      -24.281358    1.174512   -1.262534
    156          1           0      -26.390866   -2.187835   -4.885592
    157          1           0      -24.662846   -2.293887   -4.488591
    158          1           0      -25.217844   -1.394349   -5.826911
 ---------------------------------------------------------------------

 SCF Done:  E(RwB97XD) =  -4070.56459113     A.U. after   19 cycles

 Excitation energies and oscillator strengths:

 Excited State   1:      Singlet-A      1.5770 eV  786.21 nm  f=0.3836  <S**2>=0.000
     309 -> 315       -0.17491
     311 -> 313        0.68652
     309 <- 315       -0.11856
 This state for optimization and/or second-order correction.
 Total Energy, E(TD-HF/TD-DFT) =  -4070.50663823
 Copying the excited state density for this state as the 1-particle RhoCI density.

 Excited State   2:      Singlet-A      1.6038 eV  773.05 nm  f=0.3809  <S**2>=0.000
     310 -> 316       -0.16824
     312 -> 314        0.68665
     310 <- 316       -0.11356

 Excited State   3:      Singlet-A      2.0921 eV  592.64 nm  f=0.1442  <S**2>=0.000
     309 -> 313        0.64990
     311 -> 315        0.25882

 Excited State   4:      Singlet-A      2.1619 eV  573.49 nm  f=0.1249  <S**2>=0.000
     310 -> 314        0.64149
     312 -> 316        0.27562

 Excited State   5:      Singlet-A      3.0080 eV  412.18 nm  f=0.0074  <S**2>=0.000
     306 -> 313       -0.21846
     308 -> 313        0.63558
     308 -> 317       -0.12410

 The electronic state is 1-A.
 Alpha  occ. eigenvalues --  -46.96322 -46.94659 -19.31499 -19.29978 -19.25348
 Alpha  occ. eigenvalues --  -19.24972 -19.23727 -19.23630 -19.22743 -19.22203
 Alpha  occ. eigenvalues --  -14.47198 -14.46670 -14.46546 -14.46059 -14.44631
 Alpha  occ. eigenvalues --  -14.44307 -14.43907 -14.43102 -10.44417 -10.43931
 Alpha  occ. eigenvalues --  -10.39225 -10.38374 -10.37659 -10.37485 -10.36590
 Alpha  occ. eigenvalues --  -10.36166 -10.35717 -10.35681 -10.35032 -10.35001
 Alpha  occ. eigenvalues --  -10.34944 -10.34879 -10.34716 -10.34545 -10.34325
 Alpha  occ. eigenvalues --  -10.34221 -10.34203 -10.34171 -10.33466 -10.33358
 Alpha  occ. eigenvalues --  -10.33150 -10.33064 -10.32976 -10.32598 -10.32528
 Alpha  occ. eigenvalues --  -10.32393 -10.32385 -10.32384 -10.32330 -10.32327
 Alpha  occ. eigenvalues --  -10.32197 -10.32014 -10.31962 -10.31939 -10.31894
 Alpha  occ. eigenvalues --  -10.31807 -10.31790 -10.31612 -10.31593 -10.31579
 Alpha  occ. eigenvalues --  -10.31578 -10.31299 -10.31236 -10.31044 -10.30901
 Alpha  occ. eigenvalues --  -10.30776 -10.30774 -10.30771 -10.30728 -10.30712
 Alpha  occ. eigenvalues --  -10.30516 -10.30318 -10.30234 -10.30227 -10.30086
 Alpha  occ. eigenvalues --  -10.29952 -10.29931 -10.29770 -10.29677 -10.29657
 Alpha  occ. eigenvalues --  -10.29643 -10.29626 -10.29387 -10.29022 -10.28956
 Alpha  occ. eigenvalues --  -10.27805  -3.22257  -3.20688  -1.95798  -1.95413
 Alpha  occ. eigenvalues --   -1.95196  -1.94257  -1.93817  -1.93661  -1.17911
 Alpha  occ. eigenvalues --   -1.16587  -1.13597  -1.11677  -1.11649  -1.10180
 Alpha  occ. eigenvalues --   -1.09511  -1.08856  -1.07232  -1.06848  -1.06452
 Alpha  occ. eigenvalues --   -1.05910  -1.05510  -1.04955  -1.04222  -1.04183
 Alpha  occ. eigenvalues --   -0.95766  -0.94535  -0.91740  -0.91004  -0.90904
 Alpha  occ. eigenvalues --   -0.90649  -0.90442  -0.90336  -0.89935  -0.89694
 Alpha  occ. eigenvalues --   -0.89208  -0.89064  -0.88460  -0.87810  -0.86477
 Alpha  occ. eigenvalues --   -0.86477  -0.85933  -0.85431  -0.85029  -0.84120
 Alpha  occ. eigenvalues --   -0.84043  -0.83505  -0.82961  -0.82925  -0.82575
 Alpha  occ. eigenvalues --   -0.82335  -0.80489  -0.80138  -0.79774  -0.78973
 Alpha  occ. eigenvalues --   -0.78938  -0.78846  -0.78676  -0.77946  -0.77457
 Alpha  occ. eigenvalues --   -0.77379  -0.75613  -0.75229  -0.73988  -0.73767
 Alpha  occ. eigenvalues --   -0.71993  -0.71692  -0.71406  -0.70736  -0.70375
 Alpha  occ. eigenvalues --   -0.69506  -0.68587  -0.68473  -0.68226  -0.67532
 Alpha  occ. eigenvalues --   -0.67315  -0.66717  -0.66576  -0.66439  -0.66405
 Alpha  occ. eigenvalues --   -0.66028  -0.65627  -0.63583  -0.62309  -0.61860
 Alpha  occ. eigenvalues --   -0.61744  -0.61479  -0.61121  -0.60880  -0.60421
 Alpha  occ. eigenvalues --   -0.60074  -0.59600  -0.59547  -0.59236  -0.58949
 Alpha  occ. eigenvalues --   -0.58526  -0.57932  -0.57824  -0.57550  -0.57284
 Alpha  occ. eigenvalues --   -0.57254  -0.57089  -0.56957  -0.56711  -0.56422
 Alpha  occ. eigenvalues --   -0.55981  -0.55426  -0.55306  -0.55114  -0.54951
 Alpha  occ. eigenvalues --   -0.54881  -0.54754  -0.54450  -0.54366  -0.54070
 Alpha  occ. eigenvalues --   -0.53841  -0.53776  -0.53753  -0.53620  -0.53381
 Alpha  occ. eigenvalues --   -0.53349  -0.53065  -0.52667  -0.52570  -0.52405
 Alpha  occ. eigenvalues --   -0.52261  -0.51934  -0.51650  -0.51544  -0.51473
 Alpha  occ. eigenvalues --   -0.51322  -0.51145  -0.51081  -0.50966  -0.50804
 Alpha  occ. eigenvalues --   -0.50672  -0.50436  -0.50160  -0.50014  -0.49890
 Alpha  occ. eigenvalues --   -0.49841  -0.49624  -0.49504  -0.49310  -0.49308
 Alpha  occ. eigenvalues --   -0.49175  -0.49061  -0.48988  -0.48840  -0.48503
 Alpha  occ. eigenvalues --   -0.48397  -0.48191  -0.48084  -0.47876  -0.47630
 Alpha  occ. eigenvalues --   -0.47598  -0.47491  -0.47378  -0.47285  -0.46988
 Alpha  occ. eigenvalues --   -0.46839  -0.46531  -0.46391  -0.46145  -0.46062
 Alpha  occ. eigenvalues --   -0.45960  -0.45669  -0.45366  -0.45362  -0.45326
 Alpha  occ. eigenvalues --   -0.45103  -0.45005  -0.44987  -0.44683  -0.44584
 Alpha  occ. eigenvalues --   -0.44572  -0.44395  -0.44287  -0.44066  -0.43956
 Alpha  occ. eigenvalues --   -0.43844  -0.43739  -0.43670  -0.43495  -0.43437
 Alpha  occ. eigenvalues --   -0.43226  -0.43042  -0.42794  -0.42593  -0.42475
 Alpha  occ. eigenvalues --   -0.42201  -0.42141  -0.41850  -0.41040  -0.40965
 Alpha  occ. eigenvalues --   -0.40650  -0.40167  -0.39968  -0.39954  -0.39458
 Alpha  occ. eigenvalues --   -0.39273  -0.38999  -0.38874  -0.38525  -0.38175
 Alpha  occ. eigenvalues --   -0.38070  -0.37559  -0.36822  -0.36152  -0.36090
 Alpha  occ. eigenvalues --   -0.35874  -0.35455  -0.35340  -0.33821  -0.33523
 Alpha  occ. eigenvalues --   -0.33088  -0.32722  -0.32602  -0.32035  -0.31901
 Alpha  occ. eigenvalues --   -0.31549  -0.31524  -0.30418  -0.26407  -0.26144
 Alpha  occ. eigenvalues --   -0.23542  -0.22985
 Alpha virt. eigenvalues --   -0.08060  -0.07341  -0.00043   0.00447   0.02316
 Alpha virt. eigenvalues --    0.02619   0.04057   0.04479   0.04812   0.05415
 Alpha virt. eigenvalues --    0.06632   0.07148   0.07338   0.07441   0.08479

 Mulliken charges:
               1
     1  Mg   0.956067
     2  C   -0.066839
     3  C   -0.119068
     4  C   -0.020892
     5  C   -0.102800
     6  N   -0.406810
     7  C    0.020098
     8  C   -0.101734
     9  C   -0.087763
    10  C    0.033975
    11  C    0.034853
    12  C    0.039966
    13  C   -0.123677
    14  H    0.052832
    15  N   -0.463856
    16  C    0.229517
    17  C   -0.175555
    18  C   -0.078332
    19  C    0.188187
    20  C    0.069208
    21  C    0.055760
    22  O   -0.248568
    23  C   -0.006146
    24  N   -0.316640
    25  C   -0.057307
    26  C   -0.058215
    27  C   -0.099738
    28  C    0.112034
    29  C    0.018217
    30  C   -0.021912
    31  C   -0.053839
    32  N   -0.435087
    33  C    0.116840
    34  C   -0.197841
    35  C    0.053987
    36  C    0.194343
    37  C    0.092953
    38  C    0.016658
    39  O   -0.242787
    40  C   -0.028673
    41  C    0.287455
    42  O   -0.268719
    43  O   -0.389774
    44  C    0.142337
    45  H   -0.000935
    46  H    0.018631
    47  H    0.002548
    48  H    0.020118
    49  H    0.019452
    50  H    0.035607
    51  H    0.053065
    52  H    0.043471
    53  H    0.021634
    54  H    0.065534
    55  H    0.039924
    56  H    0.040155
    57  H    0.041106
    58  H    0.067684
    59  H    0.043139
    60  H    0.054700
    61  H    0.075069
    62  H    0.027158
    63  H    0.045811
    64  H    0.030923
    65  H    0.039592
    66  H    0.032767
    67  H    0.042654
    68  H    0.031239
    69  H    0.022870
    70  H    0.046451
    71  H    0.045735
    72  H    0.042277
    73  H    0.058138
    74  H    0.068003
    75  H    0.019624
    76  H    0.066932
    77  H    0.068303
    78  H    0.069545
    79  H    0.058361
    80  Mg   0.958690
    81  C    0.008410
    82  C   -0.083314
    83  C   -0.083830
    84  C   -0.096737
    85  N   -0.330783
    86  C   -0.005459
    87  C   -0.018832
    88  C   -0.091853
    89  C    0.035719
    90  C    0.041616
    91  C   -0.010933
    92  C   -0.168643
    93  H    0.029999
    94  N   -0.448538
    95  C    0.171506
    96  C   -0.181697
    97  C   -0.096676
    98  C    0.137271
    99  C    0.086330
   100  C    0.013495
   101  O   -0.209779
   102  C   -0.015053
   103  N   -0.361666
   104  C    0.084174
   105  C   -0.139085
   106  C   -0.084201
   107  C    0.074768
   108  C    0.050072
   109  C   -0.015436
   110  C   -0.044728
   111  N   -0.442005
   112  C    0.139393
   113  C   -0.188128
   114  C    0.058711
   115  C    0.109797
   116  C    0.078532
   117  C    0.062359
   118  O   -0.216467
   119  C   -0.121422
   120  C    0.313005
   121  O   -0.256679
   122  O   -0.379218
   123  C    0.145012
   124  H    0.008437
   125  H    0.003776
   126  H   -0.014202
   127  H    0.042136
   128  H    0.049766
   129  H    0.035493
   130  H    0.041455
   131  H    0.026932
   132  H    0.059218
   133  H    0.045129
   134  H    0.064498
   135  H    0.055822
   136  H    0.031679
   137  H    0.063191
   138  H    0.053817
   139  H    0.032412
   140  H    0.070932
   141  H    0.058007
   142  H    0.056116
   143  H    0.040613
   144  H    0.038899
   145  H    0.039578
   146  H    0.032348
   147  H    0.030291
   148  H    0.027724
   149  H    0.056414
   150  H    0.025822
   151  H    0.030879
   152  H    0.060944
   153  H    0.060876
   154  H    0.031911
   155  H    0.065592
   156  H    0.053573
   157  H    0.053922
   158  H    0.058304
 Sum of Mulliken charges =  -0.00000

 Dipole moment (field-independent basis, Debye):
    X=             -4.9156    Y=              3.4514    Z=             -3.7433  Tot=              7.0773
 Quadrupole moment (field-independent basis, Debye-Ang):
   XX=           -367.0865   YY=           -521.5687   ZZ=           -485.3617
   XY=             30.9274   XZ=             38.0804   YZ=             11.4925

 Normal termination of Gaussian 16 at Sun Sep 19 08:06:22 2021.
