 Gaussian 16, Revision A.03,
 Gaussian 16:  ES64L-G16RevA.03 25-Dec-2016

 --------------------------------
 #p wB97XD/Def2SVP td=(nstates=5)
 --------------------------------

 --------------------------------
 TDDFT excited states in gaussian
 --------------------------------
 Symbolic Z-matrix:
 Charge =  0 Multiplicity = 1

                         Standard orientation:
 ---------------------------------------------------------------------
 Center     Atomic      Atomic             Coordinates (Angstroms)
 Number     Number       Type             X           Y           Z
 ---------------------------------------------------------------------
      1         12           0        8.820653    0.406611   -0.020486
      2          6           0        6.434877   -2.242248   -0.342718
      3          6           0        6.195823    2.493647    0.610079
      4          6           0       10.853912    2.834986   -0.180080
      5          6           0       11.070895   -1.607195   -1.760216
      6          7           0        6.638527    0.051876    0.094120
      7          6           0        5.857427   -1.020510    0.010200
      8          6           0        4.377243   -0.739279    0.406861
      9          6           0        4.333860    0.828819    0.121930
     10          6           0        5.803978    1.152698    0.321383
     11          6           0        3.944180    1.177138   -1.311013
     12          6           0        4.095278   -1.055675    1.914216
     13          6           0        2.615272   -1.121134    2.302357
     14          1           0        2.197003   -2.086314    3.307756
     15          7           0        8.658305    2.259412    0.645564
     16          6           0        7.509858    2.945571    0.858965
     17          6           0        7.917227    4.278270    1.353583
     18          6           0        9.398197    4.376249    1.230208
     19          6           0        9.697249    3.155078    0.526869
     20          6           0        6.953168    5.277059    1.916398
     21          6           0       10.385853    5.411879    1.666257
     22          8           0       11.596710    5.412441    1.255893
     23          6           0        9.869287    6.490745    2.527796
     24          7           0       10.622001    0.685925   -1.037720
     25          6           0       11.331931    1.809577   -0.888092
     26          6           0       12.703676    1.671531   -1.479020
     27          6           0       12.870968    0.127996   -1.852202
     28          6           0       11.454910   -0.363660   -1.463198
     29          6           0       12.987608    2.530105   -2.719280
     30          6           0       14.096974   -0.610126   -1.258483
     31          6           0       13.949921   -0.724383    0.242324
     32          7           0        8.852794   -1.636765   -0.751667
     33          6           0        9.884204   -2.259242   -1.469574
     34          6           0        9.403877   -3.603806   -1.837679
     35          6           0        8.111814   -3.664371   -1.319266
     36          6           0        7.794883   -2.425992   -0.691361
     37          6           0       10.117588   -4.560687   -2.611908
     38          6           0        6.916244   -4.478333   -1.171164
     39          8           0        6.628745   -5.650158   -1.419488
     40          6           0        5.738838   -3.547212   -0.639605
     41          6           0        5.072556   -4.264532    0.502686
     42          8           0        5.679718   -4.462996    1.574756
     43          8           0        3.762043   -4.391631    0.243953
     44          6           0        3.036477   -5.069108    1.351533
     45          1           0        5.440075    3.281180    0.586012
     46          1           0       11.625946    3.607094   -0.164189
     47          1           0       11.748807   -2.322232   -2.229906
     48          1           0        3.636780   -1.250165   -0.208877
     49          1           0        3.726192    1.358976    0.855002
     50          1           0        3.886080    0.286035   -1.935896
     51          1           0        4.727189    1.844532   -1.671533
     52          1           0        3.022082    1.758606   -1.331227
     53          1           0        4.409759   -0.208833    2.524150
     54          1           0        4.587566   -1.981915    2.212641
     55          1           0        1.974820   -1.184586    1.422185
     56          1           0        2.342201   -0.174322    2.768384
     57          1           0        5.920390    4.989757    1.723081
     58          1           0        7.087774    6.201116    1.354518
     59          1           0        7.126794    5.462771    2.976444
     60          1           0        9.069655    7.016572    2.005643
     61          1           0       10.734501    7.088225    2.812879
     62          1           0        9.416410    6.047681    3.415233
     63          1           0       13.470321    1.949575   -0.756959
     64          1           0       12.963631   -0.025065   -2.927684
     65          1           0       13.848517    3.189686   -2.607495
     66          1           0       12.086793    3.098417   -2.949161
     67          1           0       13.130296    1.967685   -3.641636
     68          1           0       15.008724   -0.045120   -1.449339
     69          1           0       14.235696   -1.611347   -1.666605
     70          1           0       14.320543    0.236662    0.597097
     71          1           0       14.561155   -1.543258    0.623175
     72          1           0       12.902408   -0.797916    0.535231
     73          1           0        9.975061   -5.521162   -2.116789
     74          1           0       11.174425   -4.304272   -2.682274
     75          1           0        9.601852   -4.472064   -3.567951
     76          1           0        5.059676   -3.391714   -1.477269
     77          1           0        2.523352   -5.928860    0.920531
     78          1           0        2.426436   -4.305818    1.834901
     79          1           0        3.655080   -5.555803    2.106381
     80         12           0       -8.779697    0.274580   -0.484608
     81          6           0       -7.204319   -1.218517    2.287086
     82          6           0       -8.258235    3.324805    1.102217
     83          6           0       -9.841546    1.840271   -3.225530
     84          6           0       -8.339092   -2.708966   -2.201498
     85          7           0       -7.667866    0.925198    1.428473
     86          6           0       -7.206018    0.167610    2.487079
     87          6           0       -6.997052    0.922040    3.783305
     88          6           0       -7.358920    2.378739    3.407389
     89          6           0       -7.773636    2.249899    1.905011
     90          6           0       -8.493995    3.021392    4.303581
     91          6           0       -5.539891    0.845470    4.424367
     92          6           0       -4.339737    0.712552    3.472754
     93          1           0       -3.457553    1.970106    3.216068
     94          7           0       -9.017638    2.258154   -0.970938
     95          6           0       -8.810365    3.350345   -0.177286
     96          6           0       -9.247893    4.567276   -0.875589
     97          6           0       -9.723282    4.150342   -2.156558
     98          6           0       -9.521730    2.668810   -2.157237
     99          6           0       -9.189568    5.960595   -0.260747
    100          6           0      -10.176113    5.240357   -3.198159
    101          8           0      -10.069007    6.416386   -2.879512
    102          6           0      -10.664776    4.809679   -4.644800
    103          7           0       -8.923217   -0.315099   -2.424212
    104          6           0       -9.554007    0.470923   -3.385833
    105          6           0       -9.778181   -0.374375   -4.763384
    106          6           0       -9.104525   -1.792331   -4.348880
    107          6           0       -8.781369   -1.581323   -2.904726
    108          6           0      -11.278623   -0.478273   -5.166415
    109          6           0       -7.816003   -2.201295   -5.183567
    110          6           0       -7.760186   -3.593070   -5.832296
    111          7           0       -8.055407   -1.660428   -0.048431
    112          6           0       -7.913748   -2.784753   -0.820751
    113          6           0       -7.288129   -3.842485    0.000684
    114          6           0       -7.110061   -3.260197    1.284296
    115          6           0       -7.556952   -1.915239    1.157731
    116          6           0       -6.900339   -5.230845   -0.426988
    117          6           0       -6.542646   -3.536569    2.617523
    118          8           0       -6.115543   -4.569521    3.153672
    119          6           0       -6.781295   -2.238395    3.374221
    120          6           0       -7.689247   -2.388538    4.461090
    121          8           0       -8.934905   -2.431913    4.288579
    122          8           0       -7.012953   -2.439700    5.696144
    123          6           0       -7.807620   -2.428344    6.920133
    124          1           0       -8.279844    4.286634    1.618185
    125          1           0      -10.338523    2.295679   -4.084152
    126          1           0       -8.291099   -3.625418   -2.792579
    127          1           0       -7.720775    0.451839    4.447987
    128          1           0       -6.411056    2.914845    3.376754
    129          1           0       -8.063306    3.804752    4.927181
    130          1           0       -8.891177    2.207674    4.910976
    131          1           0       -9.275933    3.473466    3.692510
    132          1           0       -5.610108   -0.083795    4.991154
    133          1           0       -5.412565    1.676130    5.118931
    134          1           0       -4.661538    0.343109    2.498505
    135          1           0       -3.701842   -0.088193    3.844581
    136          1           0       -8.371732    6.584970   -0.620537
    137          1           0       -9.307964    5.916556    0.821981
    138          1           0      -10.098449    6.519000   -0.484162
    139          1           0      -11.384257    4.002358   -4.506032
    140          1           0       -9.787014    4.476275   -5.197763
    141          1           0      -10.970446    5.643960   -5.276180
    142          1           0       -9.320565    0.220021   -5.553634
    143          1           0       -9.889681   -2.545875   -4.414561
    144          1           0      -11.657910   -1.419281   -4.768532
    145          1           0      -11.438678   -0.356248   -6.237735
    146          1           0      -11.899679    0.331704   -4.784245
    147          1           0       -6.959332   -2.042621   -4.527770
    148          1           0       -7.833263   -1.456455   -5.979181
    149          1           0       -6.739187   -3.894757   -6.067674
    150          1           0       -8.346652   -3.447154   -6.739137
    151          1           0       -8.215364   -4.249637   -5.090491
    152          1           0       -6.731778   -5.138024   -1.499529
    153          1           0       -7.824528   -5.786721   -0.269055
    154          1           0       -6.106635   -5.694876    0.159252
    155          1           0       -5.774622   -2.006254    3.721111
    156          1           0       -8.457495   -3.283896    7.104153
    157          1           0       -8.426079   -1.530924    6.953429
    158          1           0       -7.111502   -2.226937    7.734518
 ---------------------------------------------------------------------

 SCF Done:  E(RwB97XD) =  -4070.60712905     A.U. after   20 cycles

 Excitation energies and oscillator strengths:

 Excited State   1:      Singlet-A      1.6205 eV  765.09 nm  f=0.2966  <S**2>=0.000
     310 -> 316       -0.17978
     311 -> 313        0.67739
     310 <- 316       -0.11336
 This state for optimization and/or second-order correction.
 Total Energy, E(TD-HF/TD-DFT) =  -4070.54757648
 Copying the excited state density for this state as the 1-particle RhoCI density.

 Excited State   2:      Singlet-A      1.6640 eV  745.09 nm  f=0.4439  <S**2>=0.000
     309 -> 315       -0.18547
     312 -> 314        0.67686
     309 <- 315       -0.11614

 Excited State   3:      Singlet-A      2.1380 eV  579.92 nm  f=0.0987  <S**2>=0.000
     310 -> 313        0.63848
     311 -> 316        0.28142

 Excited State   4:      Singlet-A      2.2609 eV  548.39 nm  f=0.0687  <S**2>=0.000
     309 -> 314        0.61509
     312 -> 315        0.33673

 Excited State   5:      Singlet-A      3.4621 eV  358.12 nm  f=0.0000  <S**2>=0.000
     312 -> 313        0.70701

 The electronic state is 1-A.
 Alpha  occ. eigenvalues --  -46.95452 -46.94027 -19.31309 -19.31183 -19.25360
 Alpha  occ. eigenvalues --  -19.24802 -19.24428 -19.23826 -19.23801 -19.23110
 Alpha  occ. eigenvalues --  -14.47468 -14.46939 -14.46825 -14.45954 -14.44728
 Alpha  occ. eigenvalues --  -14.44062 -14.43920 -14.43056 -10.44052 -10.42773
 Alpha  occ. eigenvalues --  -10.40663 -10.39556 -10.39347 -10.38295 -10.36132
 Alpha  occ. eigenvalues --  -10.35990 -10.35600 -10.35340 -10.35195 -10.35171
 Alpha  occ. eigenvalues --  -10.34796 -10.34778 -10.34764 -10.34506 -10.34445
 Alpha  occ. eigenvalues --  -10.34270 -10.34105 -10.34070 -10.33799 -10.33731
 Alpha  occ. eigenvalues --  -10.33504 -10.33273 -10.33149 -10.32727 -10.32716
 Alpha  occ. eigenvalues --  -10.32673 -10.32563 -10.32485 -10.32434 -10.32295
 Alpha  occ. eigenvalues --  -10.32264 -10.32228 -10.32060 -10.32016 -10.31983
 Alpha  occ. eigenvalues --  -10.31780 -10.31769 -10.31686 -10.31613 -10.31600
 Alpha  occ. eigenvalues --  -10.31468 -10.31426 -10.31402 -10.31392 -10.31342
 Alpha  occ. eigenvalues --  -10.31169 -10.31059 -10.30918 -10.30862 -10.30824
 Alpha  occ. eigenvalues --  -10.30615 -10.30566 -10.30473 -10.30201 -10.30006
 Alpha  occ. eigenvalues --  -10.29965 -10.29942 -10.29898 -10.29840 -10.29591
 Alpha  occ. eigenvalues --  -10.29589 -10.29394 -10.29200 -10.28766 -10.28708
 Alpha  occ. eigenvalues --  -10.28400  -3.21518  -3.20186  -1.95063  -1.94656
 Alpha  occ. eigenvalues --   -1.94492  -1.93763  -1.93329  -1.93167  -1.18638
 Alpha  occ. eigenvalues --   -1.17302  -1.12801  -1.11463  -1.10735  -1.09377
 Alpha  occ. eigenvalues --   -1.09348  -1.08667  -1.06461  -1.06320  -1.05764
 Alpha  occ. eigenvalues --   -1.05669  -1.05158  -1.04772  -1.04336  -1.04078
 Alpha  occ. eigenvalues --   -0.95303  -0.93815  -0.91317  -0.91210  -0.90924
 Alpha  occ. eigenvalues --   -0.90916  -0.90105  -0.90078  -0.89691  -0.89479
 Alpha  occ. eigenvalues --   -0.89137  -0.88890  -0.88174  -0.87703  -0.86748
 Alpha  occ. eigenvalues --   -0.86634  -0.85933  -0.85719  -0.84862  -0.84810
 Alpha  occ. eigenvalues --   -0.84435  -0.83742  -0.83374  -0.83108  -0.82429
 Alpha  occ. eigenvalues --   -0.82222  -0.80674  -0.80242  -0.79328  -0.79032
 Alpha  occ. eigenvalues --   -0.78888  -0.78710  -0.78594  -0.77720  -0.77024
 Alpha  occ. eigenvalues --   -0.76711  -0.74649  -0.74486  -0.73897  -0.73518
 Alpha  occ. eigenvalues --   -0.71709  -0.71440  -0.71037  -0.70708  -0.70517
 Alpha  occ. eigenvalues --   -0.69540  -0.69036  -0.68998  -0.67836  -0.67362
 Alpha  occ. eigenvalues --   -0.67088  -0.66757  -0.66717  -0.66469  -0.66364
 Alpha  occ. eigenvalues --   -0.66127  -0.64594  -0.64129  -0.62403  -0.62342
 Alpha  occ. eigenvalues --   -0.61764  -0.61635  -0.61189  -0.60863  -0.60811
 Alpha  occ. eigenvalues --   -0.60383  -0.59897  -0.59420  -0.59366  -0.59157
 Alpha  occ. eigenvalues --   -0.58280  -0.58189  -0.57699  -0.57696  -0.57380
 Alpha  occ. eigenvalues --   -0.57144  -0.57068  -0.56525  -0.56337  -0.56308
 Alpha  occ. eigenvalues --   -0.55868  -0.55679  -0.55138  -0.55134  -0.55042
 Alpha  occ. eigenvalues --   -0.54746  -0.54627  -0.54570  -0.54459  -0.54232
 Alpha  occ. eigenvalues --   -0.54218  -0.53734  -0.53691  -0.53399  -0.53316
 Alpha  occ. eigenvalues --   -0.53042  -0.53013  -0.52812  -0.52447  -0.52392
 Alpha  occ. eigenvalues --   -0.52101  -0.51847  -0.51783  -0.51488  -0.51419
 Alpha  occ. eigenvalues --   -0.51355  -0.51328  -0.51064  -0.51060  -0.50884
 Alpha  occ. eigenvalues --   -0.50629  -0.50446  -0.50385  -0.50328  -0.50274
 Alpha  occ. eigenvalues --   -0.50234  -0.49506  -0.49418  -0.49355  -0.49133
 Alpha  occ. eigenvalues --   -0.48720  -0.48589  -0.48538  -0.48340  -0.48315
 Alpha  occ. eigenvalues --   -0.48256  -0.48207  -0.47990  -0.47855  -0.47603
 Alpha  occ. eigenvalues --   -0.47477  -0.47063  -0.47011  -0.46899  -0.46727
 Alpha  occ. eigenvalues --   -0.46616  -0.46380  -0.46305  -0.46292  -0.46033
 Alpha  occ. eigenvalues --   -0.45948  -0.45869  -0.45821  -0.45351  -0.45238
 Alpha  occ. eigenvalues --   -0.45208  -0.45177  -0.45047  -0.44850  -0.44805
 Alpha  occ. eigenvalues --   -0.44521  -0.44506  -0.44446  -0.44334  -0.44208
 Alpha  occ. eigenvalues --   -0.43806  -0.43708  -0.43601  -0.43290  -0.43121
 Alpha  occ. eigenvalues --   -0.42920  -0.42762  -0.42649  -0.42620  -0.42349
 Alpha  occ. eigenvalues --   -0.42300  -0.41967  -0.41890  -0.41749  -0.41294
 Alpha  occ. eigenvalues --   -0.41079  -0.40262  -0.39819  -0.39639  -0.39547
 Alpha  occ. eigenvalues --   -0.39322  -0.39256  -0.39160  -0.39056  -0.38830
 Alpha  occ. eigenvalues --   -0.38562  -0.38064  -0.36903  -0.36469  -0.36181
 Alpha  occ. eigenvalues --   -0.35641  -0.35641  -0.35226  -0.33701  -0.33395
 Alpha  occ. eigenvalues --   -0.33259  -0.33184  -0.33090  -0.32608  -0.31927
 Alpha  occ. eigenvalues --   -0.31888  -0.31521  -0.31379  -0.26235  -0.25902
 Alpha  occ. eigenvalues --   -0.22822  -0.22803
 Alpha virt. eigenvalues --   -0.07007  -0.06673  -0.00052   0.00279   0.02082
 Alpha virt. eigenvalues --    0.02175   0.03942   0.04415   0.04774   0.05416
 Alpha virt. eigenvalues --    0.06364   0.07219   0.07311   0.07414   0.07499

 Mulliken charges:
               1
     1  Mg   0.978474
     2  C   -0.019904
     3  C   -0.101293
     4  C   -0.061489
     5  C   -0.071254
     6  N   -0.323283
     7  C   -0.008564
     8  C   -0.058044
     9  C   -0.138054
    10  C    0.062016
    11  C    0.058303
    12  C    0.014003
    13  C   -0.127424
    14  H    0.053483
    15  N   -0.518316
    16  C    0.183441
    17  C   -0.196072
    18  C   -0.037081
    19  C    0.166701
    20  C    0.060709
    21  C    0.056426
    22  O   -0.280208
    23  C    0.002015
    24  N   -0.410271
    25  C    0.066083
    26  C   -0.084837
    27  C   -0.063804
    28  C    0.089711
    29  C    0.031939
    30  C   -0.016671
    31  C   -0.058081
    32  N   -0.398751
    33  C    0.097348
    34  C   -0.188071
    35  C   -0.040053
    36  C    0.126290
    37  C    0.081484
    38  C    0.128738
    39  O   -0.224577
    40  C   -0.076756
    41  C    0.275899
    42  O   -0.284705
    43  O   -0.335672
    44  C    0.120418
    45  H    0.007869
    46  H    0.010501
    47  H   -0.017517
    48  H    0.026427
    49  H    0.022775
    50  H    0.047050
    51  H    0.037447
    52  H    0.040441
    53  H    0.034981
    54  H    0.067715
    55  H    0.039732
    56  H    0.040314
    57  H    0.029682
    58  H    0.048858
    59  H    0.061924
    60  H    0.057671
    61  H    0.061620
    62  H    0.052921
    63  H    0.042817
    64  H    0.035531
    65  H    0.045168
    66  H    0.034295
    67  H    0.025565
    68  H    0.032456
    69  H    0.029341
    70  H    0.029125
    71  H    0.042112
    72  H    0.049775
    73  H    0.070929
    74  H    0.031271
    75  H    0.069267
    76  H    0.065870
    77  H    0.061908
    78  H    0.063732
    79  H    0.070179
    80  Mg   0.986834
    81  C   -0.109052
    82  C   -0.086005
    83  C   -0.110429
    84  C   -0.095728
    85  N   -0.341928
    86  C   -0.039006
    87  C   -0.062074
    88  C   -0.058548
    89  C    0.026387
    90  C    0.027446
    91  C   -0.015440
    92  C   -0.117664
    93  H    0.034329
    94  N   -0.448550
    95  C    0.153428
    96  C   -0.157882
    97  C   -0.113490
    98  C    0.206739
    99  C    0.095300
   100  C    0.069621
   101  O   -0.226533
   102  C   -0.026041
   103  N   -0.422058
   104  C    0.079268
   105  C   -0.103133
   106  C   -0.075631
   107  C    0.085729
   108  C    0.009769
   109  C   -0.024446
   110  C   -0.038080
   111  N   -0.406533
   112  C    0.119410
   113  C   -0.211657
   114  C   -0.096294
   115  C    0.263738
   116  C    0.092581
   117  C    0.145127
   118  O   -0.217703
   119  C   -0.059184
   120  C    0.315864
   121  O   -0.277304
   122  O   -0.382411
   123  C    0.152128
   124  H   -0.009352
   125  H   -0.034813
   126  H   -0.015359
   127  H    0.049864
   128  H    0.044904
   129  H    0.043547
   130  H    0.040694
   131  H    0.046685
   132  H    0.038834
   133  H    0.048337
   134  H    0.063150
   135  H    0.056084
   136  H    0.065005
   137  H    0.023114
   138  H    0.044377
   139  H    0.073824
   140  H    0.060831
   141  H    0.053007
   142  H    0.044482
   143  H    0.036475
   144  H    0.037812
   145  H    0.038807
   146  H    0.031854
   147  H    0.048148
   148  H    0.025212
   149  H    0.051929
   150  H    0.041881
   151  H    0.037840
   152  H    0.035014
   153  H    0.055412
   154  H    0.066634
   155  H    0.059059
   156  H    0.069777
   157  H    0.033815
   158  H    0.052225
 Sum of Mulliken charges =  -0.00000

 Dipole moment (field-independent basis, Debye):
    X=             -4.1055    Y=              5.1601    Z=             -1.6472  Tot=              6.7967
 Quadrupole moment (field-independent basis, Debye-Ang):
   XX=           -497.1035   YY=           -563.3634   ZZ=           -462.8699
   XY=             11.1219   XZ=              2.6329   YZ=             31.8829

 Normal termination of Gaussian 16 at Sun Sep 19 09:56:38 2021.
