 Gaussian 16, Revision A.03,
 Gaussian 16:  ES64L-G16RevA.03 25-Dec-2016

 --------------------------------
 #p wB97XD/Def2SVP td=(nstates=5)
 --------------------------------

 --------------------------------
 TDDFT excited states in gaussian
 --------------------------------
 Symbolic Z-matrix:
 Charge =  0 Multiplicity = 1

                         Standard orientation:
 ---------------------------------------------------------------------
 Center     Atomic      Atomic             Coordinates (Angstroms)
 Number     Number       Type             X           Y           Z
 ---------------------------------------------------------------------
      1         12           0       12.994383   -0.105074    0.401287
      2          6           0        9.685165   -0.262955   -0.407294
      3          6           0       13.492843    1.993845   -2.402281
      4          6           0       16.284900   -0.110233    1.022337
      5          6           0       12.378279   -2.095033    3.132451
      6          7           0       11.823855    0.509894   -1.385122
      7          6           0       10.427242    0.407219   -1.416625
      8          6           0        9.821047    1.104195   -2.667508
      9          6           0       11.118627    1.722565   -3.252403
     10          6           0       12.259091    1.340307   -2.326364
     11          6           0       11.539758    1.493799   -4.766448
     12          6           0        8.688004    2.191084   -2.404002
     13          6           0        8.189040    2.840832   -3.722465
     14          1           0        6.781500    2.394666   -4.120726
     15          7           0       14.684394    0.881568   -0.560785
     16          6           0       14.604546    1.860087   -1.528181
     17          6           0       15.982187    2.233573   -1.826538
     18          6           0       16.788193    1.605179   -0.823433
     19          6           0       15.940116    0.762461   -0.040585
     20          6           0       16.295078    3.170283   -2.928941
     21          6           0       18.350441    1.737417   -0.773626
     22          8           0       19.080810    1.035013   -0.045533
     23          6           0       19.053094    2.701887   -1.693172
     24          7           0       14.105922   -0.951538    1.769341
     25          6           0       15.521833   -0.834096    1.854113
     26          6           0       16.090071   -1.835681    2.833819
     27          6           0       14.873960   -2.038816    3.735484
     28          6           0       13.687914   -1.632124    2.872574
     29          6           0       16.568428   -3.159097    2.147527
     30          6           0       14.892650   -1.123843    4.980377
     31          6           0       15.641385   -1.588471    6.200624
     32          7           0       11.401240   -1.085837    1.267614
     33          6           0       11.243649   -1.724379    2.438309
     34          6           0        9.880188   -2.145620    2.570106
     35          6           0        9.211346   -1.589349    1.500509
     36          6           0       10.177860   -0.907171    0.745242
     37          6           0        9.392723   -2.929075    3.738658
     38          6           0        7.943702   -1.463218    0.918514
     39          8           0        6.849570   -1.862338    1.267736
     40          6           0        8.196756   -0.568822   -0.384390
     41          6           0        7.708201   -1.332314   -1.564060
     42          8           0        8.173744   -2.348679   -2.019090
     43          8           0        6.732788   -0.673337   -2.196671
     44          6           0        6.185175   -1.323794   -3.448984
     45          1           0       13.538687    2.755133   -3.183629
     46          1           0       17.354558   -0.116050    1.241263
     47          1           0       12.081954   -2.619834    4.042682
     48          1           0        9.440135    0.335111   -3.339534
     49          1           0       11.076380    2.808146   -3.158992
     50          1           0       12.010393    2.338682   -5.269921
     51          1           0       10.720652    1.022605   -5.310010
     52          1           0       12.354254    0.772094   -4.705965
     53          1           0        9.156666    2.874635   -1.697100
     54          1           0        7.859108    1.701032   -1.893401
     55          1           0        8.934620    2.709892   -4.506730
     56          1           0        8.110844    3.910066   -3.527884
     57          1           0       16.810531    2.608734   -3.708324
     58          1           0       16.812228    4.010390   -2.465368
     59          1           0       15.383147    3.607114   -3.336212
     60          1           0       20.121974    2.705463   -1.479647
     61          1           0       18.698000    3.679484   -1.364237
     62          1           0       18.878475    2.584118   -2.762308
     63          1           0       16.944771   -1.421728    3.369541
     64          1           0       14.741446   -3.071355    4.057952
     65          1           0       15.720954   -3.774694    1.848500
     66          1           0       17.227468   -3.714641    2.815242
     67          1           0       17.144348   -2.840023    1.279544
     68          1           0       13.895437   -0.831303    5.306687
     69          1           0       15.286167   -0.145290    4.704924
     70          1           0       16.407877   -0.839588    6.397986
     71          1           0       16.186720   -2.458856    5.835411
     72          1           0       15.009747   -1.835185    7.054164
     73          1           0        8.940484   -2.267276    4.476284
     74          1           0       10.066919   -3.654593    4.194870
     75          1           0        8.571704   -3.531767    3.349950
     76          1           0        7.628951    0.355866   -0.278662
     77          1           0        7.040604   -1.570933   -4.078069
     78          1           0        5.550239   -0.659744   -4.036079
     79          1           0        5.644151   -2.220826   -3.146973
     80         12           0      -12.695002   -0.448776   -0.684771
     81          6           0      -12.169434    2.734020    1.064288
     82          6           0       -9.333778   -0.227860   -1.480419
     83          6           0      -12.811775   -3.582787   -1.262876
     84          6           0      -15.978986   -0.393996    0.772698
     85          7           0      -10.887863    1.109293   -0.083566
     86          6           0      -10.915449    2.302952    0.603951
     87          6           0       -9.450869    2.858955    0.740466
     88          6           0       -8.638093    2.063637   -0.295909
     89          6           0       -9.664299    0.919285   -0.644091
     90          6           0       -8.187122    2.794273   -1.628456
     91          6           0       -8.887024    2.797714    2.201361
     92          6           0       -8.052815    3.978045    2.650500
     93          1           0       -6.504423    3.780616    2.658515
     94          7           0      -11.336601   -1.700144   -1.396198
     95          6           0      -10.046974   -1.438338   -1.771492
     96          6           0       -9.412012   -2.678764   -2.294904
     97          6           0      -10.431817   -3.661543   -2.203230
     98          6           0      -11.570633   -3.006551   -1.564463
     99          6           0       -7.952618   -2.856212   -2.744791
    100          6           0      -10.327665   -5.169355   -2.449776
    101          8           0       -9.260601   -5.594714   -2.884003
    102          6           0      -11.371433   -6.094812   -2.246630
    103          7           0      -14.138412   -1.859675   -0.032970
    104          6           0      -14.005098   -3.070576   -0.682936
    105          6           0      -15.326357   -3.899786   -0.446305
    106          6           0      -16.189794   -2.963590    0.473174
    107          6           0      -15.429740   -1.625574    0.309048
    108          6           0      -16.070573   -4.361788   -1.729161
    109          6           0      -16.418185   -3.374805    1.983494
    110          6           0      -17.492052   -4.432964    2.290690
    111          7           0      -13.932897    0.859698    0.605747
    112          6           0      -15.260333    0.784974    0.977641
    113          6           0      -15.710623    2.000199    1.611896
    114          6           0      -14.515841    2.812087    1.653302
    115          6           0      -13.404910    2.094526    1.087113
    116          6           0      -17.093356    2.206989    2.148800
    117          6           0      -14.014087    4.024694    2.124612
    118          8           0      -14.511600    4.871667    2.854186
    119          6           0      -12.474867    3.995379    1.897334
    120          6           0      -12.187680    5.239466    1.089531
    121          8           0      -11.296428    6.043467    1.373857
    122          8           0      -12.923135    5.357923   -0.157902
    123          6           0      -12.351548    6.366453   -1.048788
    124          1           0       -8.295481   -0.150159   -1.808088
    125          1           0      -13.058042   -4.599994   -1.574466
    126          1           0      -17.023364   -0.491477    1.076102
    127          1           0       -9.425599    3.867375    0.325029
    128          1           0       -7.787557    1.555953    0.158992
    129          1           0       -7.117604    2.960073   -1.500798
    130          1           0       -8.651920    3.775873   -1.716130
    131          1           0       -8.431801    2.276362   -2.555760
    132          1           0       -8.170540    1.995344    2.379150
    133          1           0       -9.704240    2.734338    2.920183
    134          1           0       -8.448241    4.295763    3.615295
    135          1           0       -8.237882    4.794267    1.951468
    136          1           0       -7.914496   -3.489820   -3.631299
    137          1           0       -7.459944   -3.276079   -1.867893
    138          1           0       -7.517561   -1.904094   -3.045536
    139          1           0      -12.155994   -5.881966   -2.973458
    140          1           0      -11.743011   -6.149670   -1.223342
    141          1           0      -10.837077   -7.035632   -2.383001
    142          1           0      -15.171285   -4.820469    0.115188
    143          1           0      -17.166282   -2.765291    0.031969
    144          1           0      -17.074107   -3.945446   -1.640447
    145          1           0      -16.115617   -5.450398   -1.723803
    146          1           0      -15.463870   -3.948923   -2.536041
    147          1           0      -16.697877   -2.434136    2.458974
    148          1           0      -15.517586   -3.820059    2.406817
    149          1           0      -17.910195   -4.587805    1.295649
    150          1           0      -18.309274   -4.008383    2.875514
    151          1           0      -17.152989   -5.374943    2.721069
    152          1           0      -17.247529    1.397630    2.861222
    153          1           0      -17.875864    2.054138    1.405768
    154          1           0      -17.180751    3.103091    2.763298
    155          1           0      -12.010039    4.107574    2.876659
    156          1           0      -12.730515    5.921185   -1.969471
    157          1           0      -11.281684    6.499284   -0.888161
    158          1           0      -12.926997    7.277788   -0.885751
 ---------------------------------------------------------------------

 SCF Done:  E(RwB97XD) =  -4070.58150578     A.U. after   18 cycles

 Excitation energies and oscillator strengths:

 Excited State   1:      Singlet-A      1.5968 eV  776.44 nm  f=0.4031  <S**2>=0.000
     309 -> 316        0.16553
     312 -> 313        0.68799
     309 <- 316        0.11232
 This state for optimization and/or second-order correction.
 Total Energy, E(TD-HF/TD-DFT) =  -4070.52282316
 Copying the excited state density for this state as the 1-particle RhoCI density.

 Excited State   2:      Singlet-A      1.6688 eV  742.95 nm  f=0.3458  <S**2>=0.000
     310 -> 315        0.20198
     311 -> 314        0.67685
     310 <- 315        0.11949

 Excited State   3:      Singlet-A      2.1895 eV  566.26 nm  f=0.0727  <S**2>=0.000
     310 -> 314        0.61182
     311 -> 315       -0.32999

 Excited State   4:      Singlet-A      2.1950 eV  564.86 nm  f=0.1015  <S**2>=0.000
     309 -> 313        0.63447
     312 -> 316       -0.28830

 Excited State   5:      Singlet-A      3.2152 eV  385.62 nm  f=0.0019  <S**2>=0.000
     307 -> 313        0.67728

 The electronic state is 1-A.
 Alpha  occ. eigenvalues --  -46.97064 -46.93875 -19.30186 -19.28916 -19.25006
 Alpha  occ. eigenvalues --  -19.24514 -19.23790 -19.23730 -19.23567 -19.22868
 Alpha  occ. eigenvalues --  -14.47359 -14.47312 -14.46534 -14.46386 -14.45380
 Alpha  occ. eigenvalues --  -14.43704 -14.43498 -14.43452 -10.43247 -10.42409
 Alpha  occ. eigenvalues --  -10.39184 -10.39026 -10.38852 -10.37455 -10.36379
 Alpha  occ. eigenvalues --  -10.36161 -10.36108 -10.35931 -10.35612 -10.35569
 Alpha  occ. eigenvalues --  -10.35423 -10.35422 -10.34970 -10.34547 -10.34477
 Alpha  occ. eigenvalues --  -10.34046 -10.33836 -10.33559 -10.33500 -10.33330
 Alpha  occ. eigenvalues --  -10.33275 -10.33198 -10.33053 -10.33043 -10.33031
 Alpha  occ. eigenvalues --  -10.32943 -10.32863 -10.32701 -10.32673 -10.32643
 Alpha  occ. eigenvalues --  -10.32413 -10.32342 -10.32291 -10.32264 -10.32228
 Alpha  occ. eigenvalues --  -10.32175 -10.32080 -10.31889 -10.31818 -10.31554
 Alpha  occ. eigenvalues --  -10.31537 -10.31410 -10.31382 -10.31363 -10.31174
 Alpha  occ. eigenvalues --  -10.30842 -10.30814 -10.30745 -10.30741 -10.30685
 Alpha  occ. eigenvalues --  -10.30685 -10.30571 -10.30482 -10.30435 -10.30398
 Alpha  occ. eigenvalues --  -10.30106 -10.30076 -10.30006 -10.29694 -10.29619
 Alpha  occ. eigenvalues --  -10.29605 -10.29531 -10.29506 -10.29220 -10.29121
 Alpha  occ. eigenvalues --  -10.28906  -3.22966  -3.20060  -1.96490  -1.96133
 Alpha  occ. eigenvalues --   -1.95886  -1.93659  -1.93205  -1.93036  -1.19134
 Alpha  occ. eigenvalues --   -1.16059  -1.12757  -1.12643  -1.11164  -1.10473
 Alpha  occ. eigenvalues --   -1.09388  -1.08529  -1.07538  -1.07073  -1.05954
 Alpha  occ. eigenvalues --   -1.05329  -1.05319  -1.05114  -1.03995  -1.03054
 Alpha  occ. eigenvalues --   -0.95381  -0.94842  -0.90959  -0.90862  -0.90786
 Alpha  occ. eigenvalues --   -0.90691  -0.90574  -0.90374  -0.89893  -0.89135
 Alpha  occ. eigenvalues --   -0.88947  -0.88851  -0.88503  -0.87822  -0.86889
 Alpha  occ. eigenvalues --   -0.86306  -0.85863  -0.85733  -0.85566  -0.84449
 Alpha  occ. eigenvalues --   -0.84443  -0.83521  -0.83194  -0.83081  -0.82599
 Alpha  occ. eigenvalues --   -0.81820  -0.80362  -0.80204  -0.79500  -0.79248
 Alpha  occ. eigenvalues --   -0.79167  -0.78926  -0.78174  -0.77741  -0.77201
 Alpha  occ. eigenvalues --   -0.77156  -0.75250  -0.74795  -0.73889  -0.73805
 Alpha  occ. eigenvalues --   -0.71452  -0.71068  -0.70956  -0.70520  -0.70236
 Alpha  occ. eigenvalues --   -0.69678  -0.68964  -0.68071  -0.67793  -0.67477
 Alpha  occ. eigenvalues --   -0.67295  -0.66968  -0.66895  -0.66663  -0.66177
 Alpha  occ. eigenvalues --   -0.66001  -0.64134  -0.63866  -0.62381  -0.62230
 Alpha  occ. eigenvalues --   -0.62043  -0.61781  -0.61229  -0.61150  -0.60894
 Alpha  occ. eigenvalues --   -0.60876  -0.60344  -0.60021  -0.59155  -0.58965
 Alpha  occ. eigenvalues --   -0.58643  -0.58550  -0.58027  -0.57558  -0.57039
 Alpha  occ. eigenvalues --   -0.56721  -0.56715  -0.56261  -0.56236  -0.55809
 Alpha  occ. eigenvalues --   -0.55653  -0.55445  -0.55404  -0.55349  -0.55202
 Alpha  occ. eigenvalues --   -0.54848  -0.54817  -0.54673  -0.54408  -0.54246
 Alpha  occ. eigenvalues --   -0.53874  -0.53749  -0.53647  -0.53614  -0.53385
 Alpha  occ. eigenvalues --   -0.53291  -0.52941  -0.52493  -0.52312  -0.52194
 Alpha  occ. eigenvalues --   -0.51947  -0.51856  -0.51787  -0.51766  -0.51702
 Alpha  occ. eigenvalues --   -0.51471  -0.51204  -0.51073  -0.50902  -0.50870
 Alpha  occ. eigenvalues --   -0.50708  -0.50532  -0.50305  -0.50186  -0.50060
 Alpha  occ. eigenvalues --   -0.50000  -0.49868  -0.49708  -0.49638  -0.49457
 Alpha  occ. eigenvalues --   -0.49205  -0.49104  -0.48856  -0.48627  -0.48470
 Alpha  occ. eigenvalues --   -0.48435  -0.48429  -0.48016  -0.47973  -0.47875
 Alpha  occ. eigenvalues --   -0.47821  -0.47469  -0.47287  -0.47241  -0.46873
 Alpha  occ. eigenvalues --   -0.46675  -0.46577  -0.46411  -0.46286  -0.46199
 Alpha  occ. eigenvalues --   -0.45994  -0.45700  -0.45696  -0.45690  -0.45532
 Alpha  occ. eigenvalues --   -0.45509  -0.45289  -0.45123  -0.44828  -0.44524
 Alpha  occ. eigenvalues --   -0.44357  -0.44229  -0.44007  -0.43927  -0.43883
 Alpha  occ. eigenvalues --   -0.43739  -0.43561  -0.43558  -0.43394  -0.43226
 Alpha  occ. eigenvalues --   -0.43119  -0.42846  -0.42573  -0.42309  -0.42140
 Alpha  occ. eigenvalues --   -0.42085  -0.41979  -0.41801  -0.41757  -0.41182
 Alpha  occ. eigenvalues --   -0.40746  -0.40329  -0.40066  -0.39780  -0.39585
 Alpha  occ. eigenvalues --   -0.39410  -0.39128  -0.39056  -0.38693  -0.38588
 Alpha  occ. eigenvalues --   -0.38249  -0.37325  -0.36519  -0.36274  -0.36020
 Alpha  occ. eigenvalues --   -0.35906  -0.35488  -0.35241  -0.33804  -0.33700
 Alpha  occ. eigenvalues --   -0.33493  -0.33313  -0.33171  -0.32827  -0.32446
 Alpha  occ. eigenvalues --   -0.32091  -0.31262  -0.30837  -0.26558  -0.26370
 Alpha  occ. eigenvalues --   -0.23238  -0.22943
 Alpha virt. eigenvalues --   -0.07442  -0.07105  -0.00772   0.00353   0.01910
 Alpha virt. eigenvalues --    0.02428   0.03667   0.04350   0.04456   0.06361
 Alpha virt. eigenvalues --    0.06848   0.07003   0.07272   0.07972   0.08197

 Mulliken charges:
               1
     1  Mg   0.971109
     2  C   -0.006222
     3  C   -0.072367
     4  C   -0.076302
     5  C   -0.099531
     6  N   -0.340899
     7  C   -0.009229
     8  C   -0.022589
     9  C   -0.153790
    10  C    0.065445
    11  C    0.013342
    12  C   -0.005954
    13  C   -0.111349
    14  H    0.047574
    15  N   -0.435232
    16  C    0.162590
    17  C   -0.218407
    18  C   -0.077955
    19  C    0.134409
    20  C    0.083770
    21  C    0.066644
    22  O   -0.256604
    23  C   -0.006880
    24  N   -0.468529
    25  C    0.098726
    26  C   -0.069514
    27  C   -0.080579
    28  C    0.140206
    29  C    0.040744
    30  C   -0.043698
    31  C   -0.003963
    32  N   -0.427978
    33  C    0.106655
    34  C   -0.178862
    35  C    0.017677
    36  C    0.137088
    37  C    0.064692
    38  C    0.098819
    39  O   -0.191731
    40  C   -0.123665
    41  C    0.249364
    42  O   -0.247039
    43  O   -0.362948
    44  C    0.139167
    45  H   -0.004160
    46  H    0.019939
    47  H   -0.001703
    48  H    0.044490
    49  H    0.034744
    50  H    0.042258
    51  H    0.043334
    52  H    0.037678
    53  H    0.035517
    54  H    0.054524
    55  H    0.050984
    56  H    0.053019
    57  H    0.065747
    58  H    0.049346
    59  H    0.025668
    60  H    0.051299
    61  H    0.045832
    62  H    0.060813
    63  H    0.028113
    64  H    0.023090
    65  H    0.041805
    66  H    0.042149
    67  H    0.041567
    68  H    0.022372
    69  H    0.020644
    70  H    0.035360
    71  H    0.017892
    72  H    0.051288
    73  H    0.062439
    74  H    0.045041
    75  H    0.051483
    76  H    0.073787
    77  H    0.058052
    78  H    0.059761
    79  H    0.069627
    80  Mg   0.966174
    81  C   -0.023738
    82  C   -0.063114
    83  C   -0.092002
    84  C   -0.100988
    85  N   -0.282619
    86  C   -0.034255
    87  C    0.018464
    88  C   -0.119664
    89  C   -0.008047
    90  C    0.015353
    91  C    0.017461
    92  C   -0.125877
    93  H    0.022570
    94  N   -0.499429
    95  C    0.162992
    96  C   -0.190073
    97  C   -0.055752
    98  C    0.215271
    99  C    0.097159
   100  C    0.017795
   101  O   -0.245632
   102  C    0.020252
   103  N   -0.384860
   104  C    0.048377
   105  C   -0.125716
   106  C   -0.090079
   107  C    0.045083
   108  C    0.037751
   109  C   -0.003812
   110  C   -0.042729
   111  N   -0.423424
   112  C    0.155205
   113  C   -0.159672
   114  C   -0.021069
   115  C    0.159159
   116  C    0.093635
   117  C    0.074380
   118  O   -0.216464
   119  C   -0.098714
   120  C    0.286653
   121  O   -0.256842
   122  O   -0.417799
   123  C    0.139099
   124  H   -0.001170
   125  H   -0.023779
   126  H   -0.001989
   127  H    0.034486
   128  H    0.044574
   129  H    0.048619
   130  H    0.036477
   131  H    0.049233
   132  H    0.048742
   133  H    0.043905
   134  H    0.057310
   135  H    0.052397
   136  H    0.068131
   137  H    0.069741
   138  H    0.030741
   139  H    0.075281
   140  H    0.064031
   141  H    0.054929
   142  H    0.035948
   143  H    0.019872
   144  H    0.037786
   145  H    0.042241
   146  H    0.042196
   147  H    0.028936
   148  H    0.036468
   149  H    0.015354
   150  H    0.040142
   151  H    0.050287
   152  H    0.034100
   153  H    0.047720
   154  H    0.062760
   155  H    0.072106
   156  H    0.050680
   157  H    0.068794
   158  H    0.052487
 Sum of Mulliken charges =  -0.00000

 Dipole moment (field-independent basis, Debye):
    X=             -1.0311    Y=             -0.8472    Z=             -4.7095  Tot=              4.8950
 Quadrupole moment (field-independent basis, Debye-Ang):
   XX=           -487.5146   YY=           -531.3307   ZZ=           -486.6560
   XY=            121.3268   XZ=             37.0741   YZ=            -48.2181

 Normal termination of Gaussian 16 at Mon Sep 20 04:06:27 2021.
