 Gaussian 16, Revision A.03,
 Gaussian 16:  ES64L-G16RevA.03 25-Dec-2016

 --------------------------------
 #p wB97XD/Def2SVP td=(nstates=5)
 --------------------------------

 --------------------------------
 TDDFT excited states in gaussian
 --------------------------------
 Symbolic Z-matrix:
 Charge =  0 Multiplicity = 1

                         Standard orientation:
 ---------------------------------------------------------------------
 Center     Atomic      Atomic             Coordinates (Angstroms)
 Number     Number       Type             X           Y           Z
 ---------------------------------------------------------------------
      1         12           0       28.394998    0.345188   -0.227762
      2          6           0       26.271089   -2.312516   -0.102798
      3          6           0       25.898220    2.232612    1.266553
      4          6           0       30.617170    2.852178   -0.005172
      5          6           0       31.047302   -1.794770   -1.106187
      6          7           0       26.400599   -0.087809    0.734974
      7          6           0       25.759427   -1.265037    0.592110
      8          6           0       24.455703   -1.293308    1.302660
      9          6           0       24.190091    0.334610    1.411445
     10          6           0       25.593559    0.905687    1.118745
     11          6           0       23.063906    0.828685    0.456149
     12          6           0       24.627498   -1.946612    2.664806
     13          6           0       25.722188   -1.368372    3.676255
     14          1           0       25.418221   -1.266500    5.165759
     15          7           0       28.287297    2.263956    0.519382
     16          6           0       27.117074    2.919782    0.978457
     17          6           0       27.442987    4.298834    1.127267
     18          6           0       28.781527    4.521400    0.828739
     19          6           0       29.313838    3.222561    0.383494
     20          6           0       26.348712    5.243650    1.580782
     21          6           0       29.561353    5.803705    0.995455
     22          8           0       28.911618    6.780318    1.445219
     23          6           0       30.974841    5.945773    0.891031
     24          7           0       30.578741    0.431856   -0.311464
     25          6           0       31.239540    1.623321   -0.247733
     26          6           0       32.760391    1.433534   -0.461496
     27          6           0       32.865561   -0.088116   -0.815769
     28          6           0       31.423302   -0.542272   -0.667342
     29          6           0       33.343203    2.357149   -1.509742
     30          6           0       33.902432   -0.849606    0.170421
     31          6           0       34.812311   -1.859267   -0.538582
     32          7           0       28.697472   -1.703498   -0.575474
     33          6           0       29.734411   -2.399525   -1.109276
     34          6           0       29.223181   -3.690269   -1.482772
     35          6           0       27.823350   -3.749052   -1.159491
     36          6           0       27.574424   -2.513654   -0.584793
     37          6           0       30.053715   -4.864947   -1.872146
     38          6           0       26.626322   -4.523054   -1.081456
     39          8           0       26.512141   -5.680809   -1.503268
     40          6           0       25.589881   -3.619955   -0.438751
     41          6           0       24.448762   -3.470574   -1.374341
     42          8           0       23.864894   -4.463884   -1.760867
     43          8           0       24.104497   -2.182217   -1.648559
     44          6           0       22.964295   -2.021895   -2.553077
     45          1           0       25.044081    2.880988    1.472169
     46          1           0       31.258647    3.723374   -0.152276
     47          1           0       31.772613   -2.479385   -1.551520
     48          1           0       23.623811   -1.817368    0.832003
     49          1           0       23.751907    0.592921    2.376363
     50          1           0       22.273171    1.309821    1.030617
     51          1           0       22.639211   -0.058334   -0.014635
     52          1           0       23.400363    1.495486   -0.338812
     53          1           0       24.756308   -3.015026    2.490380
     54          1           0       23.607197   -1.942814    3.048117
     55          1           0       26.072175   -0.357376    3.467281
     56          1           0       26.511950   -2.114165    3.590683
     57          1           0       26.345355    5.179730    2.669063
     58          1           0       25.390878    4.874085    1.216751
     59          1           0       26.445610    6.283721    1.267949
     60          1           0       31.350814    6.741655    1.534702
     61          1           0       31.332912    6.008288   -0.137385
     62          1           0       31.376081    5.054132    1.370870
     63          1           0       33.173242    1.631941    0.528206
     64          1           0       33.101433   -0.197446   -1.874136
     65          1           0       32.638752    3.095676   -1.891472
     66          1           0       33.911949    1.967955   -2.353797
     67          1           0       33.989857    3.004227   -0.916374
     68          1           0       33.420053   -1.398995    0.978934
     69          1           0       34.524010   -0.150363    0.729423
     70          1           0       35.816645   -1.438295   -0.576790
     71          1           0       34.487171   -1.939315   -1.576094
     72          1           0       34.841484   -2.828897   -0.041282
     73          1           0       30.559816   -4.826920   -2.836027
     74          1           0       29.374437   -5.717389   -1.834099
     75          1           0       30.868637   -5.042023   -1.170174
     76          1           0       25.252666   -4.138679    0.459116
     77          1           0       22.112806   -2.537945   -2.108574
     78          1           0       23.168548   -2.352101   -3.571704
     79          1           0       22.772175   -0.966415   -2.745271
     80         12           0      -28.683209   -0.286311   -0.575805
     81          6           0      -25.312681    0.728617   -0.380800
     82          6           0      -27.785444   -3.140337    1.053831
     83          6           0      -32.007972   -0.910484   -0.088145
     84          6           0      -29.375278    2.994824   -1.782126
     85          7           0      -26.751296   -1.055510    0.382244
     86          6           0      -25.477499   -0.589046    0.226344
     87          6           0      -24.450713   -1.423983    1.010866
     88          6           0      -25.305553   -2.783326    1.073773
     89          6           0      -26.711947   -2.301783    0.817321
     90          6           0      -24.892646   -3.886291    0.062584
     91          6           0      -24.127634   -0.875800    2.473225
     92          6           0      -22.801053   -1.243143    3.120024
     93          1           0      -22.712826   -2.195972    4.331163
     94          7           0      -29.850871   -1.846088    0.333730
     95          6           0      -29.252392   -2.975484    0.811755
     96          6           0      -30.197648   -3.960774    1.101947
     97          6           0      -31.470537   -3.367823    0.757940
     98          6           0      -31.186112   -1.967427    0.334923
     99          6           0      -29.877855   -5.352408    1.634391
    100          6           0      -32.777006   -4.119108    0.879513
    101          8           0      -32.772881   -5.309778    1.285718
    102          6           0      -34.160903   -3.539259    0.419810
    103          7           0      -30.365276    0.892883   -0.907048
    104          6           0      -31.666988    0.382495   -0.652369
    105          6           0      -32.698590    1.261557   -1.303019
    106          6           0      -31.971689    2.605569   -1.525524
    107          6           0      -30.480590    2.160597   -1.487144
    108          6           0      -33.317908    0.848219   -2.657266
    109          6           0      -32.263917    3.667112   -0.339010
    110          6           0      -33.526277    4.512597   -0.415467
    111          7           0      -27.525850    1.430763   -1.164650
    112          6           0      -27.941587    2.666347   -1.637637
    113          6           0      -26.878321    3.533307   -1.805609
    114          6           0      -25.766881    2.793117   -1.367396
    115          6           0      -26.225811    1.527417   -0.965325
    116          6           0      -26.977532    4.928398   -2.336995
    117          6           0      -24.403140    2.802031   -1.274901
    118          8           0      -23.596099    3.619243   -1.671949
    119          6           0      -24.087652    1.572417   -0.397440
    120          6           0      -23.684815    2.140291    0.930725
    121          8           0      -24.375463    2.854236    1.589027
    122          8           0      -22.371922    1.774860    1.233402
    123          6           0      -21.886245    2.425376    2.400415
    124          1           0      -27.517869   -4.147161    1.381919
    125          1           0      -33.075218   -1.136463   -0.145456
    126          1           0      -29.649482    3.925024   -2.283670
    127          1           0      -23.569484   -1.665792    0.417614
    128          1           0      -25.138092   -3.203881    2.064944
    129          1           0      -24.267075   -4.539534    0.671537
    130          1           0      -24.286385   -3.493402   -0.753531
    131          1           0      -25.756084   -4.449130   -0.292461
    132          1           0      -24.864010   -1.243942    3.187656
    133          1           0      -24.281494    0.202902    2.437117
    134          1           0      -22.373621   -0.279996    3.402613
    135          1           0      -22.162745   -1.647415    2.334550
    136          1           0      -30.471639   -6.206211    1.306267
    137          1           0      -29.945525   -5.125249    2.698053
    138          1           0      -28.887134   -5.659254    1.299036
    139          1           0      -34.136961   -3.353129   -0.653573
    140          1           0      -34.247902   -2.641218    1.031096
    141          1           0      -35.042102   -4.111933    0.708698
    142          1           0      -33.476816    1.420691   -0.557306
    143          1           0      -32.235588    3.066299   -2.477532
    144          1           0      -33.055414    1.486238   -3.500961
    145          1           0      -34.328364    0.459459   -2.529293
    146          1           0      -32.792983   -0.073125   -2.909109
    147          1           0      -31.369200    4.284050   -0.420013
    148          1           0      -32.275103    3.170234    0.631271
    149          1           0      -34.076532    4.417453    0.520235
    150          1           0      -34.147857    4.155918   -1.237228
    151          1           0      -33.289554    5.571446   -0.523053
    152          1           0      -26.428478    5.554578   -1.634358
    153          1           0      -28.000411    5.307013   -2.336763
    154          1           0      -26.523291    5.040758   -3.321595
    155          1           0      -23.253019    1.040224   -0.852493
    156          1           0      -21.374236    3.345343    2.119590
    157          1           0      -21.078689    1.884469    2.895211
    158          1           0      -22.681767    2.667376    3.103103
 ---------------------------------------------------------------------

 SCF Done:  E(RwB97XD) =  -4070.58534547     A.U. after   20 cycles

 Excitation energies and oscillator strengths:

 Excited State   1:      Singlet-A      1.6462 eV  753.15 nm  f=0.3997  <S**2>=0.000
     309 -> 315       -0.19124
     311 -> 313        0.68053
     309 <- 315       -0.11799
 This state for optimization and/or second-order correction.
 Total Energy, E(TD-HF/TD-DFT) =  -4070.52484858
 Copying the excited state density for this state as the 1-particle RhoCI density.

 Excited State   2:      Singlet-A      1.6885 eV  734.28 nm  f=0.3929  <S**2>=0.000
     310 -> 316        0.18196
     312 -> 314        0.68311
     310 <- 316        0.11274

 Excited State   3:      Singlet-A      2.0913 eV  592.86 nm  f=0.1265  <S**2>=0.000
     309 -> 313        0.64852
     311 -> 315        0.26309

 Excited State   4:      Singlet-A      2.1633 eV  573.13 nm  f=0.1259  <S**2>=0.000
     310 -> 314        0.64774
     312 -> 316       -0.25642

 Excited State   5:      Singlet-A      3.1711 eV  390.99 nm  f=0.0098  <S**2>=0.000
     306 -> 313       -0.25977
     307 -> 313        0.61138
     307 -> 317       -0.13825

 The electronic state is 1-A.
 Alpha  occ. eigenvalues --  -46.96658 -46.95471 -19.31590 -19.30638 -19.25853
 Alpha  occ. eigenvalues --  -19.24417 -19.23309 -19.23236 -19.23174 -19.22931
 Alpha  occ. eigenvalues --  -14.47785 -14.47278 -14.46671 -14.46654 -14.44446
 Alpha  occ. eigenvalues --  -14.44415 -14.43826 -14.43172 -10.43566 -10.43294
 Alpha  occ. eigenvalues --  -10.39027 -10.38818 -10.38437 -10.37361 -10.36482
 Alpha  occ. eigenvalues --  -10.36478 -10.36373 -10.35741 -10.35696 -10.35336
 Alpha  occ. eigenvalues --  -10.35235 -10.34999 -10.34749 -10.34734 -10.34502
 Alpha  occ. eigenvalues --  -10.34479 -10.34293 -10.34183 -10.33986 -10.33328
 Alpha  occ. eigenvalues --  -10.33165 -10.33086 -10.33032 -10.32594 -10.32508
 Alpha  occ. eigenvalues --  -10.32480 -10.32457 -10.32437 -10.32420 -10.32381
 Alpha  occ. eigenvalues --  -10.32375 -10.32165 -10.32114 -10.32099 -10.32093
 Alpha  occ. eigenvalues --  -10.32042 -10.31907 -10.31872 -10.31810 -10.31718
 Alpha  occ. eigenvalues --  -10.31656 -10.31536 -10.31527 -10.31503 -10.31441
 Alpha  occ. eigenvalues --  -10.31370 -10.31309 -10.31267 -10.31190 -10.30932
 Alpha  occ. eigenvalues --  -10.30781 -10.30477 -10.30437 -10.30426 -10.30355
 Alpha  occ. eigenvalues --  -10.30344 -10.30238 -10.30215 -10.29969 -10.29799
 Alpha  occ. eigenvalues --  -10.29522 -10.29470 -10.29424 -10.28814 -10.28554
 Alpha  occ. eigenvalues --  -10.28201  -3.22429  -3.21376  -1.96009  -1.95538
 Alpha  occ. eigenvalues --   -1.95387  -1.94937  -1.94515  -1.94326  -1.19807
 Alpha  occ. eigenvalues --   -1.19576  -1.12269  -1.11749  -1.11235  -1.10634
 Alpha  occ. eigenvalues --   -1.10201  -1.09535  -1.07786  -1.06982  -1.06721
 Alpha  occ. eigenvalues --   -1.06544  -1.05987  -1.04741  -1.03912  -1.03600
 Alpha  occ. eigenvalues --   -0.96381  -0.96049  -0.91239  -0.90911  -0.90873
 Alpha  occ. eigenvalues --   -0.90640  -0.90634  -0.90567  -0.89711  -0.89533
 Alpha  occ. eigenvalues --   -0.89036  -0.88342  -0.87874  -0.87782  -0.87020
 Alpha  occ. eigenvalues --   -0.86308  -0.86009  -0.85539  -0.85291  -0.84841
 Alpha  occ. eigenvalues --   -0.84703  -0.83825  -0.83393  -0.82855  -0.82659
 Alpha  occ. eigenvalues --   -0.82309  -0.80570  -0.80027  -0.79972  -0.79315
 Alpha  occ. eigenvalues --   -0.78973  -0.78903  -0.78059  -0.77914  -0.77655
 Alpha  occ. eigenvalues --   -0.76932  -0.75616  -0.74479  -0.74249  -0.74117
 Alpha  occ. eigenvalues --   -0.72081  -0.71485  -0.71076  -0.70790  -0.70425
 Alpha  occ. eigenvalues --   -0.70398  -0.69172  -0.69167  -0.68481  -0.68260
 Alpha  occ. eigenvalues --   -0.67347  -0.67332  -0.67207  -0.66720  -0.66362
 Alpha  occ. eigenvalues --   -0.66245  -0.65805  -0.64814  -0.62512  -0.62223
 Alpha  occ. eigenvalues --   -0.62168  -0.61708  -0.61593  -0.61334  -0.61198
 Alpha  occ. eigenvalues --   -0.61040  -0.60732  -0.60377  -0.60094  -0.60030
 Alpha  occ. eigenvalues --   -0.58745  -0.58579  -0.58503  -0.57775  -0.57701
 Alpha  occ. eigenvalues --   -0.57290  -0.57093  -0.57085  -0.56468  -0.56215
 Alpha  occ. eigenvalues --   -0.55817  -0.55700  -0.55517  -0.55444  -0.55130
 Alpha  occ. eigenvalues --   -0.55025  -0.54743  -0.54534  -0.54460  -0.54225
 Alpha  occ. eigenvalues --   -0.53811  -0.53792  -0.53716  -0.53363  -0.53342
 Alpha  occ. eigenvalues --   -0.53159  -0.53018  -0.52815  -0.52798  -0.52555
 Alpha  occ. eigenvalues --   -0.52324  -0.52075  -0.51789  -0.51672  -0.51577
 Alpha  occ. eigenvalues --   -0.51432  -0.51343  -0.51048  -0.50941  -0.50749
 Alpha  occ. eigenvalues --   -0.50699  -0.50586  -0.50425  -0.50417  -0.50067
 Alpha  occ. eigenvalues --   -0.49878  -0.49548  -0.49285  -0.49163  -0.49034
 Alpha  occ. eigenvalues --   -0.48971  -0.48658  -0.48551  -0.48416  -0.48380
 Alpha  occ. eigenvalues --   -0.48352  -0.48265  -0.48007  -0.47979  -0.47730
 Alpha  occ. eigenvalues --   -0.47673  -0.47558  -0.47242  -0.47142  -0.47012
 Alpha  occ. eigenvalues --   -0.46822  -0.46673  -0.46586  -0.46521  -0.46520
 Alpha  occ. eigenvalues --   -0.46477  -0.45825  -0.45724  -0.45696  -0.45509
 Alpha  occ. eigenvalues --   -0.45294  -0.45179  -0.44904  -0.44747  -0.44561
 Alpha  occ. eigenvalues --   -0.44446  -0.44327  -0.44232  -0.44188  -0.44163
 Alpha  occ. eigenvalues --   -0.43835  -0.43740  -0.43457  -0.43304  -0.43300
 Alpha  occ. eigenvalues --   -0.43181  -0.43076  -0.42935  -0.42922  -0.42401
 Alpha  occ. eigenvalues --   -0.42349  -0.42210  -0.41429  -0.41365  -0.41097
 Alpha  occ. eigenvalues --   -0.40660  -0.40447  -0.39830  -0.39797  -0.39704
 Alpha  occ. eigenvalues --   -0.39588  -0.39470  -0.39140  -0.38992  -0.38905
 Alpha  occ. eigenvalues --   -0.38639  -0.37891  -0.37500  -0.37068  -0.36718
 Alpha  occ. eigenvalues --   -0.35978  -0.35679  -0.35296  -0.33994  -0.33663
 Alpha  occ. eigenvalues --   -0.32818  -0.32469  -0.32395  -0.32310  -0.32165
 Alpha  occ. eigenvalues --   -0.31988  -0.31645  -0.31135  -0.26243  -0.26223
 Alpha  occ. eigenvalues --   -0.23845  -0.23476
 Alpha virt. eigenvalues --   -0.07962  -0.07496  -0.00589   0.00051   0.01998
 Alpha virt. eigenvalues --    0.02217   0.04123   0.04463   0.04557   0.04689
 Alpha virt. eigenvalues --    0.06746   0.07360   0.07433   0.07986   0.08024

 Mulliken charges:
               1
     1  Mg   0.931651
     2  C   -0.000989
     3  C   -0.065805
     4  C   -0.091705
     5  C   -0.077494
     6  N   -0.307373
     7  C    0.004204
     8  C   -0.074605
     9  C   -0.126109
    10  C    0.080181
    11  C    0.020542
    12  C    0.007958
    13  C   -0.131108
    14  H    0.036911
    15  N   -0.514475
    16  C    0.148978
    17  C   -0.151842
    18  C   -0.055447
    19  C    0.178087
    20  C    0.087292
    21  C    0.034441
    22  O   -0.271012
    23  C    0.017078
    24  N   -0.324892
    25  C    0.043736
    26  C   -0.057456
    27  C   -0.088593
    28  C    0.106018
    29  C    0.017451
    30  C   -0.009876
    31  C   -0.055794
    32  N   -0.439733
    33  C    0.094613
    34  C   -0.179686
    35  C    0.011911
    36  C    0.117595
    37  C    0.048047
    38  C    0.070989
    39  O   -0.201919
    40  C   -0.081180
    41  C    0.257109
    42  O   -0.227844
    43  O   -0.352673
    44  C    0.138924
    45  H   -0.003854
    46  H   -0.037233
    47  H   -0.005210
    48  H    0.022132
    49  H    0.037581
    50  H    0.038113
    51  H    0.026428
    52  H    0.039078
    53  H    0.025016
    54  H    0.032733
    55  H    0.078044
    56  H    0.066405
    57  H    0.053654
    58  H    0.029929
    59  H    0.063947
    60  H    0.061102
    61  H    0.077271
    62  H    0.047615
    63  H    0.049742
    64  H    0.040772
    65  H    0.036111
    66  H    0.051923
    67  H    0.027116
    68  H    0.036484
    69  H    0.027986
    70  H    0.034952
    71  H    0.031363
    72  H    0.047284
    73  H    0.038324
    74  H    0.058171
    75  H    0.037794
    76  H    0.089637
    77  H    0.063422
    78  H    0.059065
    79  H    0.050996
    80  Mg   0.948238
    81  C    0.000501
    82  C   -0.064787
    83  C   -0.087448
    84  C   -0.085771
    85  N   -0.297883
    86  C   -0.038019
    87  C   -0.036657
    88  C   -0.151818
    89  C    0.082328
    90  C    0.029890
    91  C   -0.001072
    92  C   -0.097657
    93  H    0.043764
    94  N   -0.426034
    95  C    0.122620
    96  C   -0.157839
    97  C   -0.085169
    98  C    0.169113
    99  C    0.086419
   100  C    0.032043
   101  O   -0.271673
   102  C   -0.011415
   103  N   -0.428127
   104  C    0.087195
   105  C   -0.091982
   106  C   -0.113444
   107  C    0.082418
   108  C    0.055272
   109  C   -0.033204
   110  C   -0.022709
   111  N   -0.388335
   112  C    0.120746
   113  C   -0.174801
   114  C    0.038951
   115  C    0.121328
   116  C    0.098379
   117  C    0.025950
   118  O   -0.206351
   119  C   -0.074450
   120  C    0.254068
   121  O   -0.209751
   122  O   -0.358082
   123  C    0.118699
   124  H   -0.004342
   125  H   -0.015903
   126  H    0.010001
   127  H    0.028207
   128  H    0.041459
   129  H    0.039146
   130  H    0.042967
   131  H    0.043397
   132  H    0.044048
   133  H    0.047720
   134  H    0.049642
   135  H    0.043077
   136  H    0.069592
   137  H    0.065470
   138  H    0.029168
   139  H    0.067707
   140  H    0.050339
   141  H    0.051444
   142  H    0.031762
   143  H    0.027921
   144  H    0.049148
   145  H    0.044395
   146  H    0.015817
   147  H    0.024910
   148  H    0.036997
   149  H    0.036026
   150  H    0.032853
   151  H    0.043089
   152  H    0.055727
   153  H    0.023767
   154  H    0.063705
   155  H    0.047910
   156  H    0.048926
   157  H    0.048434
   158  H    0.062025
 Sum of Mulliken charges =  -0.00000

 Dipole moment (field-independent basis, Debye):
    X=              0.9614    Y=              3.7713    Z=             -1.6867  Tot=              4.2417
 Quadrupole moment (field-independent basis, Debye-Ang):
   XX=           -250.4635   YY=           -592.7320   ZZ=           -507.5444
   XY=             67.6643   XZ=             25.5014   YZ=            -15.9058

 Normal termination of Gaussian 16 at Sun Sep 19 19:12:53 2021.
