 Gaussian 16, Revision A.03,
 Gaussian 16:  ES64L-G16RevA.03 25-Dec-2016

 --------------------------------
 #p wB97XD/Def2SVP td=(nstates=5)
 --------------------------------

 --------------------------------
 TDDFT excited states in gaussian
 --------------------------------
 Symbolic Z-matrix:
 Charge =  0 Multiplicity = 1

                         Standard orientation:
 ---------------------------------------------------------------------
 Center     Atomic      Atomic             Coordinates (Angstroms)
 Number     Number       Type             X           Y           Z
 ---------------------------------------------------------------------
      1         12           0       -0.814466    0.279487    0.038734
      2          6           0        2.849255    0.177329    0.102872
      3          6           0       -0.706268   -3.207314    0.364995
      4          6           0       -4.049110    0.245399   -0.365615
      5          6           0       -0.681427    3.703976   -0.092062
      6          7           0        0.851497   -1.322674    0.003368
      7          6           0        2.290716   -1.147908    0.155054
      8          6           0        3.074161   -2.475572    0.237138
      9          6           0        1.825625   -3.526331    0.104616
     10          6           0        0.545057   -2.669414    0.142045
     11          6           0        1.906099   -4.420938   -1.117068
     12          6           0        3.924757   -2.531503    1.542084
     13          6           0        4.491149   -3.877194    1.882384
     14          1           0        5.925157   -3.992262    2.349342
     15          7           0       -2.233766   -1.273881   -0.023884
     16          6           0       -2.007191   -2.645439    0.137605
     17          6           0       -3.279631   -3.363326    0.090488
     18          6           0       -4.304698   -2.352700   -0.121190
     19          6           0       -3.575294   -1.032407   -0.183652
     20          6           0       -3.452836   -4.908082    0.329688
     21          6           0       -5.774400   -2.466870   -0.310741
     22          8           0       -6.539307   -1.521905   -0.451127
     23          6           0       -6.429396   -3.782592   -0.220056
     24          7           0       -2.145640    1.719054   -0.097812
     25          6           0       -3.427086    1.482585   -0.384650
     26          6           0       -4.257283    2.780074   -0.524714
     27          6           0       -3.276386    3.809048   -0.002131
     28          6           0       -1.895163    3.056098   -0.124262
     29          6           0       -4.706843    3.055882   -1.954873
     30          6           0       -3.405218    4.446902    1.356901
     31          6           0       -3.284074    3.478023    2.513673
     32          7           0        0.721106    1.680625   -0.090044
     33          6           0        0.596385    3.080550   -0.034285
     34          6           0        1.913329    3.667509   -0.065829
     35          6           0        2.757657    2.534827    0.063407
     36          6           0        2.004646    1.345638    0.031035
     37          6           0        2.294495    5.118287   -0.015820
     38          6           0        4.203083    2.193677    0.240810
     39          8           0        5.198922    2.923989    0.431828
     40          6           0        4.270774    0.668128    0.233963
     41          6           0        5.233103    0.191524   -0.856030
     42          8           0        5.165597    0.308986   -2.115205
     43          8           0        6.186119   -0.563734   -0.239015
     44          6           0        7.181181   -1.198388   -1.132840
     45          1           0       -0.676040   -4.255124    0.667792
     46          1           0       -5.122438    0.253339   -0.566271
     47          1           0       -0.561985    4.787504   -0.158282
     48          1           0        3.785629   -2.434669   -0.587577
     49          1           0        1.753813   -4.103817    1.026297
     50          1           0        1.915102   -5.459407   -0.784770
     51          1           0        2.854134   -4.190959   -1.602021
     52          1           0        1.254019   -4.186109   -1.958068
     53          1           0        3.306030   -2.068853    2.311782
     54          1           0        4.763376   -1.843132    1.436656
     55          1           0        4.512527   -4.621000    1.086228
     56          1           0        3.954960   -4.283469    2.739539
     57          1           0       -4.072172   -4.979869    1.224232
     58          1           0       -2.512351   -5.427233    0.513645
     59          1           0       -3.955835   -5.296207   -0.556095
     60          1           0       -5.897130   -4.577312   -0.743160
     61          1           0       -7.396568   -3.617406   -0.693509
     62          1           0       -6.338715   -4.043202    0.834001
     63          1           0       -5.145055    2.657244    0.095772
     64          1           0       -3.246120    4.701129   -0.628365
     65          1           0       -5.729294    3.430914   -1.928173
     66          1           0       -4.687098    2.148220   -2.557138
     67          1           0       -4.144248    3.891962   -2.371832
     68          1           0       -4.330262    5.023982    1.368288
     69          1           0       -2.562936    5.108455    1.558733
     70          1           0       -4.059930    3.636036    3.261894
     71          1           0       -2.354280    3.599787    3.069784
     72          1           0       -3.361387    2.428152    2.230737
     73          1           0        3.015660    5.278993    0.785176
     74          1           0        1.536070    5.889461    0.118804
     75          1           0        2.774834    5.350072   -0.966655
     76          1           0        4.721171    0.345733    1.173175
     77          1           0        6.920848   -2.245105   -1.288660
     78          1           0        8.079965   -0.989731   -0.552519
     79          1           0        7.316089   -0.647378   -2.064470
 ---------------------------------------------------------------------

 SCF Done:  E(RwB97XD) =  -2035.31514739     A.U. after   20 cycles

 Excitation energies and oscillator strengths:

 Excited State   1:      Singlet-A      1.6109 eV  769.64 nm  f=0.3985  <S**2>=0.000
     155 ->158         0.17055
     156 ->157         0.68651
     155 <-158         0.11385
 This state for optimization and/or second-order correction.
 Total Energy, E(TD-HF/TD-DFT) =  -2035.25594667
 Copying the excited state density for this state as the 1-particle RhoCI density.

 Excited State   2:      Singlet-A      2.1162 eV  585.89 nm  f=0.1339  <S**2>=0.000
     155 ->157         0.64977
     156 ->158        -0.25750

 Excited State   3:      Singlet-A      3.2646 eV  379.78 nm  f=0.0055  <S**2>=0.000
     152 ->157        -0.31867
     154 ->157         0.60965

 Excited State   4:      Singlet-A      3.4159 eV  362.96 nm  f=0.0112  <S**2>=0.000
     150 ->157         0.15451
     152 ->157         0.54091
     154 ->157         0.31030
     156 ->158         0.24939

 Excited State   5:      Singlet-A      3.4995 eV  354.29 nm  f=0.0060  <S**2>=0.000
     151 ->157         0.11979
     153 ->157         0.54160
     153 ->159        -0.29814
     153 ->160         0.24490

 The electronic state is 1-A.
 Alpha  occ. eigenvalues --  -46.94117 -19.30987 -19.24611 -19.23860 -19.23496
 Alpha  occ. eigenvalues --  -14.47149 -14.46780 -14.44620 -14.43435 -10.43827
 Alpha  occ. eigenvalues --  -10.38745 -10.38649 -10.36019 -10.35648 -10.35581
 Alpha  occ. eigenvalues --  -10.35522 -10.35160 -10.34808 -10.34752 -10.34602
 Alpha  occ. eigenvalues --  -10.33220 -10.33037 -10.32998 -10.32918 -10.32885
 Alpha  occ. eigenvalues --  -10.32628 -10.32608 -10.32600 -10.32454 -10.31622
 Alpha  occ. eigenvalues --  -10.31570 -10.31425 -10.31015 -10.30999 -10.30795
 Alpha  occ. eigenvalues --  -10.30149 -10.29804 -10.29798 -10.29742 -10.29562
 Alpha  occ. eigenvalues --  -10.29492 -10.28704 -10.28370  -3.20271  -1.93870
 Alpha  occ. eigenvalues --   -1.93410  -1.93250  -1.18185  -1.12658  -1.09998
 Alpha  occ. eigenvalues --   -1.07954  -1.07060  -1.04813  -1.04363  -1.02619
 Alpha  occ. eigenvalues --   -0.94257  -0.91558  -0.90828  -0.90565  -0.89271
 Alpha  occ. eigenvalues --   -0.89003  -0.87802  -0.86683  -0.85936  -0.84868
 Alpha  occ. eigenvalues --   -0.84286  -0.83374  -0.82050  -0.80534  -0.79194
 Alpha  occ. eigenvalues --   -0.78715  -0.77895  -0.77455  -0.74743  -0.73926
 Alpha  occ. eigenvalues --   -0.72219  -0.71413  -0.69634  -0.69174  -0.67048
 Alpha  occ. eigenvalues --   -0.66667  -0.66282  -0.65812  -0.63921  -0.62255
 Alpha  occ. eigenvalues --   -0.61155  -0.61086  -0.60299  -0.59679  -0.59396
 Alpha  occ. eigenvalues --   -0.58308  -0.57876  -0.57467  -0.57227  -0.56722
 Alpha  occ. eigenvalues --   -0.56239  -0.55440  -0.55048  -0.54710  -0.54405
 Alpha  occ. eigenvalues --   -0.54098  -0.53086  -0.52806  -0.52711  -0.52303
 Alpha  occ. eigenvalues --   -0.52107  -0.51703  -0.51533  -0.50756  -0.50730
 Alpha  occ. eigenvalues --   -0.50548  -0.50428  -0.50039  -0.49671  -0.49548
 Alpha  occ. eigenvalues --   -0.48931  -0.48703  -0.48442  -0.48096  -0.47938
 Alpha  occ. eigenvalues --   -0.47593  -0.47390  -0.46832  -0.46481  -0.46275
 Alpha  occ. eigenvalues --   -0.46115  -0.45862  -0.45389  -0.45163  -0.44605
 Alpha  occ. eigenvalues --   -0.44470  -0.44131  -0.43853  -0.43730  -0.43236
 Alpha  occ. eigenvalues --   -0.42831  -0.42405  -0.41884  -0.41160  -0.41004
 Alpha  occ. eigenvalues --   -0.40802  -0.39317  -0.39148  -0.38797  -0.38483
 Alpha  occ. eigenvalues --   -0.38115  -0.36309  -0.36067  -0.35305  -0.33733
 Alpha  occ. eigenvalues --   -0.33265  -0.32595  -0.32298  -0.31299  -0.26187
 Alpha  occ. eigenvalues --   -0.23289
 Alpha virt. eigenvalues --   -0.07658   0.00250   0.02365   0.04292   0.06248
 Alpha virt. eigenvalues --    0.06678   0.07688   0.08604   0.09317   0.10153
 Alpha virt. eigenvalues --    0.10962   0.12129   0.12704   0.13062   0.13273

 Mulliken charges:
               1
     1  Mg   0.974897
     2  C   -0.025640
     3  C   -0.091730
     4  C   -0.091424
     5  C   -0.077703
     6  N   -0.366017
     7  C   -0.005970
     8  C   -0.064624
     9  C   -0.111934
    10  C    0.088870
    11  C    0.051923
    12  C   -0.006020
    13  C   -0.128123
    14  H    0.029137
    15  N   -0.467353
    16  C    0.163216
    17  C   -0.170359
    18  C   -0.057343
    19  C    0.152336
    20  C    0.067127
    21  C    0.021898
    22  O   -0.243504
    23  C    0.002187
    24  N   -0.422420
    25  C    0.103882
    26  C   -0.088032
    27  C   -0.066319
    28  C    0.109845
    29  C    0.042979
    30  C    0.010318
    31  C   -0.067794
    32  N   -0.449675
    33  C    0.078886
    34  C   -0.151423
    35  C   -0.101749
    36  C    0.167155
    37  C    0.064805
    38  C    0.158622
    39  O   -0.236411
    40  C   -0.063650
    41  C    0.278957
    42  O   -0.286762
    43  O   -0.366264
    44  C    0.125290
    45  H   -0.007294
    46  H    0.021598
    47  H    0.001318
    48  H    0.052016
    49  H    0.035094
    50  H    0.045585
    51  H    0.021893
    52  H    0.048108
    53  H    0.034817
    54  H    0.058236
    55  H    0.052524
    56  H    0.055231
    57  H    0.061426
    58  H    0.044223
    59  H    0.067067
    60  H    0.027104
    61  H    0.066543
    62  H    0.059677
    63  H    0.041424
    64  H    0.013869
    65  H    0.035651
    66  H    0.048279
    67  H    0.036550
    68  H    0.035159
    69  H    0.029063
    70  H    0.029058
    71  H    0.034942
    72  H    0.040805
    73  H    0.061478
    74  H    0.026460
    75  H    0.055498
    76  H    0.079601
    77  H    0.065871
    78  H    0.060834
    79  H    0.076204
 Sum of Mulliken charges =  -0.00000

 Dipole moment (field-independent basis, Debye):
    X=             -2.2839    Y=             -4.7342    Z=              1.7671  Tot=              5.5455
 Quadrupole moment (field-independent basis, Debye-Ang):
   XX=           -273.4863   YY=           -220.6134   ZZ=           -260.6714
   XY=            -24.5096   XZ=             -0.7983   YZ=             -0.1199

 Normal termination of Gaussian 16 at Sun Sep 19 02:41:23 2021.
