 Gaussian 16, Revision A.03,
 Gaussian 16:  ES64L-G16RevA.03 25-Dec-2016

 --------------------------------
 #p wB97XD/Def2SVP td=(nstates=5)
 --------------------------------

 --------------------------------
 TDDFT excited states in gaussian
 --------------------------------
 Symbolic Z-matrix:
 Charge =  0 Multiplicity = 1

                         Standard orientation:
 ---------------------------------------------------------------------
 Center     Atomic      Atomic             Coordinates (Angstroms)
 Number     Number       Type             X           Y           Z
 ---------------------------------------------------------------------
      1         12           0       14.333402   -0.255577   -0.151302
      2          6           0       10.993859   -1.051343   -0.568150
      3          6           0       13.868532    2.492242   -2.348165
      4          6           0       17.445119    0.937416    0.646289
      5          6           0       14.650120   -2.628341    2.338415
      6          7           0       12.640713    0.500834   -1.399889
      7          6           0       11.336818    0.059754   -1.315792
      8          6           0       10.302441    0.977282   -2.069348
      9          6           0       11.290274    1.870657   -2.958295
     10          6           0       12.739320    1.616256   -2.259561
     11          6           0       11.342600    1.643611   -4.517177
     12          6           0        9.428001    1.802475   -1.192239
     13          6           0        7.921185    1.631941   -1.216868
     14          1           0        7.095406    2.878494   -0.860564
     15          7           0       15.539268    1.440156   -0.845185
     16          6           0       15.129390    2.392817   -1.796931
     17          6           0       16.209067    3.284832   -2.077731
     18          6           0       17.246910    2.937123   -1.071897
     19          6           0       16.779055    1.721944   -0.335945
     20          6           0       16.105272    4.491831   -3.015871
     21          6           0       18.543380    3.755993   -0.945021
     22          8           0       18.859866    4.751791   -1.589497
     23          6           0       19.365288    3.533585    0.274940
     24          7           0       15.840959   -0.674140    1.474092
     25          6           0       17.074423   -0.153185    1.421052
     26          6           0       17.769956   -0.551252    2.722022
     27          6           0       16.940170   -1.796604    3.287677
     28          6           0       15.702430   -1.745314    2.285047
     29          6           0       19.234672   -1.024169    2.413276
     30          6           0       16.477339   -1.812670    4.802294
     31          6           0       17.036404   -2.844098    5.770910
     32          7           0       13.089644   -1.668839    0.693364
     33          6           0       13.359654   -2.611678    1.690171
     34          6           0       12.173271   -3.350990    1.996171
     35          6           0       11.178093   -2.786283    1.139845
     36          6           0       11.852237   -1.785639    0.336788
     37          6           0       11.989202   -4.445725    2.999367
     38          6           0        9.845611   -2.845011    0.699112
     39          8           0        8.964018   -3.588905    1.079925
     40          6           0        9.640337   -1.687536   -0.353322
     41          6           0        8.896024   -2.225622   -1.502723
     42          8           0        7.709505   -1.993143   -1.704599
     43          8           0        9.722337   -3.030042   -2.273186
     44          6           0        9.023589   -3.641967   -3.425711
     45          1           0       13.858678    3.339463   -3.036430
     46          1           0       18.455594    1.331853    0.775213
     47          1           0       14.758323   -3.343139    3.156682
     48          1           0        9.682648    0.362990   -2.721572
     49          1           0       11.051919    2.910454   -2.731582
     50          1           0       10.482126    1.027810   -4.778666
     51          1           0       12.260353    1.179217   -4.878211
     52          1           0       11.305600    2.628528   -4.981158
     53          1           0        9.576519    2.838505   -1.500391
     54          1           0        9.695451    1.645535   -0.147831
     55          1           0        7.658496    0.908430   -0.445650
     56          1           0        7.535850    1.336293   -2.192415
     57          1           0       15.161595    4.764344   -3.487899
     58          1           0       16.897646    4.285280   -3.734879
     59          1           0       16.564053    5.292914   -2.437192
     60          1           0       20.146346    2.774530    0.268171
     61          1           0       18.753279    3.428136    1.170850
     62          1           0       19.943205    4.447918    0.414556
     63          1           0       17.797109    0.257517    3.452621
     64          1           0       17.443761   -2.728929    3.034606
     65          1           0       19.888682   -0.484445    3.098149
     66          1           0       19.569344   -0.877588    1.385559
     67          1           0       19.381561   -2.094054    2.562941
     68          1           0       15.394248   -1.916738    4.741484
     69          1           0       16.798709   -0.850921    5.204522
     70          1           0       16.285915   -2.927375    6.557401
     71          1           0       17.945134   -2.446447    6.223313
     72          1           0       17.225808   -3.862791    5.434195
     73          1           0       10.944443   -4.747761    2.921664
     74          1           0       12.269185   -4.041712    3.971769
     75          1           0       12.585417   -5.341501    2.824616
     76          1           0        8.980261   -0.989431    0.162616
     77          1           0        8.599747   -4.604252   -3.138735
     78          1           0        9.753074   -3.668366   -4.235160
     79          1           0        8.227491   -3.001283   -3.803924
     80         12           0      -13.552289    0.823719    0.113535
     81          6           0      -14.426416   -2.364756   -0.670702
     82          6           0      -10.280367    0.406524   -0.898170
     83          6           0      -12.860571    4.008044    1.164709
     84          6           0      -16.819166    1.250262    1.609017
     85          7           0      -12.455118   -0.854303   -0.489545
     86          6           0      -13.077523   -2.040462   -1.004835
     87          6           0      -12.126920   -2.825066   -1.817542
     88          6           0      -10.752333   -2.085315   -1.492757
     89          6           0      -11.138867   -0.742519   -0.913894
     90          6           0       -9.819914   -2.902981   -0.466010
     91          6           0      -12.541035   -3.010963   -3.309697
     92          6           0      -12.377887   -4.395420   -3.849263
     93          1           0      -11.081301   -5.171806   -3.389943
     94          7           0      -11.823764    2.065603    0.063606
     95          6           0      -10.606168    1.649840   -0.386910
     96          6           0       -9.711226    2.750496   -0.277952
     97          6           0      -10.443160    3.885971    0.247586
     98          6           0      -11.841470    3.385780    0.467582
     99          6           0       -8.205324    2.620362   -0.594714
    100          6           0      -10.066584    5.308351    0.522125
    101          8           0      -10.736947    6.188044    1.074225
    102          6           0       -8.647902    5.739351   -0.010798
    103          7           0      -14.662256    2.420161    1.351155
    104          6           0      -14.184923    3.626679    1.529979
    105          6           0      -15.243879    4.602956    2.038046
    106          6           0      -16.503474    3.700456    2.173365
    107          6           0      -15.969675    2.350953    1.697017
    108          6           0      -14.846837    5.324480    3.424638
    109          6           0      -17.648255    4.274113    1.226996
    110          6           0      -17.500891    4.242365   -0.314363
    111          7           0      -15.232060   -0.362277    0.564075
    112          6           0      -16.457894   -0.027836    1.107853
    113          6           0      -17.326611   -1.209516    0.932490
    114          6           0      -16.643065   -2.166173    0.243932
    115          6           0      -15.340300   -1.581164    0.043380
    116          6           0      -18.667251   -1.361093    1.564545
    117          6           0      -16.673545   -3.505875   -0.342390
    118          8           0      -17.554115   -4.349086   -0.374398
    119          6           0      -15.209976   -3.664201   -0.947581
    120          6           0      -14.561261   -4.780444   -0.230063
    121          8           0      -14.391967   -4.907582    0.995149
    122          8           0      -14.195597   -5.655539   -1.232735
    123          6           0      -13.357846   -6.775897   -0.785279
    124          1           0       -9.251444    0.331747   -1.255779
    125          1           0      -12.604509    5.050784    1.366923
    126          1           0      -17.834800    1.386031    1.984858
    127          1           0      -12.143283   -3.817820   -1.366008
    128          1           0      -10.225758   -1.931472   -2.434153
    129          1           0      -10.124047   -3.940983   -0.331266
    130          1           0      -10.000968   -2.466108    0.515960
    131          1           0       -8.813043   -2.713028   -0.835479
    132          1           0      -11.946488   -2.349983   -3.940412
    133          1           0      -13.597564   -2.743567   -3.297569
    134          1           0      -12.274477   -4.421081   -4.933331
    135          1           0      -13.158478   -5.147939   -3.736646
    136          1           0       -7.942471    2.599767   -1.652281
    137          1           0       -7.933548    1.714340   -0.053338
    138          1           0       -7.627994    3.489789   -0.280983
    139          1           0       -7.882139    5.293274    0.623856
    140          1           0       -8.659189    6.819025   -0.158928
    141          1           0       -8.458029    5.437004   -1.040873
    142          1           0      -15.421060    5.351766    1.266408
    143          1           0      -16.903694    3.657876    3.186379
    144          1           0      -14.588766    6.350989    3.161835
    145          1           0      -13.972045    4.842154    3.861959
    146          1           0      -15.591016    5.425235    4.213638
    147          1           0      -17.970250    5.289774    1.456318
    148          1           0      -18.459316    3.577831    1.442714
    149          1           0      -18.300580    3.564052   -0.612158
    150          1           0      -16.511924    3.918316   -0.636026
    151          1           0      -17.648805    5.210620   -0.792537
    152          1           0      -19.203485   -1.970055    0.837379
    153          1           0      -19.161741   -0.406530    1.745480
    154          1           0      -18.555575   -2.059127    2.393201
    155          1           0      -15.473029   -3.986853   -1.954606
    156          1           0      -13.291395   -7.383573   -1.688195
    157          1           0      -13.954914   -7.318935   -0.052661
    158          1           0      -12.426891   -6.503183   -0.287811
 ---------------------------------------------------------------------

 SCF Done:  E(RwB97XD) =  -4070.59068232     A.U. after   20 cycles

 Excitation energies and oscillator strengths:

 Excited State   1:      Singlet-A      1.6464 eV  753.07 nm  f=0.3952  <S**2>=0.000
     310 -> 316       -0.19176
     312 -> 314        0.68158
     310 <- 316       -0.11816
 This state for optimization and/or second-order correction.
 Total Energy, E(TD-HF/TD-DFT) =  -4070.53017922
 Copying the excited state density for this state as the 1-particle RhoCI density.

 Excited State   2:      Singlet-A      1.6654 eV  744.46 nm  f=0.3675  <S**2>=0.000
     309 -> 315        0.17870
     311 -> 313        0.68420
     309 <- 315        0.11352

 Excited State   3:      Singlet-A      2.1185 eV  585.25 nm  f=0.1567  <S**2>=0.000
     309 -> 313        0.64902
     311 -> 315       -0.25665

 Excited State   4:      Singlet-A      2.2139 eV  560.04 nm  f=0.0444  <S**2>=0.000
     310 -> 314        0.60814
     312 -> 316        0.34946

 Excited State   5:      Singlet-A      3.0622 eV  404.88 nm  f=0.0078  <S**2>=0.000
     308 -> 313        0.68076

 The electronic state is 1-A.
 Alpha  occ. eigenvalues --  -46.96896 -46.95518 -19.30789 -19.30434 -19.25125
 Alpha  occ. eigenvalues --  -19.24867 -19.24515 -19.24503 -19.24263 -19.23372
 Alpha  occ. eigenvalues --  -14.48231 -14.46823 -14.46713 -14.46626 -14.44778
 Alpha  occ. eigenvalues --  -14.44492 -14.44037 -14.43992 -10.43293 -10.43069
 Alpha  occ. eigenvalues --  -10.39659 -10.39371 -10.39351 -10.38229 -10.37354
 Alpha  occ. eigenvalues --  -10.36298 -10.35989 -10.35825 -10.35763 -10.35736
 Alpha  occ. eigenvalues --  -10.35496 -10.35333 -10.34855 -10.34823 -10.34628
 Alpha  occ. eigenvalues --  -10.34355 -10.34170 -10.34158 -10.34070 -10.33891
 Alpha  occ. eigenvalues --  -10.33614 -10.33487 -10.33372 -10.33103 -10.32972
 Alpha  occ. eigenvalues --  -10.32863 -10.32817 -10.32795 -10.32704 -10.32652
 Alpha  occ. eigenvalues --  -10.32414 -10.32388 -10.32379 -10.32374 -10.32328
 Alpha  occ. eigenvalues --  -10.32303 -10.32099 -10.32002 -10.31932 -10.31863
 Alpha  occ. eigenvalues --  -10.31743 -10.31611 -10.31577 -10.31471 -10.31412
 Alpha  occ. eigenvalues --  -10.31395 -10.31345 -10.31327 -10.31307 -10.31018
 Alpha  occ. eigenvalues --  -10.30956 -10.30912 -10.30379 -10.30363 -10.30269
 Alpha  occ. eigenvalues --  -10.30260 -10.30125 -10.29951 -10.29760 -10.29674
 Alpha  occ. eigenvalues --  -10.29658 -10.29397 -10.29356 -10.29251 -10.28970
 Alpha  occ. eigenvalues --  -10.28664  -3.22591  -3.21377  -1.96201  -1.95682
 Alpha  occ. eigenvalues --   -1.95552  -1.94967  -1.94487  -1.94345  -1.18047
 Alpha  occ. eigenvalues --   -1.17785  -1.12400  -1.12350  -1.12034  -1.11790
 Alpha  occ. eigenvalues --   -1.09775  -1.09574  -1.07058  -1.06872  -1.06131
 Alpha  occ. eigenvalues --   -1.05704  -1.04877  -1.04715  -1.03888  -1.03653
 Alpha  occ. eigenvalues --   -0.94621  -0.94256  -0.91546  -0.91344  -0.90960
 Alpha  occ. eigenvalues --   -0.90588  -0.90109  -0.89832  -0.89724  -0.89156
 Alpha  occ. eigenvalues --   -0.89127  -0.88771  -0.88150  -0.87910  -0.86523
 Alpha  occ. eigenvalues --   -0.86498  -0.85792  -0.85202  -0.84904  -0.84250
 Alpha  occ. eigenvalues --   -0.84224  -0.83397  -0.83103  -0.82910  -0.82809
 Alpha  occ. eigenvalues --   -0.81850  -0.79970  -0.79857  -0.79216  -0.79201
 Alpha  occ. eigenvalues --   -0.79060  -0.79024  -0.78233  -0.77650  -0.77531
 Alpha  occ. eigenvalues --   -0.76841  -0.75572  -0.74367  -0.74363  -0.74092
 Alpha  occ. eigenvalues --   -0.71723  -0.71407  -0.71146  -0.71045  -0.70245
 Alpha  occ. eigenvalues --   -0.70071  -0.69370  -0.69185  -0.67610  -0.67534
 Alpha  occ. eigenvalues --   -0.67361  -0.67180  -0.66867  -0.66863  -0.66602
 Alpha  occ. eigenvalues --   -0.66298  -0.65074  -0.64433  -0.62376  -0.62248
 Alpha  occ. eigenvalues --   -0.61806  -0.61533  -0.61307  -0.61148  -0.60833
 Alpha  occ. eigenvalues --   -0.60693  -0.59869  -0.59858  -0.59412  -0.58988
 Alpha  occ. eigenvalues --   -0.58625  -0.58007  -0.57831  -0.57491  -0.57402
 Alpha  occ. eigenvalues --   -0.56867  -0.56828  -0.56777  -0.56297  -0.55845
 Alpha  occ. eigenvalues --   -0.55573  -0.55375  -0.55264  -0.55071  -0.55045
 Alpha  occ. eigenvalues --   -0.54880  -0.54758  -0.54491  -0.54236  -0.54131
 Alpha  occ. eigenvalues --   -0.54127  -0.54005  -0.53911  -0.53825  -0.53380
 Alpha  occ. eigenvalues --   -0.53341  -0.52911  -0.52909  -0.52761  -0.52422
 Alpha  occ. eigenvalues --   -0.52233  -0.51781  -0.51748  -0.51527  -0.51484
 Alpha  occ. eigenvalues --   -0.51246  -0.51150  -0.50918  -0.50815  -0.50622
 Alpha  occ. eigenvalues --   -0.50422  -0.50395  -0.50317  -0.50300  -0.50006
 Alpha  occ. eigenvalues --   -0.49918  -0.49856  -0.49547  -0.49225  -0.49214
 Alpha  occ. eigenvalues --   -0.49097  -0.49033  -0.48726  -0.48685  -0.48627
 Alpha  occ. eigenvalues --   -0.48597  -0.48165  -0.48053  -0.48000  -0.47867
 Alpha  occ. eigenvalues --   -0.47724  -0.47700  -0.47440  -0.47285  -0.47178
 Alpha  occ. eigenvalues --   -0.47045  -0.46732  -0.46631  -0.46567  -0.46416
 Alpha  occ. eigenvalues --   -0.46138  -0.45773  -0.45736  -0.45643  -0.45339
 Alpha  occ. eigenvalues --   -0.45096  -0.45046  -0.44860  -0.44822  -0.44799
 Alpha  occ. eigenvalues --   -0.44658  -0.44413  -0.44241  -0.44223  -0.43992
 Alpha  occ. eigenvalues --   -0.43941  -0.43795  -0.43655  -0.43543  -0.43511
 Alpha  occ. eigenvalues --   -0.43358  -0.43306  -0.42611  -0.42418  -0.42333
 Alpha  occ. eigenvalues --   -0.41959  -0.41699  -0.41618  -0.41462  -0.41323
 Alpha  occ. eigenvalues --   -0.40324  -0.40014  -0.39778  -0.39485  -0.39448
 Alpha  occ. eigenvalues --   -0.39290  -0.39024  -0.38884  -0.38638  -0.38277
 Alpha  occ. eigenvalues --   -0.38194  -0.37924  -0.36601  -0.36549  -0.36412
 Alpha  occ. eigenvalues --   -0.36127  -0.35641  -0.35546  -0.34075  -0.33347
 Alpha  occ. eigenvalues --   -0.33274  -0.33053  -0.32890  -0.32554  -0.32450
 Alpha  occ. eigenvalues --   -0.32373  -0.32011  -0.31912  -0.26617  -0.26273
 Alpha  occ. eigenvalues --   -0.24049  -0.22687
 Alpha virt. eigenvalues --   -0.08163  -0.06756  -0.00490  -0.00388   0.01881
 Alpha virt. eigenvalues --    0.01989   0.04253   0.04301   0.05127   0.05400
 Alpha virt. eigenvalues --    0.06978   0.07014   0.07338   0.07529   0.07885

 Mulliken charges:
               1
     1  Mg   0.930392
     2  C    0.060639
     3  C   -0.053559
     4  C   -0.067711
     5  C   -0.064516
     6  N   -0.367878
     7  C   -0.017570
     8  C   -0.066987
     9  C   -0.122677
    10  C    0.087828
    11  C    0.030152
    12  C    0.037251
    13  C   -0.149224
    14  H    0.025007
    15  N   -0.454878
    16  C    0.135253
    17  C   -0.149616
    18  C   -0.136753
    19  C    0.177742
    20  C    0.084301
    21  C    0.092384
    22  O   -0.239724
    23  C   -0.062801
    24  N   -0.335376
    25  C    0.120404
    26  C   -0.138914
    27  C   -0.048777
    28  C    0.022585
    29  C    0.006309
    30  C   -0.011674
    31  C   -0.052443
    32  N   -0.425424
    33  C    0.118225
    34  C   -0.169391
    35  C   -0.018350
    36  C    0.077048
    37  C    0.078401
    38  C    0.069269
    39  O   -0.202503
    40  C   -0.060312
    41  C    0.246559
    42  O   -0.246090
    43  O   -0.384031
    44  C    0.135045
    45  H   -0.012774
    46  H   -0.019613
    47  H   -0.002513
    48  H    0.034725
    49  H    0.040585
    50  H    0.043116
    51  H    0.048475
    52  H    0.042995
    53  H    0.039675
    54  H    0.043415
    55  H    0.068862
    56  H    0.058768
    57  H    0.056878
    58  H    0.057853
    59  H    0.063787
    60  H    0.068551
    61  H    0.055898
    62  H    0.048747
    63  H    0.055294
    64  H    0.030204
    65  H    0.036312
    66  H    0.039806
    67  H    0.031151
    68  H    0.041390
    69  H    0.028888
    70  H    0.037047
    71  H    0.037636
    72  H    0.038416
    73  H    0.062973
    74  H    0.045622
    75  H    0.047006
    76  H    0.066476
    77  H    0.069676
    78  H    0.052551
    79  H    0.054505
    80  Mg   0.932505
    81  C   -0.005061
    82  C   -0.105873
    83  C   -0.037252
    84  C   -0.077840
    85  N   -0.442514
    86  C   -0.001051
    87  C   -0.039759
    88  C   -0.136047
    89  C    0.130685
    90  C    0.033377
    91  C    0.070025
    92  C   -0.138440
    93  H    0.000809
    94  N   -0.460818
    95  C    0.169080
    96  C   -0.150453
    97  C   -0.078217
    98  C    0.134251
    99  C    0.056755
   100  C    0.061907
   101  O   -0.237669
   102  C   -0.054780
   103  N   -0.260503
   104  C    0.018032
   105  C   -0.075292
   106  C   -0.047564
   107  C    0.027143
   108  C   -0.001676
   109  C   -0.063134
   110  C   -0.056282
   111  N   -0.406382
   112  C    0.141225
   113  C   -0.241080
   114  C   -0.006324
   115  C    0.119943
   116  C    0.082712
   117  C    0.139104
   118  O   -0.194883
   119  C   -0.109435
   120  C    0.275617
   121  O   -0.259038
   122  O   -0.369980
   123  C    0.139933
   124  H    0.001853
   125  H    0.024133
   126  H    0.002932
   127  H    0.030713
   128  H    0.027266
   129  H    0.043667
   130  H    0.045719
   131  H    0.050711
   132  H    0.039560
   133  H    0.041590
   134  H    0.043779
   135  H    0.061428
   136  H    0.055438
   137  H    0.062570
   138  H    0.016958
   139  H    0.079575
   140  H    0.051605
   141  H    0.041972
   142  H    0.050052
   143  H    0.038988
   144  H    0.042608
   145  H    0.048731
   146  H    0.040623
   147  H    0.041517
   148  H    0.020506
   149  H    0.044505
   150  H    0.039866
   151  H    0.038553
   152  H    0.047011
   153  H    0.040156
   154  H    0.066181
   155  H    0.068349
   156  H    0.059433
   157  H    0.056141
   158  H    0.059554
 Sum of Mulliken charges =  -0.00000

 Dipole moment (field-independent basis, Debye):
    X=              7.2973    Y=              1.2953    Z=             -3.6252  Tot=              8.2505
 Quadrupole moment (field-independent basis, Debye-Ang):
   XX=           -491.2360   YY=           -535.5761   ZZ=           -482.1669
   XY=            -81.2424   XZ=             57.2669   YZ=              8.3354

 Normal termination of Gaussian 16 at Mon Sep 20 05:09:27 2021.
