 Gaussian 16, Revision A.03,
 Gaussian 16:  ES64L-G16RevA.03 25-Dec-2016

 --------------------------------
 #p wB97XD/Def2SVP td=(nstates=5)
 --------------------------------

 --------------------------------
 TDDFT excited states in gaussian
 --------------------------------
 Symbolic Z-matrix:
 Charge =  0 Multiplicity = 1

                         Standard orientation:
 ---------------------------------------------------------------------
 Center     Atomic      Atomic             Coordinates (Angstroms)
 Number     Number       Type             X           Y           Z
 ---------------------------------------------------------------------
      1         12           0       -9.329460   -1.005782    0.858906
      2          6           0      -10.373312    1.937662   -0.802695
      3          6           0       -7.647483    0.920164    2.916786
      4          6           0       -7.630590   -3.735547    1.629781
      5          6           0      -10.671486   -2.757422   -1.926610
      6          7           0       -9.241464    1.248369    1.065145
      7          6           0       -9.764321    2.210405    0.396264
      8          6           0       -9.597649    3.551681    1.139695
      9          6           0       -8.313236    3.287219    2.078776
     10          6           0       -8.325532    1.705085    1.979380
     11          6           0       -6.948054    3.926740    1.606042
     12          6           0      -10.887885    3.858478    2.064926
     13          6           0      -11.357601    5.329361    2.307821
     14          1           0      -10.237926    6.433335    2.258605
     15          7           0       -7.983829   -1.406785    2.252250
     16          6           0       -7.443371   -0.425941    3.070174
     17          6           0       -6.476938   -1.083388    4.018869
     18          6           0       -6.511851   -2.490669    3.641766
     19          6           0       -7.370970   -2.676473    2.469232
     20          6           0       -5.693579   -0.270791    5.032501
     21          6           0       -5.788762   -3.632607    4.321375
     22          8           0       -5.815068   -4.810290    3.937744
     23          6           0       -5.021848   -3.353564    5.549976
     24          7           0       -9.251092   -3.069136    0.005340
     25          6           0       -8.416176   -3.952985    0.521202
     26          6           0       -8.756525   -5.409970   -0.026348
     27          6           0       -9.766302   -5.026013   -1.238789
     28          6           0       -9.939317   -3.525357   -1.020230
     29          6           0       -7.497008   -6.245829   -0.429517
     30          6           0      -11.145096   -5.761056   -1.307252
     31          6           0      -11.352535   -6.721646   -2.449911
     32          7           0      -10.524993   -0.584522   -0.920078
     33          6           0      -10.964037   -1.431434   -1.918261
     34          6           0      -11.561629   -0.690751   -2.949495
     35          6           0      -11.312421    0.641075   -2.567494
     36          6           0      -10.658155    0.695388   -1.359566
     37          6           0      -12.192143   -1.179146   -4.154952
     38          6           0      -11.601205    1.959412   -2.980730
     39          8           0      -12.269732    2.491045   -3.908426
     40          6           0      -10.755995    2.866750   -1.978042
     41          6           0      -11.541796    4.060814   -1.576700
     42          8           0      -12.597490    4.093703   -0.947770
     43          8           0      -10.781965    5.211224   -1.958537
     44          6           0      -11.367880    6.526407   -1.669783
     45          1           0       -7.220157    1.600152    3.657269
     46          1           0       -7.106978   -4.642489    1.937113
     47          1           0      -11.149250   -3.311082   -2.738390
     48          1           0       -9.222976    4.272732    0.413657
     49          1           0       -8.489236    3.771546    3.038660
     50          1           0       -7.000662    4.285893    0.578483
     51          1           0       -6.141828    3.193423    1.599698
     52          1           0       -6.759217    4.755747    2.287999
     53          1           0      -10.791383    3.376404    3.037878
     54          1           0      -11.734541    3.311351    1.649809
     55          1           0      -11.857038    5.478035    3.265731
     56          1           0      -11.939262    5.617236    1.431211
     57          1           0       -5.687067   -0.738534    6.017675
     58          1           0       -6.060771    0.749831    5.140440
     59          1           0       -4.702311   -0.057732    4.633143
     60          1           0       -4.249552   -2.605125    5.370267
     61          1           0       -4.563414   -4.272395    5.915733
     62          1           0       -5.606088   -3.005441    6.401786
     63          1           0       -9.347724   -5.995785    0.677409
     64          1           0       -9.265672   -5.034236   -2.208106
     65          1           0       -6.597002   -5.634985   -0.356838
     66          1           0       -7.803062   -6.608571   -1.410975
     67          1           0       -7.495702   -7.133314    0.201985
     68          1           0      -11.915029   -4.994638   -1.398879
     69          1           0      -11.326200   -6.279145   -0.365293
     70          1           0      -10.361884   -6.793544   -2.896885
     71          1           0      -12.014386   -6.240468   -3.170929
     72          1           0      -11.656077   -7.717564   -2.129631
     73          1           0      -12.922056   -1.926554   -3.845117
     74          1           0      -11.575831   -1.811063   -4.794502
     75          1           0      -12.698878   -0.357782   -4.661929
     76          1           0       -9.842979    3.174401   -2.488799
     77          1           0      -10.748277    7.323669   -2.081183
     78          1           0      -11.295581    6.707815   -0.597258
     79          1           0      -12.346987    6.593210   -2.142937
     80         12           0        9.738488   -0.402647   -0.243980
     81          6           0        7.725102    2.532466   -0.185083
     82          6           0       12.422236    1.522207    0.712586
     83          6           0       11.462271   -3.216573   -0.415066
     84          6           0        6.988168   -2.185265   -1.719561
     85          7           0       10.078435    1.862950    0.163893
     86          6           0        9.049482    2.785703    0.209680
     87          6           0        9.693831    4.131559    0.688796
     88          6           0       11.262442    3.816162    0.947590
     89          6           0       11.256720    2.330200    0.574528
     90          6           0       12.268753    4.712489    0.196311
     91          6           0        8.960906    4.904225    1.862081
     92          6           0        8.521350    6.303871    1.544226
     93          1           0        9.206239    7.185017    0.533133
     94          7           0       11.735946   -0.833633    0.242742
     95          6           0       12.658132    0.099065    0.599733
     96          6           0       13.833312   -0.637830    0.987665
     97          6           0       13.623381   -1.973093    0.580695
     98          6           0       12.220589   -2.101849    0.067923
     99          6           0       15.058341    0.105657    1.546228
    100          6           0       14.641610   -3.071224    0.521593
    101          8           0       14.370106   -4.192038    0.029341
    102          6           0       16.020646   -2.811324    1.003416
    103          7           0        9.242841   -2.412966   -1.050892
    104          6           0       10.094220   -3.369901   -0.920269
    105          6           0        9.607982   -4.851635   -1.362092
    106          6           0        8.178735   -4.490955   -1.794890
    107          6           0        8.106198   -3.007881   -1.525430
    108          6           0       10.541849   -5.393578   -2.505478
    109          6           0        7.008880   -5.268696   -1.095720
    110          6           0        6.719691   -4.903554    0.379667
    111          7           0        7.873151    0.083728   -0.925858
    112          6           0        6.902312   -0.757123   -1.519202
    113          6           0        5.674835    0.030527   -1.697059
    114          6           0        5.951874    1.318941   -1.180241
    115          6           0        7.297354    1.292044   -0.679569
    116          6           0        4.338971   -0.500546   -2.297923
    117          6           0        5.369156    2.536197   -0.967495
    118          8           0        4.275919    2.979884   -1.254139
    119          6           0        6.439085    3.408561   -0.253416
    120          6           0        6.600496    4.635472   -0.998910
    121          8           0        7.381096    4.788875   -1.945116
    122          8           0        5.586815    5.535880   -0.650248
    123          6           0        5.540030    6.758164   -1.490438
    124          1           0       13.381552    2.042103    0.763962
    125          1           0       12.086861   -4.089169   -0.617752
    126          1           0        6.120832   -2.679908   -2.161618
    127          1           0        9.463817    4.730597   -0.191361
    128          1           0       11.490672    4.012366    1.994270
    129          1           0       12.958810    5.186779    0.895317
    130          1           0       11.851719    5.481763   -0.453391
    131          1           0       12.810536    4.014803   -0.442290
    132          1           0        9.595748    4.925758    2.748083
    133          1           0        8.050002    4.336560    2.052267
    134          1           0        8.792315    6.912159    2.407898
    135          1           0        7.451742    6.277643    1.339042
    136          1           0       14.809254    1.111806    1.884232
    137          1           0       15.832555    0.162386    0.782141
    138          1           0       15.385120   -0.505981    2.386575
    139          1           0       15.937387   -2.499885    2.044671
    140          1           0       16.483167   -1.986327    0.460251
    141          1           0       16.654568   -3.682339    0.842304
    142          1           0        9.596195   -5.535259   -0.512840
    143          1           0        8.110053   -4.520681   -2.882559
    144          1           0       10.910871   -4.535172   -3.066714
    145          1           0        9.932968   -5.991273   -3.184720
    146          1           0       11.403644   -5.997275   -2.219778
    147          1           0        7.119296   -6.338069   -1.272784
    148          1           0        6.103016   -5.075529   -1.669497
    149          1           0        7.571520   -4.597046    0.985820
    150          1           0        6.165614   -5.728374    0.829169
    151          1           0        6.002476   -4.084487    0.328758
    152          1           0        3.469850   -0.268667   -1.682240
    153          1           0        4.356689   -1.568729   -2.511232
    154          1           0        4.059963    0.125622   -3.145745
    155          1           0        5.959740    3.595975    0.706858
    156          1           0        5.213235    6.515903   -2.501361
    157          1           0        6.500890    7.255502   -1.617675
    158          1           0        4.967812    7.494755   -0.926174
 ---------------------------------------------------------------------

 SCF Done:  E(RwB97XD) =  -4070.57587723     A.U. after   19 cycles

 Excitation energies and oscillator strengths:

 Excited State   1:      Singlet-A      1.7180 eV  721.69 nm  f=0.4533  <S**2>=0.000
     310 -> 316        0.18985
     312 -> 313        0.67491
     310 <- 316        0.11435
 This state for optimization and/or second-order correction.
 Total Energy, E(TD-HF/TD-DFT) =  -4070.51274284
 Copying the excited state density for this state as the 1-particle RhoCI density.

 Excited State   2:      Singlet-A      1.7437 eV  711.02 nm  f=0.2927  <S**2>=0.000
     309 -> 315       -0.21604
     311 -> 314        0.66799
     309 <- 315       -0.11829

 Excited State   3:      Singlet-A      2.1593 eV  574.19 nm  f=0.0844  <S**2>=0.000
     310 -> 313        0.63597
     312 -> 316       -0.28088

 Excited State   4:      Singlet-A      2.1692 eV  571.58 nm  f=0.0951  <S**2>=0.000
     309 -> 314        0.62412
     311 -> 315        0.30780

 Excited State   5:      Singlet-A      3.6297 eV  341.58 nm  f=0.0000  <S**2>=0.000
     312 -> 314        0.70683

 The electronic state is 1-A.
 Alpha  occ. eigenvalues --  -46.96209 -46.95612 -19.29523 -19.29057 -19.25032
 Alpha  occ. eigenvalues --  -19.24250 -19.23940 -19.23931 -19.23416 -19.22570
 Alpha  occ. eigenvalues --  -14.47320 -14.46595 -14.46517 -14.46185 -14.44497
 Alpha  occ. eigenvalues --  -14.44441 -14.44302 -14.43068 -10.43040 -10.42480
 Alpha  occ. eigenvalues --  -10.39142 -10.38998 -10.38409 -10.37279 -10.36045
 Alpha  occ. eigenvalues --  -10.35876 -10.35648 -10.35457 -10.35170 -10.35118
 Alpha  occ. eigenvalues --  -10.34917 -10.34710 -10.34688 -10.34578 -10.34578
 Alpha  occ. eigenvalues --  -10.34531 -10.34330 -10.34204 -10.34177 -10.33857
 Alpha  occ. eigenvalues --  -10.33663 -10.33199 -10.32932 -10.32780 -10.32621
 Alpha  occ. eigenvalues --  -10.32575 -10.32506 -10.32446 -10.32403 -10.32279
 Alpha  occ. eigenvalues --  -10.32266 -10.32242 -10.32170 -10.32169 -10.32130
 Alpha  occ. eigenvalues --  -10.32024 -10.31992 -10.31842 -10.31759 -10.31756
 Alpha  occ. eigenvalues --  -10.31569 -10.31540 -10.31539 -10.31492 -10.31462
 Alpha  occ. eigenvalues --  -10.31345 -10.31249 -10.31207 -10.31189 -10.30886
 Alpha  occ. eigenvalues --  -10.30593 -10.30312 -10.30296 -10.30256 -10.30091
 Alpha  occ. eigenvalues --  -10.30049 -10.29959 -10.29936 -10.29857 -10.29716
 Alpha  occ. eigenvalues --  -10.29693 -10.29605 -10.29598 -10.29152 -10.28557
 Alpha  occ. eigenvalues --  -10.27894  -3.22014  -3.21525  -1.95614  -1.95167
 Alpha  occ. eigenvalues --   -1.95116  -1.94933  -1.94656  -1.94471  -1.16528
 Alpha  occ. eigenvalues --   -1.15989  -1.11544  -1.11478  -1.10785  -1.09392
 Alpha  occ. eigenvalues --   -1.08813  -1.08527  -1.08181  -1.07671  -1.07110
 Alpha  occ. eigenvalues --   -1.05834  -1.05438  -1.05133  -1.03736  -1.03400
 Alpha  occ. eigenvalues --   -0.94837  -0.94285  -0.91641  -0.91321  -0.90413
 Alpha  occ. eigenvalues --   -0.90329  -0.89739  -0.89687  -0.89380  -0.89291
 Alpha  occ. eigenvalues --   -0.89141  -0.88759  -0.88747  -0.87464  -0.86284
 Alpha  occ. eigenvalues --   -0.86101  -0.85779  -0.85276  -0.84546  -0.84503
 Alpha  occ. eigenvalues --   -0.84244  -0.83836  -0.83338  -0.82657  -0.82516
 Alpha  occ. eigenvalues --   -0.82089  -0.80831  -0.80387  -0.79553  -0.79515
 Alpha  occ. eigenvalues --   -0.78768  -0.78407  -0.77695  -0.77688  -0.77068
 Alpha  occ. eigenvalues --   -0.76998  -0.75111  -0.74552  -0.74131  -0.73594
 Alpha  occ. eigenvalues --   -0.72396  -0.71083  -0.70829  -0.70429  -0.69873
 Alpha  occ. eigenvalues --   -0.69774  -0.69097  -0.68997  -0.67779  -0.67483
 Alpha  occ. eigenvalues --   -0.67424  -0.67294  -0.66947  -0.66653  -0.66487
 Alpha  occ. eigenvalues --   -0.66274  -0.63454  -0.63141  -0.62440  -0.62324
 Alpha  occ. eigenvalues --   -0.62009  -0.61545  -0.61182  -0.60666  -0.60233
 Alpha  occ. eigenvalues --   -0.60157  -0.59939  -0.59624  -0.59576  -0.59181
 Alpha  occ. eigenvalues --   -0.58851  -0.58265  -0.58045  -0.57652  -0.57299
 Alpha  occ. eigenvalues --   -0.57260  -0.56968  -0.56197  -0.55632  -0.55552
 Alpha  occ. eigenvalues --   -0.55340  -0.55271  -0.55019  -0.54999  -0.54858
 Alpha  occ. eigenvalues --   -0.54795  -0.54552  -0.54449  -0.54292  -0.54080
 Alpha  occ. eigenvalues --   -0.54030  -0.53518  -0.53340  -0.53286  -0.52973
 Alpha  occ. eigenvalues --   -0.52770  -0.52745  -0.52501  -0.52404  -0.52171
 Alpha  occ. eigenvalues --   -0.51793  -0.51733  -0.51526  -0.51372  -0.51235
 Alpha  occ. eigenvalues --   -0.51183  -0.51000  -0.50992  -0.50846  -0.50624
 Alpha  occ. eigenvalues --   -0.50583  -0.50511  -0.50214  -0.50017  -0.49934
 Alpha  occ. eigenvalues --   -0.49822  -0.49634  -0.49487  -0.49445  -0.49293
 Alpha  occ. eigenvalues --   -0.49118  -0.48895  -0.48699  -0.48618  -0.48604
 Alpha  occ. eigenvalues --   -0.48493  -0.48142  -0.48131  -0.47942  -0.47781
 Alpha  occ. eigenvalues --   -0.47481  -0.47414  -0.47188  -0.46896  -0.46766
 Alpha  occ. eigenvalues --   -0.46553  -0.46173  -0.46072  -0.45790  -0.45783
 Alpha  occ. eigenvalues --   -0.45759  -0.45711  -0.45453  -0.45383  -0.45193
 Alpha  occ. eigenvalues --   -0.45139  -0.44812  -0.44738  -0.44429  -0.44422
 Alpha  occ. eigenvalues --   -0.44320  -0.43848  -0.43811  -0.43765  -0.43597
 Alpha  occ. eigenvalues --   -0.43521  -0.43443  -0.43424  -0.43250  -0.43071
 Alpha  occ. eigenvalues --   -0.42993  -0.42855  -0.42579  -0.42548  -0.42431
 Alpha  occ. eigenvalues --   -0.42138  -0.42032  -0.41870  -0.41752  -0.41063
 Alpha  occ. eigenvalues --   -0.40827  -0.40329  -0.39800  -0.39295  -0.38943
 Alpha  occ. eigenvalues --   -0.38704  -0.38489  -0.38283  -0.38107  -0.37976
 Alpha  occ. eigenvalues --   -0.37530  -0.37489  -0.36467  -0.35969  -0.35780
 Alpha  occ. eigenvalues --   -0.35620  -0.35530  -0.35368  -0.33902  -0.33593
 Alpha  occ. eigenvalues --   -0.33239  -0.33138  -0.32573  -0.32508  -0.32195
 Alpha  occ. eigenvalues --   -0.32005  -0.31718  -0.31354  -0.25977  -0.25795
 Alpha  occ. eigenvalues --   -0.23380  -0.23123
 Alpha virt. eigenvalues --   -0.06940  -0.06853  -0.00623   0.00075   0.01926
 Alpha virt. eigenvalues --    0.02142   0.04374   0.04467   0.05535   0.05628
 Alpha virt. eigenvalues --    0.06861   0.07158   0.07977   0.08060   0.08246

 Mulliken charges:
               1
     1  Mg   0.950750
     2  C   -0.001493
     3  C   -0.092195
     4  C   -0.057431
     5  C   -0.097742
     6  N   -0.289271
     7  C   -0.079761
     8  C   -0.022227
     9  C   -0.152418
    10  C    0.045089
    11  C    0.020140
    12  C    0.019380
    13  C   -0.121965
    14  H   -0.002860
    15  N   -0.573454
    16  C    0.230454
    17  C   -0.157151
    18  C   -0.064269
    19  C    0.176733
    20  C    0.067556
    21  C    0.057174
    22  O   -0.243718
    23  C   -0.029585
    24  N   -0.281824
    25  C    0.040785
    26  C   -0.118755
    27  C   -0.082497
    28  C    0.022876
    29  C    0.039382
    30  C   -0.017960
    31  C   -0.034987
    32  N   -0.421059
    33  C    0.154653
    34  C   -0.152265
    35  C   -0.029490
    36  C    0.146357
    37  C    0.092640
    38  C    0.133300
    39  O   -0.250763
    40  C   -0.095313
    41  C    0.288822
    42  O   -0.246719
    43  O   -0.409080
    44  C    0.146582
    45  H   -0.006284
    46  H    0.018874
    47  H   -0.015676
    48  H    0.025285
    49  H    0.043946
    50  H    0.037487
    51  H    0.040603
    52  H    0.044187
    53  H    0.028078
    54  H    0.057461
    55  H    0.065487
    56  H    0.078679
    57  H    0.055356
    58  H    0.031648
    59  H    0.061528
    60  H    0.054308
    61  H    0.050344
    62  H    0.059911
    63  H    0.047459
    64  H    0.033940
    65  H    0.061833
    66  H    0.028801
    67  H    0.038878
    68  H    0.034199
    69  H    0.024846
    70  H    0.022618
    71  H    0.040438
    72  H    0.046296
    73  H    0.029607
    74  H    0.045490
    75  H    0.071874
    76  H    0.082969
    77  H    0.044329
    78  H    0.042299
    79  H    0.066476
    80  Mg   0.949215
    81  C    0.012617
    82  C   -0.090677
    83  C   -0.048091
    84  C   -0.087692
    85  N   -0.314499
    86  C   -0.013182
    87  C   -0.055998
    88  C   -0.105087
    89  C    0.077766
    90  C    0.018378
    91  C    0.000144
    92  C   -0.139712
    93  H    0.031897
    94  N   -0.486379
    95  C    0.140291
    96  C   -0.180387
    97  C   -0.072072
    98  C    0.161245
    99  C    0.072809
   100  C    0.036319
   101  O   -0.261758
   102  C    0.006801
   103  N   -0.272033
   104  C    0.015794
   105  C   -0.109965
   106  C    0.029100
   107  C   -0.040105
   108  C   -0.003706
   109  C   -0.032859
   110  C   -0.036151
   111  N   -0.476765
   112  C    0.148503
   113  C   -0.176018
   114  C    0.006672
   115  C    0.138548
   116  C    0.087186
   117  C    0.031367
   118  O   -0.201879
   119  C   -0.063140
   120  C    0.267140
   121  O   -0.263051
   122  O   -0.379292
   123  C    0.149996
   124  H    0.007921
   125  H    0.029165
   126  H   -0.008900
   127  H    0.057263
   128  H    0.044853
   129  H    0.035085
   130  H    0.051842
   131  H    0.033612
   132  H    0.031551
   133  H    0.036003
   134  H    0.048385
   135  H    0.062038
   136  H    0.047824
   137  H    0.064333
   138  H    0.046357
   139  H    0.050840
   140  H    0.050363
   141  H    0.058621
   142  H    0.052456
   143  H    0.036615
   144  H    0.045589
   145  H    0.037228
   146  H    0.064128
   147  H    0.031102
   148  H    0.025270
   149  H    0.049621
   150  H    0.041472
   151  H    0.038489
   152  H    0.043371
   153  H    0.031813
   154  H    0.051274
   155  H    0.072985
   156  H    0.064850
   157  H    0.041863
   158  H    0.053427
 Sum of Mulliken charges =  -0.00000

 Dipole moment (field-independent basis, Debye):
    X=              6.5067    Y=             -1.3952    Z=              6.6127  Tot=              9.3814
 Quadrupole moment (field-independent basis, Debye-Ang):
   XX=           -507.9861   YY=           -483.6802   ZZ=           -503.0284
   XY=             50.1778   XZ=             -3.3255   YZ=             42.7716

 Normal termination of Gaussian 16 at Sat Sep 18 23:37:01 2021.
