 Gaussian 16, Revision A.03,
 Gaussian 16:  ES64L-G16RevA.03 25-Dec-2016

 --------------------------------
 #p wB97XD/Def2SVP td=(nstates=5)
 --------------------------------

 --------------------------------
 TDDFT excited states in gaussian
 --------------------------------
 Symbolic Z-matrix:
 Charge =  0 Multiplicity = 1

                         Standard orientation:
 ---------------------------------------------------------------------
 Center     Atomic      Atomic             Coordinates (Angstroms)
 Number     Number       Type             X           Y           Z
 ---------------------------------------------------------------------
      1         12           0      -32.866030    0.193458   -0.363375
      2          6           0      -29.407313    0.174749   -0.037705
      3          6           0      -32.699065   -3.348943    0.121464
      4          6           0      -36.145625    0.108895   -0.157485
      5          6           0      -32.797415    3.697918   -0.095463
      6          7           0      -31.244534   -1.357211    0.117754
      7          6           0      -29.894462   -1.087533    0.098898
      8          6           0      -29.098199   -2.365034    0.378583
      9          6           0      -30.170341   -3.463893    0.139309
     10          6           0      -31.470992   -2.704959    0.164454
     11          6           0      -30.077145   -4.335164   -1.174454
     12          6           0      -28.489910   -2.399922    1.790241
     13          6           0      -27.569409   -3.527223    2.064139
     14          1           0      -26.537359   -3.342096    3.241295
     15          7           0      -34.270463   -1.406343   -0.045121
     16          6           0      -34.005201   -2.776807    0.101727
     17          6           0      -35.260805   -3.460328    0.240870
     18          6           0      -36.284939   -2.444564    0.299920
     19          6           0      -35.570007   -1.156648   -0.002607
     20          6           0      -35.367678   -4.994136    0.464270
     21          6           0      -37.762630   -2.771941    0.537084
     22          8           0      -38.176159   -3.919537    0.542410
     23          6           0      -38.717475   -1.661477    0.757601
     24          7           0      -34.262027    1.716224   -0.378721
     25          6           0      -35.561726    1.405185   -0.328611
     26          6           0      -36.420959    2.725109   -0.176050
     27          6           0      -35.382732    3.909476   -0.095055
     28          6           0      -34.007323    3.044601   -0.141753
     29          6           0      -37.572135    2.952872   -1.190727
     30          6           0      -35.538481    4.666199    1.241400
     31          6           0      -35.159717    6.151604    1.198903
     32          7           0      -31.438449    1.713691   -0.117521
     33          6           0      -31.531654    3.076859   -0.152345
     34          6           0      -30.174054    3.633990   -0.184030
     35          6           0      -29.345876    2.544947   -0.233894
     36          6           0      -30.117365    1.410170   -0.125583
     37          6           0      -29.810141    5.117998   -0.296459
     38          6           0      -27.971504    2.143833   -0.262877
     39          8           0      -26.945693    2.774586   -0.335282
     40          6           0      -27.955091    0.582642   -0.151266
     41          6           0      -27.381767    0.048635   -1.417198
     42          8           0      -27.697360    0.341139   -2.537151
     43          8           0      -26.482829   -0.984139   -1.099054
     44          6           0      -25.897630   -1.664420   -2.219189
     45          1           0      -32.538710   -4.427124    0.179251
     46          1           0      -37.229977    0.236746   -0.122730
     47          1           0      -32.737111    4.788288   -0.082737
     48          1           0      -28.362464   -2.436127   -0.421359
     49          1           0      -30.291020   -4.193628    0.939185
     50          1           0      -30.129575   -5.361460   -0.811665
     51          1           0      -29.368513   -4.024718   -1.942754
     52          1           0      -31.021801   -4.195947   -1.699933
     53          1           0      -29.200778   -2.531320    2.606476
     54          1           0      -27.976928   -1.460066    1.994548
     55          1           0      -27.032180   -3.722506    1.136049
     56          1           0      -28.158729   -4.425566    2.247116
     57          1           0      -35.607858   -4.956244    1.527282
     58          1           0      -34.429611   -5.548601    0.430917
     59          1           0      -36.074603   -5.632073   -0.066518
     60          1           0      -38.245273   -1.043201    1.521044
     61          1           0      -39.631209   -2.074367    1.185355
     62          1           0      -38.788118   -1.191548   -0.223665
     63          1           0      -36.930554    2.627482    0.782950
     64          1           0      -35.402546    4.602375   -0.935644
     65          1           0      -38.515706    2.775604   -0.673656
     66          1           0      -37.393661    2.325390   -2.063318
     67          1           0      -37.616771    4.006765   -1.465275
     68          1           0      -34.904365    4.123932    1.942326
     69          1           0      -36.525904    4.571757    1.693702
     70          1           0      -36.073287    6.643810    1.534165
     71          1           0      -34.794379    6.499651    0.232648
     72          1           0      -34.396370    6.368315    1.946290
     73          1           0      -29.012113    5.471725    0.355487
     74          1           0      -30.766246    5.597100   -0.084360
     75          1           0      -29.687128    5.314994   -1.361545
     76          1           0      -27.322035    0.345103    0.703755
     77          1           0      -24.849644   -1.365722   -2.245459
     78          1           0      -26.325345   -1.527281   -3.212633
     79          1           0      -25.982843   -2.733692   -2.027454
     80         12           0       32.398722    0.659637   -0.684053
     81          6           0       30.264131   -2.037994    0.190455
     82          6           0       30.141563    2.772777    0.930568
     83          6           0       34.871901    2.820666   -0.461597
     84          6           0       34.686078   -1.878611   -1.999068
     85          7           0       30.496417    0.319392    0.676565
     86          6           0       29.730492   -0.798551    0.624833
     87          6           0       28.359243   -0.495157    1.201448
     88          6           0       28.142238    0.984425    0.883692
     89          6           0       29.695619    1.420290    0.878188
     90          6           0       27.500076    1.357814   -0.453674
     91          6           0       28.318906   -0.920367    2.733899
     92          6           0       27.082672   -1.651964    3.082353
     93          1           0       26.405977   -1.311087    4.424312
     94          7           0       32.550684    2.577948    0.175818
     95          6           0       31.467129    3.306850    0.725914
     96          6           0       31.987097    4.604277    1.077320
     97          6           0       33.327396    4.727501    0.624281
     98          6           0       33.678723    3.359568    0.100642
     99          6           0       31.104082    5.632617    1.777130
    100          6           0       34.202245    5.906366    0.793017
    101          8           0       33.756419    6.895400    1.361506
    102          6           0       35.644765    6.017665    0.422481
    103          7           0       34.581476    0.409987   -1.104920
    104          6           0       35.266712    1.570647   -1.095764
    105          6           0       36.663575    1.382448   -1.714794
    106          6           0       36.583635   -0.108497   -2.371201
    107          6           0       35.197654   -0.569339   -1.850428
    108          6           0       37.126271    2.565516   -2.679073
    109          6           0       37.765511   -1.064123   -2.016185
    110          6           0       37.542531   -2.103395   -0.865078
    111          7           0       32.497426   -1.426000   -0.884612
    112          6           0       33.457763   -2.281203   -1.496365
    113          6           0       32.855042   -3.679867   -1.615700
    114          6           0       31.659994   -3.572299   -0.922505
    115          6           0       31.489961   -2.197959   -0.524490
    116          6           0       33.369819   -4.986073   -2.250568
    117          6           0       30.489501   -4.287951   -0.524526
    118          8           0       30.142232   -5.445778   -0.763131
    119          6           0       29.701584   -3.336664    0.303413
    120          6           0       29.879812   -3.892776    1.734695
    121          8           0       30.855604   -3.757319    2.469849
    122          8           0       28.724026   -4.667673    2.030279
    123          6           0       28.695070   -5.385814    3.239318
    124          1           0       29.435671    3.500744    1.336150
    125          1           0       35.569074    3.659998   -0.500296
    126          1           0       35.230447   -2.678309   -2.504263
    127          1           0       27.549239   -1.002580    0.677718
    128          1           0       27.565675    1.615768    1.558797
    129          1           0       26.952713    0.540478   -0.922316
    130          1           0       28.191822    1.908226   -1.091824
    131          1           0       26.736547    2.073994   -0.147797
    132          1           0       28.335493   -0.017605    3.344607
    133          1           0       29.224225   -1.415645    3.085057
    134          1           0       27.424026   -2.685845    3.045108
    135          1           0       26.347298   -1.471156    2.298510
    136          1           0       30.775755    6.432237    1.113405
    137          1           0       31.626844    5.997177    2.660181
    138          1           0       30.193487    5.160159    2.145792
    139          1           0       35.718087    6.002097   -0.665216
    140          1           0       36.302457    5.250613    0.833180
    141          1           0       36.029209    7.020441    0.604882
    142          1           0       37.309432    1.320258   -0.839209
    143          1           0       36.460952   -0.004924   -3.448783
    144          1           0       36.607015    3.493209   -2.438929
    145          1           0       37.138173    2.397700   -3.756665
    146          1           0       38.207162    2.576721   -2.530405
    147          1           0       38.684980   -0.522939   -1.794516
    148          1           0       37.886111   -1.627068   -2.941422
    149          1           0       38.578866   -2.110815   -0.526544
    150          1           0       37.243961   -3.115942   -1.137445
    151          1           0       36.889683   -1.639206   -0.125592
    152          1           0       32.681559   -5.347357   -3.013887
    153          1           0       33.197416   -5.622959   -1.383478
    154          1           0       34.426111   -4.845735   -2.478994
    155          1           0       28.648929   -3.401005    0.027720
    156          1           0       27.787642   -5.969179    3.400277
    157          1           0       28.772506   -4.661205    4.048920
    158          1           0       29.558072   -6.050451    3.190430
 ---------------------------------------------------------------------

 SCF Done:  E(RwB97XD) =  -4070.56874496     A.U. after   19 cycles

 Excitation energies and oscillator strengths:

 Excited State   1:      Singlet-A      1.6240 eV  763.45 nm  f=0.3516  <S**2>=0.000
     310 -> 315        0.20444
     312 -> 314        0.67799
     310 <- 315        0.12291
 This state for optimization and/or second-order correction.
 Total Energy, E(TD-HF/TD-DFT) =  -4070.50906408
 Copying the excited state density for this state as the 1-particle RhoCI density.

 Excited State   2:      Singlet-A      1.7222 eV  719.91 nm  f=0.3961  <S**2>=0.000
     309 -> 316       -0.17625
     311 -> 313        0.68546
     309 <- 316       -0.11115

 Excited State   3:      Singlet-A      2.1335 eV  581.12 nm  f=0.0542  <S**2>=0.000
     310 -> 314        0.61278
     312 -> 315       -0.34218

 Excited State   4:      Singlet-A      2.2424 eV  552.91 nm  f=0.1148  <S**2>=0.000
     309 -> 313        0.63519
     311 -> 316        0.29254

 Excited State   5:      Singlet-A      3.2983 eV  375.90 nm  f=0.0028  <S**2>=0.000
     301 -> 313        0.12796
     305 -> 313       -0.39988
     307 -> 313        0.53020
     311 -> 316        0.11707

 The electronic state is 1-A.
 Alpha  occ. eigenvalues --  -46.97653 -46.96011 -19.30181 -19.29951 -19.26343
 Alpha  occ. eigenvalues --  -19.25411 -19.23993 -19.23764 -19.23534 -19.22570
 Alpha  occ. eigenvalues --  -14.47237 -14.46994 -14.46977 -14.46514 -14.44868
 Alpha  occ. eigenvalues --  -14.44832 -14.44343 -14.43662 -10.44501 -10.43341
 Alpha  occ. eigenvalues --  -10.38866 -10.38583 -10.38122 -10.38058 -10.36458
 Alpha  occ. eigenvalues --  -10.35850 -10.35723 -10.35458 -10.35457 -10.35357
 Alpha  occ. eigenvalues --  -10.35343 -10.35200 -10.35064 -10.35046 -10.34960
 Alpha  occ. eigenvalues --  -10.34863 -10.34772 -10.34553 -10.34115 -10.33800
 Alpha  occ. eigenvalues --  -10.33572 -10.33489 -10.33170 -10.32835 -10.32573
 Alpha  occ. eigenvalues --  -10.32557 -10.32454 -10.32441 -10.32333 -10.32281
 Alpha  occ. eigenvalues --  -10.32279 -10.32259 -10.32251 -10.32246 -10.32166
 Alpha  occ. eigenvalues --  -10.32021 -10.31953 -10.31941 -10.31910 -10.31778
 Alpha  occ. eigenvalues --  -10.31776 -10.31644 -10.31619 -10.31611 -10.31456
 Alpha  occ. eigenvalues --  -10.31441 -10.31173 -10.31070 -10.31040 -10.30898
 Alpha  occ. eigenvalues --  -10.30717 -10.30666 -10.30501 -10.30404 -10.30333
 Alpha  occ. eigenvalues --  -10.30220 -10.30167 -10.30152 -10.29988 -10.29879
 Alpha  occ. eigenvalues --  -10.29624 -10.29510 -10.29438 -10.29179 -10.29040
 Alpha  occ. eigenvalues --  -10.27935  -3.23359  -3.21889  -1.96874  -1.96520
 Alpha  occ. eigenvalues --   -1.96270  -1.95481  -1.95013  -1.94842  -1.18769
 Alpha  occ. eigenvalues --   -1.17988  -1.12535  -1.12385  -1.11848  -1.11544
 Alpha  occ. eigenvalues --   -1.11027  -1.10857  -1.06603  -1.06207  -1.05844
 Alpha  occ. eigenvalues --   -1.05740  -1.05442  -1.04873  -1.04865  -1.03293
 Alpha  occ. eigenvalues --   -0.96403  -0.95225  -0.91292  -0.91188  -0.91029
 Alpha  occ. eigenvalues --   -0.90715  -0.90622  -0.90024  -0.89680  -0.89204
 Alpha  occ. eigenvalues --   -0.88786  -0.88429  -0.87907  -0.87503  -0.87155
 Alpha  occ. eigenvalues --   -0.86691  -0.85924  -0.85568  -0.85093  -0.84609
 Alpha  occ. eigenvalues --   -0.84530  -0.83554  -0.83247  -0.82831  -0.82806
 Alpha  occ. eigenvalues --   -0.82234  -0.79983  -0.79720  -0.79271  -0.79191
 Alpha  occ. eigenvalues --   -0.79074  -0.78799  -0.78137  -0.77961  -0.77500
 Alpha  occ. eigenvalues --   -0.77149  -0.75216  -0.74742  -0.74042  -0.73825
 Alpha  occ. eigenvalues --   -0.71836  -0.71317  -0.70990  -0.70716  -0.69762
 Alpha  occ. eigenvalues --   -0.69249  -0.68817  -0.68766  -0.67997  -0.67562
 Alpha  occ. eigenvalues --   -0.67304  -0.66973  -0.66913  -0.66692  -0.66622
 Alpha  occ. eigenvalues --   -0.66547  -0.64676  -0.64216  -0.62313  -0.61920
 Alpha  occ. eigenvalues --   -0.61881  -0.61762  -0.61300  -0.61267  -0.60859
 Alpha  occ. eigenvalues --   -0.60795  -0.60455  -0.60266  -0.59572  -0.59008
 Alpha  occ. eigenvalues --   -0.58504  -0.58093  -0.57933  -0.57838  -0.57616
 Alpha  occ. eigenvalues --   -0.57457  -0.56849  -0.56838  -0.56506  -0.56324
 Alpha  occ. eigenvalues --   -0.55953  -0.55634  -0.55530  -0.55296  -0.55283
 Alpha  occ. eigenvalues --   -0.55110  -0.54971  -0.54582  -0.54566  -0.54088
 Alpha  occ. eigenvalues --   -0.53888  -0.53856  -0.53664  -0.53619  -0.53605
 Alpha  occ. eigenvalues --   -0.53329  -0.53244  -0.52814  -0.52657  -0.52476
 Alpha  occ. eigenvalues --   -0.52307  -0.52207  -0.52084  -0.51897  -0.51802
 Alpha  occ. eigenvalues --   -0.51395  -0.51250  -0.51162  -0.50974  -0.50902
 Alpha  occ. eigenvalues --   -0.50835  -0.50420  -0.50250  -0.50175  -0.50070
 Alpha  occ. eigenvalues --   -0.49699  -0.49488  -0.49396  -0.49337  -0.49111
 Alpha  occ. eigenvalues --   -0.49090  -0.48994  -0.48770  -0.48422  -0.48341
 Alpha  occ. eigenvalues --   -0.48087  -0.48008  -0.47896  -0.47824  -0.47793
 Alpha  occ. eigenvalues --   -0.47788  -0.47358  -0.47306  -0.47227  -0.47057
 Alpha  occ. eigenvalues --   -0.47030  -0.46645  -0.46484  -0.46364  -0.46087
 Alpha  occ. eigenvalues --   -0.46020  -0.45872  -0.45795  -0.45652  -0.45439
 Alpha  occ. eigenvalues --   -0.45296  -0.45208  -0.45167  -0.44985  -0.44887
 Alpha  occ. eigenvalues --   -0.44643  -0.44341  -0.44341  -0.44245  -0.44097
 Alpha  occ. eigenvalues --   -0.43966  -0.43828  -0.43488  -0.43416  -0.43303
 Alpha  occ. eigenvalues --   -0.42957  -0.42868  -0.42497  -0.42324  -0.42160
 Alpha  occ. eigenvalues --   -0.41948  -0.41801  -0.41606  -0.41059  -0.40738
 Alpha  occ. eigenvalues --   -0.40495  -0.40173  -0.40127  -0.39877  -0.39671
 Alpha  occ. eigenvalues --   -0.39623  -0.38900  -0.38593  -0.38537  -0.38311
 Alpha  occ. eigenvalues --   -0.38030  -0.37717  -0.37205  -0.37175  -0.36279
 Alpha  occ. eigenvalues --   -0.36222  -0.35928  -0.35609  -0.33997  -0.33528
 Alpha  occ. eigenvalues --   -0.33063  -0.32978  -0.32708  -0.32616  -0.32267
 Alpha  occ. eigenvalues --   -0.32138  -0.32131  -0.31625  -0.26616  -0.25959
 Alpha  occ. eigenvalues --   -0.23491  -0.22828
 Alpha virt. eigenvalues --   -0.07380  -0.06877  -0.00724  -0.00032   0.01858
 Alpha virt. eigenvalues --    0.02932   0.02981   0.04320   0.04820   0.05201
 Alpha virt. eigenvalues --    0.06856   0.06947   0.07575   0.07576   0.08416

 Mulliken charges:
               1
     1  Mg   0.953626
     2  C   -0.018645
     3  C   -0.078223
     4  C   -0.102310
     5  C   -0.070801
     6  N   -0.331751
     7  C   -0.062220
     8  C    0.031375
     9  C   -0.153707
    10  C    0.038869
    11  C    0.036051
    12  C    0.038164
    13  C   -0.109478
    14  H    0.041409
    15  N   -0.434261
    16  C    0.181879
    17  C   -0.135689
    18  C   -0.120998
    19  C    0.236161
    20  C    0.062923
    21  C    0.024884
    22  O   -0.229586
    23  C    0.002057
    24  N   -0.396462
    25  C    0.068655
    26  C   -0.119379
    27  C   -0.096983
    28  C    0.094286
    29  C    0.022078
    30  C   -0.030760
    31  C   -0.043153
    32  N   -0.425189
    33  C    0.086002
    34  C   -0.233662
    35  C    0.018453
    36  C    0.142860
    37  C    0.107305
    38  C    0.094463
    39  O   -0.186566
    40  C   -0.073824
    41  C    0.260013
    42  O   -0.213118
    43  O   -0.378401
    44  C    0.124737
    45  H   -0.006360
    46  H   -0.019704
    47  H   -0.006016
    48  H    0.020849
    49  H    0.031371
    50  H    0.043442
    51  H    0.049284
    52  H    0.029117
    53  H    0.029821
    54  H    0.035467
    55  H    0.036427
    56  H    0.039788
    57  H    0.058605
    58  H    0.019602
    59  H    0.074527
    60  H    0.052398
    61  H    0.058020
    62  H    0.078975
    63  H    0.040396
    64  H    0.042193
    65  H    0.035905
    66  H    0.050041
    67  H    0.035382
    68  H    0.033113
    69  H    0.030001
    70  H    0.038276
    71  H    0.042310
    72  H    0.038963
    73  H    0.070618
    74  H    0.005443
    75  H    0.058176
    76  H    0.072912
    77  H    0.057127
    78  H    0.062228
    79  H    0.040215
    80  Mg   0.936459
    81  C    0.010803
    82  C   -0.075205
    83  C   -0.029810
    84  C   -0.064612
    85  N   -0.298140
    86  C   -0.021687
    87  C   -0.051814
    88  C   -0.134169
    89  C    0.044089
    90  C    0.038272
    91  C    0.033555
    92  C   -0.116996
    93  H    0.034899
    94  N   -0.490151
    95  C    0.145636
    96  C   -0.165448
    97  C   -0.025057
    98  C    0.111629
    99  C    0.096177
   100  C   -0.007010
   101  O   -0.246444
   102  C    0.014052
   103  N   -0.325899
   104  C    0.062800
   105  C   -0.098253
   106  C   -0.020500
   107  C    0.007823
   108  C    0.005976
   109  C   -0.047041
   110  C   -0.048154
   111  N   -0.422832
   112  C    0.106545
   113  C   -0.210706
   114  C   -0.023508
   115  C    0.162283
   116  C    0.090965
   117  C    0.075739
   118  O   -0.216280
   119  C   -0.055074
   120  C    0.276542
   121  O   -0.229464
   122  O   -0.374843
   123  C    0.144823
   124  H    0.004543
   125  H   -0.047395
   126  H   -0.000877
   127  H    0.012668
   128  H    0.029584
   129  H    0.042142
   130  H    0.047023
   131  H    0.028416
   132  H    0.032678
   133  H    0.056515
   134  H    0.045301
   135  H    0.046273
   136  H    0.058348
   137  H    0.061383
   138  H    0.009498
   139  H    0.040877
   140  H    0.071630
   141  H    0.046911
   142  H    0.050770
   143  H    0.037824
   144  H    0.052395
   145  H    0.033868
   146  H    0.031525
   147  H    0.040209
   148  H    0.030986
   149  H    0.035606
   150  H    0.046459
   151  H    0.060505
   152  H    0.072922
   153  H    0.067991
   154  H    0.038967
   155  H    0.061021
   156  H    0.058038
   157  H    0.041805
   158  H    0.053626
 Sum of Mulliken charges =  -0.00000

 Dipole moment (field-independent basis, Debye):
    X=             -2.0485    Y=             -0.4593    Z=             -3.5831  Tot=              4.1528
 Quadrupole moment (field-independent basis, Debye-Ang):
   XX=           -250.6084   YY=           -539.5840   ZZ=           -507.8732
   XY=            -36.2027   XZ=           -155.2568   YZ=             -6.5692

 Normal termination of Gaussian 16 at Mon Sep 20 17:02:01 2021.
