 Gaussian 16, Revision A.03,
 Gaussian 16:  ES64L-G16RevA.03 25-Dec-2016

 --------------------------------
 #p wB97XD/Def2SVP td=(nstates=5)
 --------------------------------

 --------------------------------
 TDDFT excited states in gaussian
 --------------------------------
 Symbolic Z-matrix:
 Charge =  0 Multiplicity = 1

                         Standard orientation:
 ---------------------------------------------------------------------
 Center     Atomic      Atomic             Coordinates (Angstroms)
 Number     Number       Type             X           Y           Z
 ---------------------------------------------------------------------
      1         12           0       27.885907    0.521611    0.057111
      2          6           0       24.797304   -0.643192   -0.922710
      3          6           0       26.459994    1.672059    2.939391
      4          6           0       30.899233    0.440614    1.408415
      5          6           0       29.191423   -0.760536   -2.939422
      6          7           0       25.921100    0.063804    1.054609
      7          6           0       24.774233   -0.201854    0.377753
      8          6           0       23.546704   -0.012988    1.219132
      9          6           0       24.065496    1.082270    2.206204
     10          6           0       25.572510    0.999499    2.013453
     11          6           0       23.437156    2.481896    1.948828
     12          6           0       23.129004   -1.359187    1.998374
     13          6           0       21.556839   -1.587843    2.178668
     14          1           0       21.262999   -1.648051    3.657205
     15          7           0       28.592561    1.184451    1.861143
     16          6           0       27.900084    1.543424    2.964398
     17          6           0       28.806164    1.853361    4.063100
     18          6           0       30.104371    1.530135    3.617668
     19          6           0       29.894652    1.019090    2.233931
     20          6           0       28.271075    2.358322    5.425072
     21          6           0       31.300218    1.517449    4.528535
     22          8           0       31.178664    1.873507    5.671640
     23          6           0       32.703506    1.025971    4.125019
     24          7           0       29.853318    0.046500   -0.683384
     25          6           0       30.872058    0.080896    0.054721
     26          6           0       32.089589   -0.468686   -0.591718
     27          6           0       31.564214   -0.858703   -2.029014
     28          6           0       30.142077   -0.521118   -1.905297
     29          6           0       33.287701    0.537563   -0.522373
     30          6           0       31.802974   -2.405022   -2.356984
     31          6           0       31.756806   -2.841009   -3.864666
     32          7           0       27.194947   -0.418161   -1.645469
     33          6           0       27.832770   -0.779606   -2.818264
     34          6           0       26.878164   -1.216024   -3.799196
     35          6           0       25.623678   -1.131299   -3.099609
     36          6           0       25.891039   -0.753206   -1.798006
     37          6           0       27.140474   -1.648987   -5.205640
     38          6           0       24.220350   -1.304856   -3.251953
     39          8           0       23.477780   -1.669263   -4.172740
     40          6           0       23.646668   -1.184924   -1.801255
     41          6           0       22.423298   -0.335437   -1.895682
     42          8           0       21.269172   -0.768438   -2.021041
     43          8           0       22.775434    0.985958   -1.880673
     44          6           0       21.546537    1.816009   -2.024524
     45          1           0       26.092685    2.195707    3.824877
     46          1           0       31.870797    0.369940    1.900765
     47          1           0       29.610918   -1.277008   -3.806170
     48          1           0       22.816303    0.402579    0.526077
     49          1           0       23.756841    0.821985    3.218803
     50          1           0       22.843076    2.773939    2.814303
     51          1           0       22.732175    2.368817    1.124577
     52          1           0       24.248018    3.161128    1.687545
     53          1           0       23.619259   -1.534113    2.955935
     54          1           0       23.482675   -2.234660    1.454748
     55          1           0       21.386274   -2.582910    1.767482
     56          1           0       20.851947   -0.944694    1.651678
     57          1           0       28.528200    1.733136    6.280052
     58          1           0       27.195687    2.538941    5.440979
     59          1           0       28.679855    3.357729    5.570253
     60          1           0       33.165293    1.633498    3.347397
     61          1           0       32.732751   -0.023481    3.830861
     62          1           0       33.259412    0.992781    5.062514
     63          1           0       32.291212   -1.370694   -0.014090
     64          1           0       31.895742   -0.265981   -2.881243
     65          1           0       34.094015    0.030373    0.007001
     66          1           0       33.011613    1.465711   -0.021634
     67          1           0       33.786752    0.703338   -1.477007
     68          1           0       31.067485   -3.015532   -1.832694
     69          1           0       32.781811   -2.636101   -1.939323
     70          1           0       32.620107   -3.301314   -4.344437
     71          1           0       31.580602   -1.978500   -4.505963
     72          1           0       30.934982   -3.537837   -4.029487
     73          1           0       28.148693   -1.488272   -5.586930
     74          1           0       26.391307   -1.044077   -5.714867
     75          1           0       26.788106   -2.679065   -5.150482
     76          1           0       23.410492   -2.140404   -1.331658
     77          1           0       21.152092    1.704169   -3.033975
     78          1           0       21.756269    2.885567   -2.010184
     79          1           0       20.858169    1.524257   -1.231072
     80         12           0      -26.853343   -0.614929    0.472236
     81          6           0      -28.025579    2.638865   -0.247880
     82          6           0      -24.458459   -0.276554   -1.769299
     83          6           0      -26.422081   -4.001064    0.616917
     84          6           0      -30.129017   -1.170769    2.095871
     85          7           0      -26.373355    1.015172   -0.888928
     86          6           0      -26.810148    2.290347   -0.839679
     87          6           0      -25.860559    3.181531   -1.664085
     88          6           0      -24.749672    2.285558   -2.109623
     89          6           0      -25.211941    0.885872   -1.602825
     90          6           0      -24.394840    2.457764   -3.643154
     91          6           0      -25.364090    4.526055   -1.034692
     92          6           0      -23.906848    5.102665   -1.295417
     93          1           0      -23.757025    6.597856   -1.612237
     94          7           0      -25.437850   -1.893407   -0.278048
     95          6           0      -24.498695   -1.538550   -1.219922
     96          6           0      -23.665675   -2.683134   -1.456775
     97          6           0      -24.223439   -3.848166   -0.799446
     98          6           0      -25.433816   -3.286047   -0.160599
     99          6           0      -22.544367   -2.540961   -2.404510
    100          6           0      -23.696213   -5.300549   -0.694301
    101          8           0      -24.336132   -6.129322   -0.135609
    102          6           0      -22.284638   -5.620440   -1.064816
    103          7           0      -28.160751   -2.335163    1.212629
    104          6           0      -27.611381   -3.570281    1.234708
    105          6           0      -28.542712   -4.614601    1.929330
    106          6           0      -29.715352   -3.725446    2.444911
    107          6           0      -29.361036   -2.322218    1.893352
    108          6           0      -29.023943   -5.741901    1.055003
    109          6           0      -29.976937   -3.668836    3.990667
    110          6           0      -29.091333   -2.830306    4.848952
    111          7           0      -28.734770    0.410555    0.914575
    112          6           0      -29.869119    0.069454    1.593826
    113          6           0      -30.711413    1.232579    1.730723
    114          6           0      -30.063984    2.286107    1.033147
    115          6           0      -28.883885    1.714571    0.515525
    116          6           0      -32.083010    1.302735    2.303414
    117          6           0      -30.145390    3.655447    0.611620
    118          8           0      -30.956892    4.551624    0.813113
    119          6           0      -28.806013    3.964544   -0.196396
    120          6           0      -29.061926    4.635727   -1.535254
    121          8           0      -29.639470    4.108826   -2.450872
    122          8           0      -28.491103    5.898495   -1.528499
    123          6           0      -28.716421    6.641044   -2.769148
    124          1           0      -23.526396   -0.190806   -2.332447
    125          1           0      -26.186383   -5.066187    0.660266
    126          1           0      -31.050382   -1.302748    2.666778
    127          1           0      -26.558073    3.460186   -2.453989
    128          1           0      -23.842363    2.614080   -1.601959
    129          1           0      -24.945689    3.306360   -4.048473
    130          1           0      -24.539026    1.490482   -4.124405
    131          1           0      -23.363044    2.783655   -3.775955
    132          1           0      -25.448517    4.411060    0.046211
    133          1           0      -26.035333    5.353996   -1.264328
    134          1           0      -23.528006    4.507106   -2.126253
    135          1           0      -23.278936    4.879737   -0.432704
    136          1           0      -22.487483   -3.492374   -2.932876
    137          1           0      -21.637155   -2.437236   -1.810450
    138          1           0      -22.514077   -1.744868   -3.148617
    139          1           0      -22.380667   -5.902757   -2.112417
    140          1           0      -21.893849   -6.362957   -0.368406
    141          1           0      -21.605873   -4.767446   -1.081161
    142          1           0      -28.096414   -5.013916    2.840302
    143          1           0      -30.712111   -3.850534    2.023080
    144          1           0      -28.486447   -5.768317    0.106221
    145          1           0      -30.076020   -5.637231    0.788582
    146          1           0      -28.837704   -6.651890    1.624845
    147          1           0      -29.943538   -4.676784    4.404361
    148          1           0      -31.031442   -3.433680    4.136727
    149          1           0      -28.133377   -2.678488    4.351213
    150          1           0      -28.768634   -3.174522    5.831795
    151          1           0      -29.664766   -1.922288    5.038127
    152          1           0      -32.818064    0.666492    1.811315
    153          1           0      -32.477194    2.267736    1.983858
    154          1           0      -32.078799    1.161486    3.384570
    155          1           0      -28.218757    4.618388    0.448680
    156          1           0      -27.655311    6.572317   -3.006772
    157          1           0      -29.027319    7.624534   -2.417535
    158          1           0      -29.403834    6.140397   -3.451337
 ---------------------------------------------------------------------

 SCF Done:  E(RwB97XD) =  -4070.58505926     A.U. after   19 cycles

 Excitation energies and oscillator strengths:

 Excited State   1:      Singlet-A      1.6417 eV  755.20 nm  f=0.3820  <S**2>=0.000
     310 -> 316        0.19300
     312 -> 314        0.68160
     310 <- 316        0.12001
 This state for optimization and/or second-order correction.
 Total Energy, E(TD-HF/TD-DFT) =  -4070.52472606
 Copying the excited state density for this state as the 1-particle RhoCI density.

 Excited State   2:      Singlet-A      1.6577 eV  747.94 nm  f=0.3618  <S**2>=0.000
     309 -> 315       -0.16763
     311 -> 313        0.68557
     309 <- 315       -0.10880

 Excited State   3:      Singlet-A      2.1320 eV  581.55 nm  f=0.1060  <S**2>=0.000
     310 -> 314        0.64022
     312 -> 316       -0.28534

 Excited State   4:      Singlet-A      2.1685 eV  571.75 nm  f=0.1043  <S**2>=0.000
     309 -> 313        0.63811
     311 -> 315        0.28227

 Excited State   5:      Singlet-A      3.3485 eV  370.27 nm  f=0.0010  <S**2>=0.000
     306 -> 314       -0.21783
     307 -> 314        0.65031

 The electronic state is 1-A.
 Alpha  occ. eigenvalues --  -46.96311 -46.95594 -19.30763 -19.29961 -19.24934
 Alpha  occ. eigenvalues --  -19.24626 -19.24578 -19.24006 -19.23659 -19.22908
 Alpha  occ. eigenvalues --  -14.46776 -14.46708 -14.46524 -14.46356 -14.44989
 Alpha  occ. eigenvalues --  -14.44086 -14.43369 -14.43158 -10.42944 -10.42519
 Alpha  occ. eigenvalues --  -10.39815 -10.39667 -10.38793 -10.38043 -10.36476
 Alpha  occ. eigenvalues --  -10.35902 -10.35658 -10.35469 -10.35184 -10.35122
 Alpha  occ. eigenvalues --  -10.34973 -10.34947 -10.34724 -10.34715 -10.34329
 Alpha  occ. eigenvalues --  -10.34190 -10.33952 -10.33672 -10.33587 -10.33462
 Alpha  occ. eigenvalues --  -10.33009 -10.32809 -10.32759 -10.32534 -10.32463
 Alpha  occ. eigenvalues --  -10.32298 -10.32289 -10.32274 -10.32196 -10.32136
 Alpha  occ. eigenvalues --  -10.32061 -10.32047 -10.31878 -10.31876 -10.31857
 Alpha  occ. eigenvalues --  -10.31768 -10.31712 -10.31676 -10.31650 -10.31531
 Alpha  occ. eigenvalues --  -10.31413 -10.31381 -10.31324 -10.31296 -10.31272
 Alpha  occ. eigenvalues --  -10.30944 -10.30912 -10.30738 -10.30732 -10.30693
 Alpha  occ. eigenvalues --  -10.30680 -10.30620 -10.30614 -10.30426 -10.30410
 Alpha  occ. eigenvalues --  -10.30397 -10.30236 -10.30127 -10.30117 -10.30037
 Alpha  occ. eigenvalues --  -10.30030 -10.29245 -10.28926 -10.28892 -10.28754
 Alpha  occ. eigenvalues --  -10.28401  -3.22105  -3.21606  -1.95658  -1.95228
 Alpha  occ. eigenvalues --   -1.95181  -1.95055  -1.94743  -1.94569  -1.18435
 Alpha  occ. eigenvalues --   -1.18108  -1.15105  -1.14267  -1.11421  -1.10721
 Alpha  occ. eigenvalues --   -1.10287  -1.09080  -1.08626  -1.06711  -1.06195
 Alpha  occ. eigenvalues --   -1.05999  -1.05113  -1.04834  -1.04494  -1.03851
 Alpha  occ. eigenvalues --   -0.94446  -0.93552  -0.91630  -0.91139  -0.90717
 Alpha  occ. eigenvalues --   -0.90635  -0.90168  -0.90159  -0.89284  -0.89267
 Alpha  occ. eigenvalues --   -0.89093  -0.88960  -0.88547  -0.88012  -0.86237
 Alpha  occ. eigenvalues --   -0.85858  -0.85699  -0.85573  -0.84428  -0.84201
 Alpha  occ. eigenvalues --   -0.83882  -0.83769  -0.82852  -0.82760  -0.82343
 Alpha  occ. eigenvalues --   -0.82307  -0.80371  -0.80242  -0.79843  -0.79038
 Alpha  occ. eigenvalues --   -0.78991  -0.78742  -0.77896  -0.77783  -0.77469
 Alpha  occ. eigenvalues --   -0.76577  -0.74668  -0.74297  -0.74242  -0.73409
 Alpha  occ. eigenvalues --   -0.72406  -0.71705  -0.71353  -0.71169  -0.70187
 Alpha  occ. eigenvalues --   -0.70160  -0.69704  -0.68911  -0.68771  -0.67330
 Alpha  occ. eigenvalues --   -0.66907  -0.66886  -0.66486  -0.66208  -0.66066
 Alpha  occ. eigenvalues --   -0.65983  -0.64409  -0.63665  -0.62600  -0.62022
 Alpha  occ. eigenvalues --   -0.61592  -0.61486  -0.61210  -0.60795  -0.60780
 Alpha  occ. eigenvalues --   -0.60295  -0.60016  -0.59956  -0.59365  -0.58993
 Alpha  occ. eigenvalues --   -0.58609  -0.58131  -0.58026  -0.57824  -0.57671
 Alpha  occ. eigenvalues --   -0.57310  -0.56970  -0.56955  -0.56506  -0.56095
 Alpha  occ. eigenvalues --   -0.55976  -0.55650  -0.55572  -0.55272  -0.54954
 Alpha  occ. eigenvalues --   -0.54689  -0.54686  -0.54358  -0.54271  -0.53964
 Alpha  occ. eigenvalues --   -0.53653  -0.53634  -0.53141  -0.53133  -0.53118
 Alpha  occ. eigenvalues --   -0.52854  -0.52738  -0.52555  -0.52496  -0.52437
 Alpha  occ. eigenvalues --   -0.52211  -0.52194  -0.51931  -0.51872  -0.51684
 Alpha  occ. eigenvalues --   -0.51408  -0.51085  -0.51084  -0.50913  -0.50863
 Alpha  occ. eigenvalues --   -0.50644  -0.50626  -0.50499  -0.50271  -0.50262
 Alpha  occ. eigenvalues --   -0.49728  -0.49623  -0.49595  -0.49381  -0.49154
 Alpha  occ. eigenvalues --   -0.49049  -0.48909  -0.48764  -0.48704  -0.48230
 Alpha  occ. eigenvalues --   -0.48186  -0.47945  -0.47834  -0.47732  -0.47703
 Alpha  occ. eigenvalues --   -0.47440  -0.47352  -0.47348  -0.47106  -0.46588
 Alpha  occ. eigenvalues --   -0.46535  -0.46488  -0.46373  -0.46271  -0.46226
 Alpha  occ. eigenvalues --   -0.46157  -0.45984  -0.45962  -0.45622  -0.45549
 Alpha  occ. eigenvalues --   -0.45311  -0.45199  -0.45131  -0.44956  -0.44900
 Alpha  occ. eigenvalues --   -0.44884  -0.44543  -0.44497  -0.44310  -0.44105
 Alpha  occ. eigenvalues --   -0.43943  -0.43854  -0.43838  -0.43747  -0.43396
 Alpha  occ. eigenvalues --   -0.43366  -0.43134  -0.42785  -0.42685  -0.42460
 Alpha  occ. eigenvalues --   -0.42001  -0.42000  -0.41530  -0.41079  -0.40823
 Alpha  occ. eigenvalues --   -0.40602  -0.40247  -0.40019  -0.39823  -0.39639
 Alpha  occ. eigenvalues --   -0.39314  -0.38977  -0.38911  -0.38790  -0.38433
 Alpha  occ. eigenvalues --   -0.37897  -0.37645  -0.36995  -0.36577  -0.35827
 Alpha  occ. eigenvalues --   -0.35540  -0.35355  -0.35351  -0.33995  -0.33731
 Alpha  occ. eigenvalues --   -0.33609  -0.33011  -0.32814  -0.32609  -0.32032
 Alpha  occ. eigenvalues --   -0.31993  -0.31486  -0.31051  -0.26167  -0.25716
 Alpha  occ. eigenvalues --   -0.23006  -0.22829
 Alpha virt. eigenvalues --   -0.07137  -0.06979   0.00116   0.00314   0.02273
 Alpha virt. eigenvalues --    0.02491   0.04129   0.04269   0.04658   0.05117
 Alpha virt. eigenvalues --    0.06946   0.07031   0.07817   0.08103   0.08522

 Mulliken charges:
               1
     1  Mg   0.966611
     2  C    0.016090
     3  C   -0.089491
     4  C   -0.073365
     5  C   -0.081599
     6  N   -0.340725
     7  C   -0.050186
     8  C   -0.024468
     9  C   -0.146503
    10  C    0.111063
    11  C    0.045252
    12  C    0.022932
    13  C   -0.129954
    14  H    0.028868
    15  N   -0.460510
    16  C    0.119291
    17  C   -0.139312
    18  C   -0.060610
    19  C    0.168409
    20  C    0.086803
    21  C    0.018638
    22  O   -0.211049
    23  C   -0.019660
    24  N   -0.295260
    25  C    0.031313
    26  C   -0.087933
    27  C   -0.051450
    28  C    0.005508
    29  C    0.018783
    30  C   -0.018483
    31  C   -0.065368
    32  N   -0.450895
    33  C    0.151134
    34  C   -0.200789
    35  C   -0.007624
    36  C    0.105957
    37  C    0.098576
    38  C    0.085855
    39  O   -0.226243
    40  C   -0.061211
    41  C    0.241384
    42  O   -0.258113
    43  O   -0.370124
    44  C    0.138513
    45  H    0.002885
    46  H   -0.045468
    47  H   -0.027236
    48  H    0.026011
    49  H    0.042448
    50  H    0.041596
    51  H    0.029817
    52  H    0.040829
    53  H    0.040691
    54  H    0.032347
    55  H    0.057543
    56  H    0.062896
    57  H    0.069790
    58  H    0.019219
    59  H    0.052828
    60  H    0.067233
    61  H    0.060702
    62  H    0.051552
    63  H    0.046699
    64  H    0.041971
    65  H    0.030595
    66  H    0.057224
    67  H    0.038743
    68  H    0.041064
    69  H    0.036571
    70  H    0.040123
    71  H    0.033033
    72  H    0.044192
    73  H    0.043276
    74  H    0.065001
    75  H    0.064729
    76  H    0.078445
    77  H    0.064861
    78  H    0.047291
    79  H    0.060443
    80  Mg   0.948095
    81  C   -0.025671
    82  C   -0.065326
    83  C   -0.063916
    84  C   -0.102317
    85  N   -0.370889
    86  C   -0.015670
    87  C   -0.028608
    88  C   -0.134582
    89  C    0.098534
    90  C    0.020634
    91  C   -0.029909
    92  C   -0.123624
    93  H    0.053516
    94  N   -0.508195
    95  C    0.144409
    96  C   -0.142003
    97  C   -0.082434
    98  C    0.112981
    99  C    0.032910
   100  C    0.056502
   101  O   -0.199126
   102  C   -0.017937
   103  N   -0.306683
   104  C    0.065597
   105  C   -0.068829
   106  C   -0.047991
   107  C    0.007284
   108  C    0.036414
   109  C   -0.047563
   110  C   -0.031088
   111  N   -0.393271
   112  C    0.166252
   113  C   -0.184911
   114  C   -0.031432
   115  C    0.105933
   116  C    0.061920
   117  C    0.130853
   118  O   -0.210259
   119  C   -0.060578
   120  C    0.252766
   121  O   -0.228661
   122  O   -0.379450
   123  C    0.117924
   124  H   -0.017297
   125  H    0.026223
   126  H   -0.005191
   127  H    0.048865
   128  H    0.042240
   129  H    0.042692
   130  H    0.050118
   131  H    0.032151
   132  H    0.030164
   133  H    0.046359
   134  H    0.034880
   135  H    0.055839
   136  H    0.037211
   137  H    0.055429
   138  H    0.058310
   139  H    0.064558
   140  H    0.073686
   141  H    0.037386
   142  H    0.039936
   143  H    0.035211
   144  H    0.044184
   145  H    0.034846
   146  H    0.041323
   147  H    0.023714
   148  H    0.022408
   149  H    0.035767
   150  H    0.033338
   151  H    0.037194
   152  H    0.045444
   153  H    0.051362
   154  H    0.052623
   155  H    0.070902
   156  H    0.051494
   157  H    0.068767
   158  H    0.086268
 Sum of Mulliken charges =  -0.00000

 Dipole moment (field-independent basis, Debye):
    X=             10.9469    Y=              1.0980    Z=              1.3906  Tot=             11.0894
 Quadrupole moment (field-independent basis, Debye-Ang):
   XX=           -481.2986   YY=           -514.7146   ZZ=           -521.1857
   XY=             87.7743   XZ=            -28.9093   YZ=            -23.8886

 Normal termination of Gaussian 16 at Mon Sep 20 05:54:37 2021.
