 Gaussian 16, Revision A.03,
 Gaussian 16:  ES64L-G16RevA.03 25-Dec-2016

 --------------------------------
 #p wB97XD/Def2SVP td=(nstates=5)
 --------------------------------

 --------------------------------
 TDDFT excited states in gaussian
 --------------------------------
 Symbolic Z-matrix:
 Charge =  0 Multiplicity = 1

                         Standard orientation:
 ---------------------------------------------------------------------
 Center     Atomic      Atomic             Coordinates (Angstroms)
 Number     Number       Type             X           Y           Z
 ---------------------------------------------------------------------
      1         12           0       25.514952   -0.694531    0.444621
      2          6           0       26.721459    1.889963   -1.655080
      3          6           0       24.671675    1.850210    2.687783
      4          6           0       24.248265   -2.950984    2.465378
      5          6           0       27.154422   -3.034196   -1.537305
      6          7           0       25.666586    1.585383    0.449785
      7          6           0       26.048835    2.420846   -0.555708
      8          6           0       25.971368    3.925908   -0.247181
      9          6           0       25.399710    3.812936    1.255887
     10          6           0       25.264317    2.331926    1.452014
     11          6           0       26.354095    4.414135    2.362175
     12          6           0       25.010069    4.698745   -1.208041
     13          6           0       25.460536    5.728847   -2.236513
     14          1           0       24.610691    6.951894   -2.554973
     15          7           0       24.510729   -0.594125    2.294081
     16          6           0       24.321083    0.539283    3.097815
     17          6           0       23.740303    0.091900    4.344052
     18          6           0       23.457725   -1.268299    4.245900
     19          6           0       24.026581   -1.653103    2.939505
     20          6           0       23.345101    1.116793    5.351711
     21          6           0       22.837911   -2.247955    5.241786
     22          8           0       22.674598   -3.453713    5.031681
     23          6           0       22.271356   -1.676176    6.481361
     24          7           0       25.742354   -2.708239    0.552218
     25          6           0       24.951610   -3.488477    1.349528
     26          6           0       24.949190   -4.975813    0.858371
     27          6           0       25.931160   -4.952906   -0.305789
     28          6           0       26.378739   -3.468667   -0.413654
     29          6           0       25.253971   -6.009282    1.991614
     30          6           0       25.242184   -5.481344   -1.573152
     31          6           0       25.985612   -6.434541   -2.436491
     32          7           0       26.786685   -0.646249   -1.192400
     33          6           0       27.354379   -1.666178   -1.913352
     34          6           0       28.099883   -1.165530   -3.029267
     35          6           0       27.826381    0.288496   -3.080801
     36          6           0       27.000062    0.523252   -1.912097
     37          6           0       28.948711   -2.008483   -3.996356
     38          6           0       28.049089    1.575693   -3.786312
     39          8           0       28.579461    1.806160   -4.886292
     40          6           0       27.325860    2.648755   -2.872521
     41          6           0       28.484380    3.543079   -2.558866
     42          8           0       29.305810    3.439063   -1.655980
     43          8           0       28.474949    4.599477   -3.324894
     44          6           0       29.622588    5.538503   -3.297482
     45          1           0       24.327275    2.743169    3.212962
     46          1           0       23.913130   -3.801560    3.062041
     47          1           0       27.602111   -3.788689   -2.186950
     48          1           0       26.990939    4.313272   -0.237453
     49          1           0       24.406483    4.212867    1.462322
     50          1           0       27.388853    4.601990    2.076975
     51          1           0       26.405901    3.736174    3.213385
     52          1           0       25.926123    5.355247    2.707981
     53          1           0       24.312988    5.241616   -0.569500
     54          1           0       24.446804    3.996814   -1.821645
     55          1           0       25.397377    5.133600   -3.147559
     56          1           0       26.462296    5.969303   -1.880337
     57          1           0       22.272117    1.111103    5.538459
     58          1           0       23.616488    2.119237    5.019755
     59          1           0       23.812318    0.967077    6.324580
     60          1           0       21.619426   -0.839345    6.230431
     61          1           0       23.024116   -1.178138    7.092604
     62          1           0       21.658883   -2.368691    7.057888
     63          1           0       23.912156   -5.098578    0.546406
     64          1           0       26.758182   -5.642327   -0.136799
     65          1           0       25.267149   -5.583227    2.994704
     66          1           0       26.214215   -6.511908    1.881940
     67          1           0       24.577304   -6.859310    1.905252
     68          1           0       25.045554   -4.565686   -2.129373
     69          1           0       24.311070   -6.018708   -1.394940
     70          1           0       25.976748   -5.972061   -3.423194
     71          1           0       25.546894   -7.429713   -2.364621
     72          1           0       27.049165   -6.522957   -2.213771
     73          1           0       29.968833   -2.061228   -3.617792
     74          1           0       28.901023   -1.546447   -4.982317
     75          1           0       28.600629   -3.039791   -4.058162
     76          1           0       26.600495    3.158885   -3.506069
     77          1           0       29.794287    6.000857   -2.326065
     78          1           0       29.567675    6.331595   -4.042938
     79          1           0       30.597813    5.130396   -3.561207
     80         12           0      -25.833113   -0.670555   -0.490472
     81          6           0      -26.366924    2.431695    1.060707
     82          6           0      -26.048071    0.724398   -3.511963
     83          6           0      -25.409600   -3.627149   -1.736590
     84          6           0      -26.648386   -2.125609    2.719952
     85          7           0      -26.277163    1.348632   -1.097091
     86          6           0      -26.292858    2.470227   -0.365935
     87          6           0      -26.561927    3.689561   -1.209535
     88          6           0      -26.867499    3.060001   -2.627648
     89          6           0      -26.362517    1.644497   -2.425320
     90          6           0      -28.334592    3.110652   -3.164886
     91          6           0      -25.246145    4.619484   -1.295504
     92          6           0      -25.535165    6.132755   -1.026752
     93          1           0      -24.162798    6.974145   -0.814477
     94          7           0      -25.499567   -1.298408   -2.299819
     95          6           0      -25.585276   -0.566330   -3.471772
     96          6           0      -25.039378   -1.354780   -4.542007
     97          6           0      -24.780895   -2.707536   -4.073112
     98          6           0      -25.118286   -2.593592   -2.602556
     99          6           0      -24.985876   -0.745705   -5.972568
    100          6           0      -24.271147   -4.001938   -4.696486
    101          8           0      -24.026360   -5.064177   -4.096496
    102          6           0      -23.964540   -3.855703   -6.144909
    103          7           0      -26.175479   -2.549738    0.394761
    104          6           0      -25.904453   -3.617765   -0.424449
    105          6           0      -26.234624   -4.938654    0.271550
    106          6           0      -26.316606   -4.489232    1.754014
    107          6           0      -26.451949   -2.969424    1.641893
    108          6           0      -27.508129   -5.596537   -0.393673
    109          6           0      -25.100381   -4.916056    2.680937
    110          6           0      -25.379351   -5.008637    4.189647
    111          7           0      -26.361236   -0.027581    1.518985
    112          6           0      -26.642381   -0.732563    2.649895
    113          6           0      -26.805689    0.145797    3.786607
    114          6           0      -26.627303    1.404764    3.184443
    115          6           0      -26.424746    1.259423    1.804568
    116          6           0      -27.095092   -0.132901    5.279511
    117          6           0      -26.576003    2.808842    3.482611
    118          8           0      -26.531198    3.435601    4.508649
    119          6           0      -26.568098    3.541556    2.042223
    120          6           0      -25.553532    4.574393    2.268008
    121          8           0      -24.301681    4.482579    2.201023
    122          8           0      -26.249266    5.678956    2.588556
    123          6           0      -25.505074    6.896076    2.915436
    124          1           0      -26.026021    1.186717   -4.501167
    125          1           0      -25.193683   -4.620443   -2.136087
    126          1           0      -26.794060   -2.618894    3.683229
    127          1           0      -27.361637    4.336824   -0.848445
    128          1           0      -26.268296    3.435391   -3.457404
    129          1           0      -28.724482    2.092806   -3.158136
    130          1           0      -28.246886    3.470261   -4.189964
    131          1           0      -29.068083    3.709933   -2.626622
    132          1           0      -24.663370    4.536145   -2.213613
    133          1           0      -24.530405    4.194561   -0.591670
    134          1           0      -26.149030    6.252206   -0.134241
    135          1           0      -26.013146    6.666963   -1.847530
    136          1           0      -24.025506   -0.244824   -6.086639
    137          1           0      -25.630567    0.124408   -6.102523
    138          1           0      -25.328338   -1.375656   -6.793200
    139          1           0      -23.190131   -3.124448   -6.373831
    140          1           0      -24.943195   -3.607828   -6.557683
    141          1           0      -23.675643   -4.789450   -6.628185
    142          1           0      -25.376613   -5.583420    0.080841
    143          1           0      -27.191734   -4.944053    2.218025
    144          1           0      -28.367753   -5.509221    0.270679
    145          1           0      -27.477147   -6.655434   -0.649030
    146          1           0      -27.897540   -5.113848   -1.290281
    147          1           0      -24.424001   -4.065620    2.590912
    148          1           0      -24.568232   -5.832725    2.425789
    149          1           0      -24.829992   -4.255480    4.755991
    150          1           0      -25.181556   -5.945735    4.710457
    151          1           0      -26.420263   -4.710366    4.306565
    152          1           0      -27.598265   -1.099448    5.306090
    153          1           0      -27.724170    0.647329    5.710041
    154          1           0      -26.124258   -0.208017    5.769234
    155          1           0      -27.525385    4.037007    1.879306
    156          1           0      -25.658433    7.619335    2.114703
    157          1           0      -24.466092    6.688954    3.169573
    158          1           0      -25.976435    7.358857    3.782384
 ---------------------------------------------------------------------

 SCF Done:  E(RwB97XD) =  -4070.59585281     A.U. after   18 cycles

 Excitation energies and oscillator strengths:

 Excited State   1:      Singlet-A      1.6707 eV  742.09 nm  f=0.3750  <S**2>=0.000
     309 -> 315       -0.20301
     312 -> 314        0.67879
     309 <- 315       -0.12001
 This state for optimization and/or second-order correction.
 Total Energy, E(TD-HF/TD-DFT) =  -4070.53445451
 Copying the excited state density for this state as the 1-particle RhoCI density.

 Excited State   2:      Singlet-A      1.7238 eV  719.25 nm  f=0.3825  <S**2>=0.000
     310 -> 316        0.18636
     311 -> 313        0.68177
     310 <- 316        0.11196

 Excited State   3:      Singlet-A      2.1685 eV  571.74 nm  f=0.1025  <S**2>=0.000
     310 -> 313        0.63395
     311 -> 316       -0.29501

 Excited State   4:      Singlet-A      2.1931 eV  565.34 nm  f=0.0612  <S**2>=0.000
     309 -> 314        0.61591
     312 -> 315        0.33609

 Excited State   5:      Singlet-A      3.4479 eV  359.59 nm  f=0.0942  <S**2>=0.000
     299 -> 313       -0.10600
     304 -> 313        0.24546
     305 -> 313       -0.18612
     308 -> 313        0.57187
     310 -> 313       -0.10070
     311 -> 316       -0.18638

 The electronic state is 1-A.
 Alpha  occ. eigenvalues --  -46.94866 -46.93934 -19.30459 -19.30097 -19.24748
 Alpha  occ. eigenvalues --  -19.24676 -19.24083 -19.23873 -19.23418 -19.23101
 Alpha  occ. eigenvalues --  -14.47198 -14.47170 -14.46482 -14.46330 -14.44457
 Alpha  occ. eigenvalues --  -14.44110 -14.43545 -14.43009 -10.42446 -10.42438
 Alpha  occ. eigenvalues --  -10.40004 -10.40003 -10.39430 -10.38676 -10.35773
 Alpha  occ. eigenvalues --  -10.35748 -10.35673 -10.35466 -10.35279 -10.35213
 Alpha  occ. eigenvalues --  -10.34890 -10.34864 -10.34839 -10.34756 -10.34685
 Alpha  occ. eigenvalues --  -10.34490 -10.34270 -10.34265 -10.34166 -10.33660
 Alpha  occ. eigenvalues --  -10.33474 -10.33238 -10.33110 -10.32810 -10.32807
 Alpha  occ. eigenvalues --  -10.32772 -10.32709 -10.32706 -10.32646 -10.32430
 Alpha  occ. eigenvalues --  -10.32359 -10.32214 -10.32140 -10.32019 -10.32006
 Alpha  occ. eigenvalues --  -10.32004 -10.31898 -10.31808 -10.31790 -10.31770
 Alpha  occ. eigenvalues --  -10.31747 -10.31696 -10.31667 -10.31523 -10.31349
 Alpha  occ. eigenvalues --  -10.31058 -10.30992 -10.30779 -10.30534 -10.30422
 Alpha  occ. eigenvalues --  -10.30421 -10.30370 -10.30369 -10.30312 -10.30277
 Alpha  occ. eigenvalues --  -10.29947 -10.29896 -10.29883 -10.29743 -10.29725
 Alpha  occ. eigenvalues --  -10.29697 -10.29445 -10.29202 -10.29113 -10.28640
 Alpha  occ. eigenvalues --  -10.28494  -3.20896  -3.20177  -1.94487  -1.94021
 Alpha  occ. eigenvalues --   -1.93872  -1.93760  -1.93321  -1.93168  -1.19944
 Alpha  occ. eigenvalues --   -1.18131  -1.13018  -1.12356  -1.11644  -1.10568
 Alpha  occ. eigenvalues --   -1.08630  -1.07734  -1.07487  -1.07214  -1.06327
 Alpha  occ. eigenvalues --   -1.06111  -1.05627  -1.04773  -1.04484  -1.03326
 Alpha  occ. eigenvalues --   -0.94707  -0.93766  -0.91479  -0.91072  -0.90953
 Alpha  occ. eigenvalues --   -0.90685  -0.90138  -0.89910  -0.89699  -0.89390
 Alpha  occ. eigenvalues --   -0.88946  -0.88674  -0.88228  -0.87036  -0.86467
 Alpha  occ. eigenvalues --   -0.86202  -0.85746  -0.85351  -0.84765  -0.84661
 Alpha  occ. eigenvalues --   -0.84404  -0.84182  -0.83246  -0.82754  -0.82490
 Alpha  occ. eigenvalues --   -0.82258  -0.80785  -0.80200  -0.79402  -0.79250
 Alpha  occ. eigenvalues --   -0.78841  -0.78766  -0.78079  -0.77864  -0.77334
 Alpha  occ. eigenvalues --   -0.77119  -0.74788  -0.74185  -0.74129  -0.73797
 Alpha  occ. eigenvalues --   -0.71238  -0.71219  -0.70731  -0.70107  -0.69864
 Alpha  occ. eigenvalues --   -0.69586  -0.69213  -0.68961  -0.68003  -0.67764
 Alpha  occ. eigenvalues --   -0.67478  -0.67187  -0.66894  -0.66867  -0.66452
 Alpha  occ. eigenvalues --   -0.66187  -0.64359  -0.63770  -0.63007  -0.62277
 Alpha  occ. eigenvalues --   -0.61807  -0.61478  -0.61159  -0.60932  -0.60633
 Alpha  occ. eigenvalues --   -0.60455  -0.60003  -0.59768  -0.59635  -0.59123
 Alpha  occ. eigenvalues --   -0.58738  -0.58337  -0.57862  -0.57535  -0.57456
 Alpha  occ. eigenvalues --   -0.56923  -0.56300  -0.56207  -0.56115  -0.55856
 Alpha  occ. eigenvalues --   -0.55758  -0.55542  -0.55394  -0.55190  -0.54897
 Alpha  occ. eigenvalues --   -0.54771  -0.54579  -0.54505  -0.54483  -0.54163
 Alpha  occ. eigenvalues --   -0.54044  -0.53537  -0.53352  -0.53344  -0.52993
 Alpha  occ. eigenvalues --   -0.52694  -0.52546  -0.52404  -0.52325  -0.52137
 Alpha  occ. eigenvalues --   -0.51965  -0.51963  -0.51854  -0.51662  -0.51382
 Alpha  occ. eigenvalues --   -0.51373  -0.51036  -0.51030  -0.50855  -0.50589
 Alpha  occ. eigenvalues --   -0.50450  -0.50414  -0.50114  -0.50098  -0.50005
 Alpha  occ. eigenvalues --   -0.49944  -0.49723  -0.49329  -0.49324  -0.49203
 Alpha  occ. eigenvalues --   -0.48826  -0.48557  -0.48425  -0.48273  -0.48254
 Alpha  occ. eigenvalues --   -0.48000  -0.47856  -0.47760  -0.47663  -0.47519
 Alpha  occ. eigenvalues --   -0.47470  -0.47387  -0.47080  -0.47056  -0.46963
 Alpha  occ. eigenvalues --   -0.46865  -0.46545  -0.46293  -0.46195  -0.45975
 Alpha  occ. eigenvalues --   -0.45925  -0.45702  -0.45517  -0.45429  -0.45164
 Alpha  occ. eigenvalues --   -0.45026  -0.44997  -0.44825  -0.44794  -0.44741
 Alpha  occ. eigenvalues --   -0.44606  -0.44273  -0.44175  -0.44039  -0.43963
 Alpha  occ. eigenvalues --   -0.43889  -0.43620  -0.43294  -0.43270  -0.43166
 Alpha  occ. eigenvalues --   -0.43142  -0.42721  -0.42691  -0.42477  -0.42313
 Alpha  occ. eigenvalues --   -0.42216  -0.41965  -0.41722  -0.41516  -0.41400
 Alpha  occ. eigenvalues --   -0.40739  -0.40343  -0.39865  -0.39783  -0.39476
 Alpha  occ. eigenvalues --   -0.39271  -0.38961  -0.38697  -0.38359  -0.37767
 Alpha  occ. eigenvalues --   -0.37529  -0.37233  -0.36410  -0.36168  -0.35987
 Alpha  occ. eigenvalues --   -0.35516  -0.35140  -0.34973  -0.34122  -0.33814
 Alpha  occ. eigenvalues --   -0.33735  -0.33517  -0.32633  -0.32600  -0.32482
 Alpha  occ. eigenvalues --   -0.32477  -0.31787  -0.30819  -0.26132  -0.25856
 Alpha  occ. eigenvalues --   -0.23004  -0.22946
 Alpha virt. eigenvalues --   -0.06854  -0.06801  -0.00410   0.00064   0.01737
 Alpha virt. eigenvalues --    0.01861   0.04174   0.04547   0.05785   0.06204
 Alpha virt. eigenvalues --    0.07357   0.07586   0.07706   0.08228   0.08345

 Mulliken charges:
               1
     1  Mg   0.972842
     2  C    0.039415
     3  C   -0.094855
     4  C   -0.084734
     5  C   -0.089082
     6  N   -0.280190
     7  C   -0.033640
     8  C   -0.039429
     9  C   -0.125366
    10  C    0.009598
    11  C    0.001859
    12  C   -0.006526
    13  C   -0.125487
    14  H    0.045842
    15  N   -0.445455
    16  C    0.189146
    17  C   -0.135293
    18  C   -0.078142
    19  C    0.174215
    20  C    0.050592
    21  C    0.084301
    22  O   -0.232480
    23  C   -0.006978
    24  N   -0.424761
    25  C    0.030684
    26  C   -0.065465
    27  C   -0.064752
    28  C    0.113727
    29  C    0.012692
    30  C   -0.040747
    31  C   -0.047839
    32  N   -0.454758
    33  C    0.145763
    34  C   -0.198894
    35  C   -0.045553
    36  C    0.123191
    37  C    0.077693
    38  C    0.112798
    39  O   -0.226566
    40  C   -0.112895
    41  C    0.233107
    42  O   -0.268657
    43  O   -0.310187
    44  C    0.148291
    45  H    0.001909
    46  H    0.016061
    47  H   -0.006156
    48  H    0.060609
    49  H    0.045632
    50  H    0.052687
    51  H    0.037786
    52  H    0.037501
    53  H    0.038516
    54  H    0.032742
    55  H    0.062016
    56  H    0.051811
    57  H    0.054666
    58  H    0.035470
    59  H    0.048376
    60  H    0.039696
    61  H    0.049847
    62  H    0.061319
    63  H    0.053984
    64  H    0.031669
    65  H    0.057275
    66  H    0.025258
    67  H    0.035171
    68  H    0.036542
    69  H    0.031256
    70  H    0.037260
    71  H    0.043610
    72  H    0.025469
    73  H    0.056347
    74  H    0.061394
    75  H    0.025333
    76  H    0.075624
    77  H    0.050753
    78  H    0.052449
    79  H    0.053091
    80  Mg   0.994143
    81  C    0.048529
    82  C   -0.082954
    83  C   -0.068824
    84  C   -0.108809
    85  N   -0.341436
    86  C    0.046004
    87  C   -0.121669
    88  C   -0.075810
    89  C    0.029367
    90  C    0.026874
    91  C    0.023843
    92  C   -0.140364
    93  H    0.018680
    94  N   -0.559189
    95  C    0.189837
    96  C   -0.126396
    97  C   -0.130576
    98  C    0.181238
    99  C    0.043707
   100  C    0.089188
   101  O   -0.240707
   102  C   -0.020751
   103  N   -0.364136
   104  C    0.073064
   105  C   -0.083684
   106  C   -0.059577
   107  C    0.063328
   108  C    0.017213
   109  C   -0.011403
   110  C   -0.064796
   111  N   -0.360265
   112  C    0.130540
   113  C   -0.202643
   114  C   -0.018055
   115  C    0.092335
   116  C    0.097842
   117  C    0.101699
   118  O   -0.185110
   119  C   -0.133233
   120  C    0.263492
   121  O   -0.285050
   122  O   -0.350114
   123  C    0.138338
   124  H   -0.014438
   125  H    0.026639
   126  H   -0.019364
   127  H    0.037184
   128  H    0.028909
   129  H    0.042208
   130  H    0.037590
   131  H    0.043002
   132  H    0.031555
   133  H    0.058220
   134  H    0.053289
   135  H    0.056603
   136  H    0.054087
   137  H    0.028155
   138  H    0.054188
   139  H    0.074562
   140  H    0.050212
   141  H    0.047498
   142  H    0.043283
   143  H    0.027334
   144  H    0.021190
   145  H    0.043997
   146  H    0.041030
   147  H    0.036394
   148  H    0.043296
   149  H    0.035193
   150  H    0.044636
   151  H    0.027543
   152  H    0.034219
   153  H    0.066262
   154  H    0.064428
   155  H    0.073468
   156  H    0.048552
   157  H    0.075939
   158  H    0.049421
 Sum of Mulliken charges =  -0.00000

 Dipole moment (field-independent basis, Debye):
    X=             -5.9242    Y=              1.4853    Z=             -0.4958  Tot=              6.1276
 Quadrupole moment (field-independent basis, Debye-Ang):
   XX=           -561.4796   YY=           -473.8992   ZZ=           -497.0610
   XY=             32.6030   XZ=            206.1971   YZ=             -6.8693

 Normal termination of Gaussian 16 at Mon Sep 20 13:55:59 2021.
