 Gaussian 16, Revision A.03,
 Gaussian 16:  ES64L-G16RevA.03 25-Dec-2016

 --------------------------------
 #p wB97XD/Def2SVP td=(nstates=5)
 --------------------------------

 --------------------------------
 TDDFT excited states in gaussian
 --------------------------------
 Symbolic Z-matrix:
 Charge =  0 Multiplicity = 1

                         Standard orientation:
 ---------------------------------------------------------------------
 Center     Atomic      Atomic             Coordinates (Angstroms)
 Number     Number       Type             X           Y           Z
 ---------------------------------------------------------------------
      1         12           0       24.833137    0.010433    0.153814
      2          6           0       21.687905   -1.250625   -0.173678
      3          6           0       25.123433   -0.193047   -3.296341
      4          6           0       27.773954    1.603514    0.447554
      5          6           0       24.186634    0.791825    3.523863
      6          7           0       23.430846   -0.413320   -1.562574
      7          6           0       22.207750   -0.953893   -1.391717
      8          6           0       21.489865   -1.155646   -2.675973
      9          6           0       22.790608   -1.162215   -3.696034
     10          6           0       23.892398   -0.544047   -2.809776
     11          6           0       23.111991   -2.578925   -4.256960
     12          6           0       20.556277    0.016815   -2.931924
     13          6           0       21.148554    1.501720   -2.931872
     14          1           0       20.666643    2.524137   -3.953549
     15          7           0       26.249172    0.622386   -1.214343
     16          6           0       26.258846    0.323960   -2.600389
     17          6           0       27.543098    0.690382   -3.096959
     18          6           0       28.316822    1.251850   -2.088766
     19          6           0       27.506249    1.158479   -0.862865
     20          6           0       27.836049    0.443708   -4.562947
     21          6           0       29.675196    1.897847   -2.221932
     22          8           0       30.158555    1.912763   -3.381398
     23          6           0       30.345268    2.656777   -1.219903
     24          7           0       25.727584    1.240231    1.725695
     25          6           0       26.994815    1.729312    1.602278
     26          6           0       27.446022    2.450974    2.894685
     27          6           0       26.256468    2.169082    3.873196
     28          6           0       25.288034    1.416385    2.976545
     29          6           0       28.793811    1.988676    3.405861
     30          6           0       25.658079    3.547345    4.481358
     31          6           0       25.320327    3.476669    5.974981
     32          7           0       23.249921   -0.169766    1.521464
     33          6           0       23.179687   -0.011997    2.868616
     34          6           0       21.975374   -0.665578    3.303743
     35          6           0       21.315699   -1.237076    2.161066
     36          6           0       22.133257   -0.874109    1.103567
     37          6           0       21.364839   -0.532481    4.656814
     38          6           0       20.176923   -1.913553    1.628515
     39          8           0       19.248521   -2.365607    2.310478
     40          6           0       20.395619   -1.975350    0.128107
     41          6           0       20.402525   -3.398446   -0.289678
     42          8           0       19.437308   -4.093988   -0.041593
     43          8           0       21.494863   -3.772997   -1.010847
     44          6           0       21.502099   -5.170122   -1.448915
     45          1           0       25.319721   -0.508444   -4.323092
     46          1           0       28.817959    1.899050    0.569306
     47          1           0       23.985969    0.836597    4.596627
     48          1           0       20.873130   -2.047594   -2.786739
     49          1           0       22.559907   -0.635351   -4.622850
     50          1           0       23.070097   -2.566455   -5.345471
     51          1           0       22.324035   -3.243831   -3.902232
     52          1           0       24.066256   -2.993350   -3.929209
     53          1           0       19.717974   -0.088743   -2.242990
     54          1           0       20.070730   -0.279091   -3.861785
     55          1           0       22.228823    1.580208   -3.054892
     56          1           0       20.806120    1.871786   -1.965931
     57          1           0       27.441715    1.314934   -5.086321
     58          1           0       27.276394   -0.431053   -4.891762
     59          1           0       28.882194    0.289810   -4.829208
     60          1           0       30.981918    3.428392   -1.653937
     61          1           0       30.848539    2.043824   -0.471058
     62          1           0       29.558621    3.245955   -0.750523
     63          1           0       27.463791    3.499657    2.595906
     64          1           0       26.573634    1.452951    4.631016
     65          1           0       29.305491    1.292853    2.741479
     66          1           0       28.919431    1.631333    4.427575
     67          1           0       29.413462    2.874399    3.262742
     68          1           0       24.749866    3.890785    3.985969
     69          1           0       26.325120    4.392586    4.312815
     70          1           0       26.066572    4.057313    6.516587
     71          1           0       25.453214    2.446080    6.304802
     72          1           0       24.324725    3.856432    6.204979
     73          1           0       21.880318   -1.006756    5.491077
     74          1           0       20.357364   -0.937437    4.554208
     75          1           0       21.287561    0.508297    4.971500
     76          1           0       19.539366   -1.472815   -0.322718
     77          1           0       20.601958   -5.336976   -2.041224
     78          1           0       21.601359   -5.881592   -0.628967
     79          1           0       22.419569   -5.397581   -1.991499
     80         12           0      -24.906737    0.716779    0.084600
     81          6           0      -22.073530   -1.671751    0.369871
     82          6           0      -26.833673   -2.041760    0.402879
     83          6           0      -27.233264    2.800256   -0.457638
     84          6           0      -22.485478    3.085134   -1.011902
     85          7           0      -24.467543   -1.564719    0.299912
     86          6           0      -23.284461   -2.230857    0.571478
     87          6           0      -23.460444   -3.681265    1.035555
     88          6           0      -24.941289   -3.891393    0.592509
     89          6           0      -25.488191   -2.423674    0.403536
     90          6           0      -25.126362   -4.711777   -0.645079
     91          6           0      -23.144532   -3.995958    2.536246
     92          6           0      -22.634375   -5.356385    2.876389
     93          1           0      -23.136353   -5.929701    4.197806
     94          7           0      -26.841798    0.441431    0.026217
     95          6           0      -27.503316   -0.785598    0.242120
     96          6           0      -28.909413   -0.513477    0.324023
     97          6           0      -28.989515    0.943448    0.225944
     98          6           0      -27.682728    1.412607   -0.063929
     99          6           0      -30.020018   -1.579851    0.648444
    100          6           0      -30.238455    1.753426    0.394480
    101          8           0      -30.251531    2.998437    0.235790
    102          6           0      -31.538717    1.167420    0.808620
    103          7           0      -24.938544    2.601336   -0.774155
    104          6           0      -26.064153    3.310219   -0.881101
    105          6           0      -25.852466    4.756157   -1.433837
    106          6           0      -24.311424    4.897465   -1.145420
    107          6           0      -23.849103    3.421177   -1.006262
    108          6           0      -26.165085    4.856904   -2.961554
    109          6           0      -24.019633    5.687751    0.198833
    110          6           0      -24.643879    7.083344    0.408672
    111          7           0      -22.730314    0.754846   -0.218968
    112          6           0      -21.925433    1.821624   -0.602223
    113          6           0      -20.549173    1.389643   -0.673057
    114          6           0      -20.558984    0.049410   -0.266014
    115          6           0      -21.915018   -0.335300   -0.078544
    116          6           0      -19.357432    2.239586   -0.960602
    117          6           0      -19.702894   -1.100854   -0.007359
    118          8           0      -18.492102   -1.279094   -0.020353
    119          6           0      -20.733727   -2.231298    0.513101
    120          6           0      -20.448851   -3.414395   -0.280524
    121          8           0      -20.572198   -3.534800   -1.509576
    122          8           0      -19.620893   -4.215740    0.452176
    123          6           0      -19.129880   -5.427056   -0.122351
    124          1           0      -27.389798   -2.946598    0.657443
    125          1           0      -28.002309    3.550582   -0.651703
    126          1           0      -21.788485    3.859621   -1.339915
    127          1           0      -22.814576   -4.297418    0.409644
    128          1           0      -25.537063   -4.275652    1.419928
    129          1           0      -25.408415   -4.023913   -1.442219
    130          1           0      -25.965648   -5.394047   -0.510918
    131          1           0      -24.270485   -5.288098   -0.995855
    132          1           0      -24.082569   -3.896615    3.081688
    133          1           0      -22.478345   -3.212766    2.897060
    134          1           0      -21.555625   -5.214045    2.937496
    135          1           0      -22.686164   -6.046331    2.034022
    136          1           0      -30.444466   -1.526504    1.650553
    137          1           0      -29.675154   -2.590782    0.432871
    138          1           0      -30.771898   -1.335870   -0.103084
    139          1           0      -31.963761    0.641719   -0.046794
    140          1           0      -32.165808    2.014646    1.087563
    141          1           0      -31.335281    0.554317    1.685954
    142          1           0      -26.512008    5.396889   -0.847574
    143          1           0      -23.721726    5.351871   -1.941003
    144          1           0      -27.053741    5.482046   -3.052164
    145          1           0      -26.279407    3.909888   -3.487995
    146          1           0      -25.293131    5.402790   -3.324629
    147          1           0      -22.947875    5.874699    0.261429
    148          1           0      -24.251200    4.996752    1.009193
    149          1           0      -25.234919    6.985410    1.319142
    150          1           0      -25.307953    7.207175   -0.447245
    151          1           0      -23.893848    7.863992    0.534842
    152          1           0      -19.730624    3.260734   -0.879277
    153          1           0      -19.067473    2.012166   -1.986383
    154          1           0      -18.496891    2.029611   -0.325426
    155          1           0      -20.560354   -2.422292    1.571984
    156          1           0      -19.526003   -5.589048   -1.125063
    157          1           0      -19.514919   -6.219285    0.519814
    158          1           0      -18.044980   -5.488366   -0.049503
 ---------------------------------------------------------------------

 SCF Done:  E(RwB97XD) =  -4070.60596373     A.U. after   18 cycles

 Excitation energies and oscillator strengths:

 Excited State   1:      Singlet-A      1.6008 eV  774.49 nm  f=0.3924  <S**2>=0.000
     310 -> 316       -0.16170
     311 -> 313        0.68932
     310 <- 316       -0.11299
 This state for optimization and/or second-order correction.
 Total Energy, E(TD-HF/TD-DFT) =  -4070.54713373
 Copying the excited state density for this state as the 1-particle RhoCI density.

 Excited State   2:      Singlet-A      1.6885 eV  734.28 nm  f=0.3890  <S**2>=0.000
     309 -> 315       -0.18197
     312 -> 314        0.68310
     309 <- 315       -0.11274

 Excited State   3:      Singlet-A      2.1247 eV  583.54 nm  f=0.2116  <S**2>=0.000
     310 -> 313        0.66540
     311 -> 316        0.22059

 Excited State   4:      Singlet-A      2.1633 eV  573.12 nm  f=0.1259  <S**2>=0.000
     309 -> 314        0.64773
     312 -> 315        0.25644

 Excited State   5:      Singlet-A      3.1830 eV  389.52 nm  f=0.0052  <S**2>=0.000
     305 -> 313        0.17928
     306 -> 313        0.66157

 The electronic state is 1-A.
 Alpha  occ. eigenvalues --  -46.95458 -46.95220 -19.31580 -19.30030 -19.24974
 Alpha  occ. eigenvalues --  -19.24406 -19.24379 -19.23300 -19.23229 -19.22427
 Alpha  occ. eigenvalues --  -14.46917 -14.46662 -14.46647 -14.45983 -14.44437
 Alpha  occ. eigenvalues --  -14.44258 -14.44175 -14.43166 -10.43284 -10.42996
 Alpha  occ. eigenvalues --  -10.40032 -10.38810 -10.38427 -10.37907 -10.36473
 Alpha  occ. eigenvalues --  -10.35733 -10.35439 -10.35328 -10.35226 -10.34827
 Alpha  occ. eigenvalues --  -10.34774 -10.34755 -10.34672 -10.34493 -10.34470
 Alpha  occ. eigenvalues --  -10.34462 -10.34426 -10.34175 -10.33824 -10.33188
 Alpha  occ. eigenvalues --  -10.33158 -10.33098 -10.33019 -10.32891 -10.32585
 Alpha  occ. eigenvalues --  -10.32499 -10.32448 -10.32429 -10.32410 -10.32373
 Alpha  occ. eigenvalues --  -10.32250 -10.32164 -10.32157 -10.32147 -10.32082
 Alpha  occ. eigenvalues --  -10.32038 -10.32022 -10.31980 -10.31801 -10.31687
 Alpha  occ. eigenvalues --  -10.31521 -10.31518 -10.31432 -10.31395 -10.31362
 Alpha  occ. eigenvalues --  -10.31257 -10.31177 -10.30972 -10.30924 -10.30772
 Alpha  occ. eigenvalues --  -10.30752 -10.30418 -10.30336 -10.30306 -10.30206
 Alpha  occ. eigenvalues --  -10.30067 -10.29766 -10.29621 -10.29601 -10.29538
 Alpha  occ. eigenvalues --  -10.29513 -10.29417 -10.29416 -10.29361 -10.28805
 Alpha  occ. eigenvalues --  -10.28546  -3.21364  -3.21322  -1.94925  -1.94881
 Alpha  occ. eigenvalues --   -1.94503  -1.94445  -1.94314  -1.94309  -1.19566
 Alpha  occ. eigenvalues --   -1.18716  -1.12493  -1.11225  -1.10627  -1.10191
 Alpha  occ. eigenvalues --   -1.09619  -1.09206  -1.06973  -1.06909  -1.06535
 Alpha  occ. eigenvalues --   -1.06037  -1.05646  -1.04733  -1.04576  -1.03592
 Alpha  occ. eigenvalues --   -0.96040  -0.95691  -0.91396  -0.91230  -0.90903
 Alpha  occ. eigenvalues --   -0.90661  -0.90624  -0.89938  -0.89702  -0.89373
 Alpha  occ. eigenvalues --   -0.88769  -0.88333  -0.88161  -0.87773  -0.87011
 Alpha  occ. eigenvalues --   -0.86613  -0.86001  -0.85958  -0.85282  -0.85006
 Alpha  occ. eigenvalues --   -0.84694  -0.84000  -0.83384  -0.83013  -0.82846
 Alpha  occ. eigenvalues --   -0.82764  -0.80561  -0.80491  -0.79964  -0.79399
 Alpha  occ. eigenvalues --   -0.79197  -0.78965  -0.78151  -0.78049  -0.77365
 Alpha  occ. eigenvalues --   -0.76923  -0.75343  -0.74470  -0.74108  -0.72881
 Alpha  occ. eigenvalues --   -0.72070  -0.71195  -0.71067  -0.70781  -0.70575
 Alpha  occ. eigenvalues --   -0.70157  -0.69159  -0.68895  -0.68473  -0.67635
 Alpha  occ. eigenvalues --   -0.67338  -0.67197  -0.67067  -0.66879  -0.66441
 Alpha  occ. eigenvalues --   -0.66352  -0.65796  -0.64031  -0.62718  -0.62215
 Alpha  occ. eigenvalues --   -0.61765  -0.61699  -0.61479  -0.61326  -0.60821
 Alpha  occ. eigenvalues --   -0.60722  -0.60370  -0.60368  -0.60021  -0.59680
 Alpha  occ. eigenvalues --   -0.58736  -0.58570  -0.57837  -0.57766  -0.57585
 Alpha  occ. eigenvalues --   -0.57084  -0.56840  -0.56596  -0.56458  -0.56206
 Alpha  occ. eigenvalues --   -0.56080  -0.55691  -0.55644  -0.55437  -0.55164
 Alpha  occ. eigenvalues --   -0.55016  -0.54755  -0.54451  -0.54449  -0.54332
 Alpha  occ. eigenvalues --   -0.53802  -0.53708  -0.53679  -0.53331  -0.53330
 Alpha  occ. eigenvalues --   -0.53165  -0.53010  -0.52917  -0.52806  -0.52315
 Alpha  occ. eigenvalues --   -0.52201  -0.51822  -0.51801  -0.51621  -0.51569
 Alpha  occ. eigenvalues --   -0.51429  -0.51423  -0.51139  -0.51039  -0.50690
 Alpha  occ. eigenvalues --   -0.50632  -0.50578  -0.50407  -0.50234  -0.50058
 Alpha  occ. eigenvalues --   -0.50054  -0.49767  -0.49539  -0.49498  -0.49151
 Alpha  occ. eigenvalues --   -0.49025  -0.48650  -0.48433  -0.48407  -0.48371
 Alpha  occ. eigenvalues --   -0.48334  -0.48123  -0.47998  -0.47876  -0.47665
 Alpha  occ. eigenvalues --   -0.47549  -0.47357  -0.47132  -0.47017  -0.46899
 Alpha  occ. eigenvalues --   -0.46813  -0.46722  -0.46577  -0.46511  -0.46467
 Alpha  occ. eigenvalues --   -0.46277  -0.45900  -0.45687  -0.45649  -0.45500
 Alpha  occ. eigenvalues --   -0.45161  -0.45041  -0.44744  -0.44738  -0.44576
 Alpha  occ. eigenvalues --   -0.44318  -0.44223  -0.44179  -0.44017  -0.43894
 Alpha  occ. eigenvalues --   -0.43826  -0.43732  -0.43579  -0.43296  -0.43219
 Alpha  occ. eigenvalues --   -0.43066  -0.42925  -0.42638  -0.42569  -0.42341
 Alpha  occ. eigenvalues --   -0.41725  -0.41421  -0.41353  -0.41212  -0.41089
 Alpha  occ. eigenvalues --   -0.40650  -0.40458  -0.40144  -0.39788  -0.39694
 Alpha  occ. eigenvalues --   -0.39668  -0.39461  -0.39212  -0.38982  -0.38386
 Alpha  occ. eigenvalues --   -0.37881  -0.37837  -0.36708  -0.36605  -0.36251
 Alpha  occ. eigenvalues --   -0.35968  -0.35378  -0.35287  -0.33985  -0.33763
 Alpha  occ. eigenvalues --   -0.33422  -0.32811  -0.32385  -0.32302  -0.32227
 Alpha  occ. eigenvalues --   -0.32054  -0.31751  -0.31126  -0.26214  -0.26157
 Alpha  occ. eigenvalues --   -0.23530  -0.23467
 Alpha virt. eigenvalues --   -0.08006  -0.07487   0.00060   0.01158   0.02226
 Alpha virt. eigenvalues --    0.02376   0.04132   0.04298   0.04473   0.04961
 Alpha virt. eigenvalues --    0.06122   0.07370   0.07666   0.08033   0.08323

 Mulliken charges:
               1
     1  Mg   0.931588
     2  C   -0.001134
     3  C   -0.065716
     4  C   -0.091440
     5  C   -0.077488
     6  N   -0.307270
     7  C    0.004064
     8  C   -0.074168
     9  C   -0.126418
    10  C    0.080357
    11  C    0.020495
    12  C    0.007775
    13  C   -0.130941
    14  H    0.036907
    15  N   -0.514478
    16  C    0.148827
    17  C   -0.151885
    18  C   -0.055444
    19  C    0.177949
    20  C    0.087430
    21  C    0.034430
    22  O   -0.271031
    23  C    0.017059
    24  N   -0.324777
    25  C    0.043609
    26  C   -0.057449
    27  C   -0.088559
    28  C    0.105968
    29  C    0.017441
    30  C   -0.009884
    31  C   -0.055796
    32  N   -0.439814
    33  C    0.094672
    34  C   -0.179761
    35  C    0.011880
    36  C    0.117595
    37  C    0.048060
    38  C    0.071007
    39  O   -0.201879
    40  C   -0.081052
    41  C    0.257018
    42  O   -0.227823
    43  O   -0.352656
    44  C    0.138895
    45  H   -0.003823
    46  H   -0.037290
    47  H   -0.005199
    48  H    0.022152
    49  H    0.037594
    50  H    0.038118
    51  H    0.026482
    52  H    0.039063
    53  H    0.025059
    54  H    0.032743
    55  H    0.077959
    56  H    0.066394
    57  H    0.053636
    58  H    0.029875
    59  H    0.063911
    60  H    0.061093
    61  H    0.077273
    62  H    0.047634
    63  H    0.049738
    64  H    0.040763
    65  H    0.036114
    66  H    0.051909
    67  H    0.027114
    68  H    0.036502
    69  H    0.027980
    70  H    0.034941
    71  H    0.031360
    72  H    0.047292
    73  H    0.038313
    74  H    0.058185
    75  H    0.037802
    76  H    0.089646
    77  H    0.063448
    78  H    0.059062
    79  H    0.050989
    80  Mg   0.983422
    81  C   -0.013776
    82  C   -0.065878
    83  C   -0.042946
    84  C   -0.083024
    85  N   -0.296716
    86  C   -0.036573
    87  C   -0.083868
    88  C   -0.102369
    89  C   -0.016791
    90  C    0.047886
    91  C    0.043046
    92  C   -0.116535
    93  H    0.053885
    94  N   -0.496890
    95  C    0.190293
    96  C   -0.170766
    97  C   -0.082117
    98  C    0.148135
    99  C    0.071761
   100  C    0.008605
   101  O   -0.274956
   102  C    0.009980
   103  N   -0.391735
   104  C    0.045210
   105  C   -0.110691
   106  C   -0.102240
   107  C    0.088850
   108  C    0.051791
   109  C   -0.033949
   110  C   -0.032705
   111  N   -0.399896
   112  C    0.123183
   113  C   -0.202551
   114  C   -0.040036
   115  C    0.129211
   116  C    0.087854
   117  C    0.156515
   118  O   -0.192196
   119  C   -0.059908
   120  C    0.245430
   121  O   -0.268752
   122  O   -0.350368
   123  C    0.133678
   124  H   -0.007716
   125  H    0.013659
   126  H    0.005025
   127  H    0.033333
   128  H    0.025416
   129  H    0.044479
   130  H    0.034238
   131  H    0.048414
   132  H    0.032024
   133  H    0.031301
   134  H    0.048039
   135  H    0.042919
   136  H    0.067996
   137  H    0.040287
   138  H    0.043033
   139  H    0.063970
   140  H    0.055048
   141  H    0.045465
   142  H    0.047115
   143  H    0.025420
   144  H    0.046357
   145  H    0.060247
   146  H    0.027961
   147  H    0.024680
   148  H    0.033433
   149  H    0.042552
   150  H    0.036204
   151  H    0.048597
   152  H    0.031156
   153  H    0.060034
   154  H    0.065074
   155  H    0.071938
   156  H    0.066072
   157  H    0.033731
   158  H    0.061998
 Sum of Mulliken charges =  -0.00000

 Dipole moment (field-independent basis, Debye):
    X=              2.6264    Y=             -0.3410    Z=              2.5041  Tot=              3.6448
 Quadrupole moment (field-independent basis, Debye-Ang):
   XX=           -250.1012   YY=           -473.4725   ZZ=           -501.3130
   XY=             64.3513   XZ=            -11.5735   YZ=             17.6830

 Normal termination of Gaussian 16 at Sun Sep 19 17:55:06 2021.
