 Gaussian 16, Revision A.03,
 Gaussian 16:  ES64L-G16RevA.03 25-Dec-2016

 --------------------------------
 #p wB97XD/Def2SVP td=(nstates=5)
 --------------------------------

 --------------------------------
 TDDFT excited states in gaussian
 --------------------------------
 Symbolic Z-matrix:
 Charge =  0 Multiplicity = 1

                         Standard orientation:
 ---------------------------------------------------------------------
 Center     Atomic      Atomic             Coordinates (Angstroms)
 Number     Number       Type             X           Y           Z
 ---------------------------------------------------------------------
      1         12           0        9.805507    0.748430   -0.086976
      2          6           0        8.385898   -1.873637   -1.967946
      3          6           0        7.548374    2.844349   -1.542873
      4          6           0       10.650661    3.090175    2.254690
      5          6           0       11.660378   -1.770830    1.619716
      6          7           0        8.031940    0.471178   -1.508036
      7          6           0        7.713945   -0.613840   -2.273586
      8          6           0        6.461008   -0.373701   -3.133449
      9          6           0        6.557270    1.229686   -3.182473
     10          6           0        7.440646    1.544283   -2.000835
     11          6           0        7.131843    1.830384   -4.493411
     12          6           0        5.094666   -0.850807   -2.463481
     13          6           0        3.910523   -1.177587   -3.360211
     14          1           0        2.645206   -0.294723   -3.405492
     15          7           0        9.241008    2.776327    0.351851
     16          6           0        8.397087    3.458876   -0.475280
     17          6           0        8.381853    4.819925   -0.165711
     18          6           0        9.305114    4.960677    0.937900
     19          6           0        9.774404    3.587376    1.276665
     20          6           0        7.565587    5.876688   -0.900129
     21          6           0        9.625372    6.298856    1.564622
     22          8           0        9.082804    7.340849    1.114529
     23          6           0       10.696556    6.497274    2.694188
     24          7           0       10.973213    0.614901    1.630056
     25          6           0       11.207529    1.762159    2.435480
     26          6           0       12.348718    1.501697    3.378956
     27          6           0       12.446492   -0.037825    3.446582
     28          6           0       11.729379   -0.451300    2.128387
     29          6           0       13.760422    2.034194    3.044402
     30          6           0       11.658371   -0.649149    4.721429
     31          6           0       12.374245   -0.697888    6.062843
     32          7           0       10.109424   -1.372186   -0.299546
     33          6           0       10.888909   -2.240498    0.449891
     34          6           0       10.728041   -3.551736    0.043509
     35          6           0        9.765185   -3.472977   -0.977235
     36          6           0        9.406811   -2.122496   -1.125708
     37          6           0       11.452611   -4.728405    0.617043
     38          6           0        9.119222   -4.194688   -1.941750
     39          8           0        9.262792   -5.352392   -2.282198
     40          6           0        8.018739   -3.235214   -2.441519
     41          6           0        6.742862   -3.785472   -1.877484
     42          8           0        6.542714   -3.949122   -0.714198
     43          8           0        5.873801   -4.143138   -2.909787
     44          6           0        4.720634   -4.823972   -2.432667
     45          1           0        6.994157    3.583609   -2.125345
     46          1           0       11.110278    3.840702    2.901858
     47          1           0       12.361835   -2.460569    2.093239
     48          1           0        6.593644   -0.701270   -4.164027
     49          1           0        5.535437    1.599619   -3.102869
     50          1           0        6.229461    2.112134   -5.036746
     51          1           0        7.672235    1.091517   -5.085029
     52          1           0        7.724828    2.724296   -4.299355
     53          1           0        4.703107   -0.074464   -1.806089
     54          1           0        5.350163   -1.679862   -1.803205
     55          1           0        3.622162   -2.184265   -3.054182
     56          1           0        4.292328   -1.260008   -4.377695
     57          1           0        7.979833    6.874920   -1.045585
     58          1           0        6.671624    5.834596   -0.278344
     59          1           0        7.411637    5.573056   -1.935625
     60          1           0       11.678417    6.214082    2.315875
     61          1           0       10.316118    5.853363    3.486882
     62          1           0       10.716968    7.477271    3.170751
     63          1           0       12.024290    1.860278    4.355282
     64          1           0       13.478978   -0.386174    3.475921
     65          1           0       14.504033    1.268821    2.822952
     66          1           0       14.006041    2.911104    3.643763
     67          1           0       13.633343    2.503365    2.068914
     68          1           0       11.452158   -1.651461    4.346542
     69          1           0       10.717933   -0.122421    4.884496
     70          1           0       11.747254   -0.226382    6.819108
     71          1           0       13.316906   -0.155275    5.986461
     72          1           0       12.529433   -1.725212    6.393443
     73          1           0       10.686794   -5.471743    0.836661
     74          1           0       11.931525   -4.503628    1.570849
     75          1           0       12.165795   -5.168602   -0.080089
     76          1           0        8.003591   -3.279230   -3.529980
     77          1           0        4.897038   -5.899085   -2.451850
     78          1           0        3.862116   -4.745411   -3.100742
     79          1           0        4.454257   -4.530445   -1.418727
     80         12           0       -9.817834    0.160629   -0.028832
     81          6           0       -6.906870   -1.924404   -0.010964
     82          6           0       -8.010509    2.588691   -1.651175
     83          6           0      -12.354505    2.363742    0.316721
     84          6           0      -11.169495   -1.981770    2.425653
     85          7           0       -7.714792    0.280161   -0.742766
     86          6           0       -6.703754   -0.693067   -0.708104
     87          6           0       -5.497166   -0.177136   -1.449488
     88          6           0       -5.750821    1.389259   -1.461301
     89          6           0       -7.285608    1.448307   -1.205988
     90          6           0       -4.915224    2.022274   -0.292144
     91          6           0       -5.247671   -0.872239   -2.834379
     92          6           0       -3.845411   -1.181602   -2.999456
     93          1           0       -3.510740   -2.202221   -4.199897
     94          7           0      -10.117829    2.136007   -0.779504
     95          6           0       -9.273455    2.932292   -1.446030
     96          6           0       -9.957090    4.127930   -1.833206
     97          6           0      -11.214132    4.110625   -1.266269
     98          6           0      -11.330388    2.761637   -0.541940
     99          6           0       -9.232473    5.298095   -2.571275
    100          6           0      -12.354797    5.140355   -1.400237
    101          8           0      -13.379908    4.960302   -0.793039
    102          6           0      -12.232541    6.310750   -2.347298
    103          7           0      -11.388273    0.288453    1.421150
    104          6           0      -12.372882    1.251178    1.227995
    105          6           0      -13.592395    0.930862    2.029626
    106          6           0      -13.227701   -0.483464    2.697954
    107          6           0      -11.872058   -0.794430    2.108612
    108          6           0      -13.975355    2.018861    2.975073
    109          6           0      -14.286158   -1.702172    2.499316
    110          6           0      -14.904193   -2.291146    3.705336
    111          7           0       -9.244504   -1.626039    0.995150
    112          6           0       -9.921857   -2.341525    1.956663
    113          6           0       -9.091211   -3.580076    2.286600
    114          6           0       -7.954432   -3.518087    1.455862
    115          6           0       -8.069721   -2.282577    0.727309
    116          6           0       -9.469824   -4.624633    3.345414
    117          6           0       -6.698286   -4.162971    1.219870
    118          8           0       -6.228172   -5.221247    1.695107
    119          6           0       -5.885316   -3.084768    0.392321
    120          6           0       -5.199856   -3.880293   -0.759022
    121          8           0       -5.672272   -3.867224   -1.910498
    122          8           0       -4.052499   -4.444717   -0.308729
    123          6           0       -3.521074   -5.367497   -1.369938
    124          1           0       -7.524201    3.269512   -2.353440
    125          1           0      -13.196031    3.051502    0.429033
    126          1           0      -11.545625   -2.753028    3.100843
    127          1           0       -4.651314   -0.334849   -0.780721
    128          1           0       -5.438395    1.842011   -2.401645
    129          1           0       -5.333135    1.831146    0.695938
    130          1           0       -4.803834    3.089400   -0.479575
    131          1           0       -3.907328    1.607433   -0.318457
    132          1           0       -5.422289   -0.108733   -3.592822
    133          1           0       -5.918126   -1.716898   -2.994709
    134          1           0       -3.467365   -1.756375   -2.153817
    135          1           0       -3.319999   -0.239222   -3.156209
    136          1           0       -9.851058    5.444710   -3.456644
    137          1           0       -8.219893    5.073210   -2.905912
    138          1           0       -9.165422    6.164921   -1.913977
    139          1           0      -13.091705    6.974304   -2.248513
    140          1           0      -12.225518    5.723326   -3.265389
    141          1           0      -11.294600    6.822815   -2.132652
    142          1           0      -14.352010    0.798075    1.259041
    143          1           0      -13.147531   -0.306765    3.770256
    144          1           0      -14.894055    2.428076    2.556707
    145          1           0      -13.277906    2.856332    2.966248
    146          1           0      -14.105982    1.715169    4.013983
    147          1           0      -13.651510   -2.483151    2.080604
    148          1           0      -15.002899   -1.395175    1.738818
    149          1           0      -14.621779   -3.337096    3.822198
    150          1           0      -15.930598   -2.264945    3.341001
    151          1           0      -14.818963   -1.655627    4.587841
    152          1           0       -8.963999   -4.312356    4.258362
    153          1           0       -9.146293   -5.629819    3.075343
    154          1           0      -10.555711   -4.662148    3.432588
    155          1           0       -5.168497   -2.707721    1.120498
    156          1           0       -4.070041   -6.302317   -1.482098
    157          1           0       -2.467832   -5.625554   -1.264431
    158          1           0       -3.546951   -4.790720   -2.294689
 ---------------------------------------------------------------------

 SCF Done:  E(RwB97XD) =  -4070.55313275     A.U. after   20 cycles

 Excitation energies and oscillator strengths:

 Excited State   1:      Singlet-A      1.6452 eV  753.62 nm  f=0.3124  <S**2>=0.000
     309 -> 316        0.18936
     311 -> 313        0.67461
     309 <- 316        0.11693
 This state for optimization and/or second-order correction.
 Total Energy, E(TD-HF/TD-DFT) =  -4070.49267369
 Copying the excited state density for this state as the 1-particle RhoCI density.

 Excited State   2:      Singlet-A      1.6774 eV  739.13 nm  f=0.4244  <S**2>=0.000
     310 -> 315       -0.19037
     312 -> 314        0.67417
     310 <- 315       -0.11449

 Excited State   3:      Singlet-A      2.0908 eV  593.00 nm  f=0.1286  <S**2>=0.000
     309 -> 313        0.64857
     311 -> 316       -0.26292

 Excited State   4:      Singlet-A      2.2164 eV  559.40 nm  f=0.0063  <S**2>=0.000
     310 -> 314        0.55045
     312 -> 315        0.43378

 Excited State   5:      Singlet-A      3.0668 eV  404.28 nm  f=0.0000  <S**2>=0.000
     312 -> 313        0.70690

 The electronic state is 1-A.
 Alpha  occ. eigenvalues --  -46.96680 -46.95779 -19.31406 -19.30644 -19.25855
 Alpha  occ. eigenvalues --  -19.24738 -19.24543 -19.23787 -19.23187 -19.22963
 Alpha  occ. eigenvalues --  -14.47810 -14.47297 -14.46895 -14.46495 -14.44435
 Alpha  occ. eigenvalues --  -14.43989 -14.43841 -14.43731 -10.43602 -10.43571
 Alpha  occ. eigenvalues --  -10.39673 -10.39058 -10.38908 -10.37374 -10.36492
 Alpha  occ. eigenvalues --  -10.36400 -10.35714 -10.35461 -10.35409 -10.35362
 Alpha  occ. eigenvalues --  -10.35339 -10.35016 -10.34958 -10.34757 -10.34752
 Alpha  occ. eigenvalues --  -10.34448 -10.34312 -10.34007 -10.33360 -10.33131
 Alpha  occ. eigenvalues --  -10.33123 -10.33064 -10.33027 -10.32980 -10.32791
 Alpha  occ. eigenvalues --  -10.32612 -10.32501 -10.32399 -10.32389 -10.32235
 Alpha  occ. eigenvalues --  -10.32206 -10.32152 -10.32129 -10.32126 -10.32063
 Alpha  occ. eigenvalues --  -10.32053 -10.31977 -10.31925 -10.31882 -10.31734
 Alpha  occ. eigenvalues --  -10.31675 -10.31560 -10.31516 -10.31469 -10.31397
 Alpha  occ. eigenvalues --  -10.31342 -10.31043 -10.30842 -10.30520 -10.30511
 Alpha  occ. eigenvalues --  -10.30438 -10.30390 -10.30365 -10.30365 -10.30266
 Alpha  occ. eigenvalues --  -10.30145 -10.29972 -10.29847 -10.29789 -10.29780
 Alpha  occ. eigenvalues --  -10.29465 -10.29217 -10.29063 -10.28932 -10.28809
 Alpha  occ. eigenvalues --  -10.28220  -3.22451  -3.21582  -1.96031  -1.95560
 Alpha  occ. eigenvalues --   -1.95409  -1.95161  -1.94687  -1.94548  -1.19811
 Alpha  occ. eigenvalues --   -1.18250  -1.13991  -1.12277  -1.11758  -1.10057
 Alpha  occ. eigenvalues --   -1.09567  -1.09338  -1.07810  -1.06742  -1.06141
 Alpha  occ. eigenvalues --   -1.06006  -1.05080  -1.04692  -1.03928  -1.03434
 Alpha  occ. eigenvalues --   -0.96398  -0.93178  -0.90902  -0.90877  -0.90667
 Alpha  occ. eigenvalues --   -0.90624  -0.90576  -0.90043  -0.89550  -0.89505
 Alpha  occ. eigenvalues --   -0.89166  -0.89056  -0.87898  -0.87386  -0.86332
 Alpha  occ. eigenvalues --   -0.86299  -0.85680  -0.85548  -0.84865  -0.84567
 Alpha  occ. eigenvalues --   -0.84478  -0.83841  -0.82678  -0.82644  -0.82407
 Alpha  occ. eigenvalues --   -0.82332  -0.80217  -0.80046  -0.79473  -0.79328
 Alpha  occ. eigenvalues --   -0.78938  -0.78462  -0.77925  -0.77681  -0.77409
 Alpha  occ. eigenvalues --   -0.76887  -0.75634  -0.74269  -0.74162  -0.73421
 Alpha  occ. eigenvalues --   -0.71506  -0.70812  -0.70435  -0.70424  -0.69783
 Alpha  occ. eigenvalues --   -0.69426  -0.69194  -0.68352  -0.68284  -0.67353
 Alpha  occ. eigenvalues --   -0.67037  -0.66907  -0.66735  -0.66445  -0.66294
 Alpha  occ. eigenvalues --   -0.66264  -0.64824  -0.64063  -0.62536  -0.62187
 Alpha  occ. eigenvalues --   -0.61962  -0.61610  -0.61218  -0.61088  -0.61055
 Alpha  occ. eigenvalues --   -0.60442  -0.60226  -0.60114  -0.59396  -0.59048
 Alpha  occ. eigenvalues --   -0.58524  -0.58001  -0.57713  -0.57475  -0.57298
 Alpha  occ. eigenvalues --   -0.57108  -0.57046  -0.56284  -0.55964  -0.55923
 Alpha  occ. eigenvalues --   -0.55839  -0.55537  -0.55499  -0.55142  -0.54896
 Alpha  occ. eigenvalues --   -0.54756  -0.54617  -0.54568  -0.54550  -0.54415
 Alpha  occ. eigenvalues --   -0.54255  -0.53865  -0.53807  -0.53388  -0.53254
 Alpha  occ. eigenvalues --   -0.53182  -0.52818  -0.52585  -0.52487  -0.52315
 Alpha  occ. eigenvalues --   -0.52175  -0.52084  -0.52079  -0.51810  -0.51681
 Alpha  occ. eigenvalues --   -0.51475  -0.51362  -0.51060  -0.50968  -0.50892
 Alpha  occ. eigenvalues --   -0.50762  -0.50560  -0.50447  -0.50173  -0.49962
 Alpha  occ. eigenvalues --   -0.49903  -0.49797  -0.49375  -0.49308  -0.49193
 Alpha  occ. eigenvalues --   -0.48986  -0.48572  -0.48530  -0.48474  -0.48377
 Alpha  occ. eigenvalues --   -0.48277  -0.48152  -0.48007  -0.48002  -0.47778
 Alpha  occ. eigenvalues --   -0.47755  -0.47292  -0.47272  -0.47025  -0.46685
 Alpha  occ. eigenvalues --   -0.46535  -0.46531  -0.46476  -0.46299  -0.46035
 Alpha  occ. eigenvalues --   -0.45842  -0.45751  -0.45744  -0.45410  -0.45307
 Alpha  occ. eigenvalues --   -0.45206  -0.45204  -0.45004  -0.44918  -0.44798
 Alpha  occ. eigenvalues --   -0.44575  -0.44460  -0.44295  -0.44188  -0.43976
 Alpha  occ. eigenvalues --   -0.43857  -0.43483  -0.43405  -0.43330  -0.43211
 Alpha  occ. eigenvalues --   -0.43040  -0.42951  -0.42696  -0.42407  -0.42220
 Alpha  occ. eigenvalues --   -0.42140  -0.41714  -0.41400  -0.40769  -0.40476
 Alpha  occ. eigenvalues --   -0.40466  -0.39848  -0.39775  -0.39610  -0.39248
 Alpha  occ. eigenvalues --   -0.39184  -0.39151  -0.38998  -0.38934  -0.38650
 Alpha  occ. eigenvalues --   -0.38091  -0.37507  -0.37089  -0.36829  -0.36062
 Alpha  occ. eigenvalues --   -0.35844  -0.35697  -0.35211  -0.33947  -0.33683
 Alpha  occ. eigenvalues --   -0.33387  -0.32645  -0.32483  -0.32248  -0.32182
 Alpha  occ. eigenvalues --   -0.32015  -0.31673  -0.31471  -0.26263  -0.26214
 Alpha  occ. eigenvalues --   -0.23865  -0.22025
 Alpha virt. eigenvalues --   -0.07983  -0.05902  -0.00618  -0.00610   0.01977
 Alpha virt. eigenvalues --    0.02070   0.04459   0.04536   0.04670   0.05056
 Alpha virt. eigenvalues --    0.06718   0.07223   0.07421   0.07738   0.07946

 Mulliken charges:
               1
     1  Mg   0.948564
     2  C    0.000559
     3  C   -0.064994
     4  C   -0.087378
     5  C   -0.085650
     6  N   -0.297922
     7  C   -0.037861
     8  C   -0.036655
     9  C   -0.151751
    10  C    0.082310
    11  C    0.029995
    12  C   -0.000988
    13  C   -0.097491
    14  H    0.043045
    15  N   -0.425863
    16  C    0.122602
    17  C   -0.157967
    18  C   -0.085197
    19  C    0.168911
    20  C    0.086429
    21  C    0.031995
    22  O   -0.272001
    23  C   -0.011389
    24  N   -0.428277
    25  C    0.087338
    26  C   -0.092051
    27  C   -0.113491
    28  C    0.082575
    29  C    0.055311
    30  C   -0.033205
    31  C   -0.022740
    32  N   -0.388540
    33  C    0.120863
    34  C   -0.174673
    35  C    0.039075
    36  C    0.121365
    37  C    0.098355
    38  C    0.026062
    39  O   -0.206036
    40  C   -0.074568
    41  C    0.254024
    42  O   -0.209486
    43  O   -0.358161
    44  C    0.118598
    45  H   -0.004829
    46  H   -0.015901
    47  H    0.010137
    48  H    0.028264
    49  H    0.040937
    50  H    0.038786
    51  H    0.043086
    52  H    0.043337
    53  H    0.043765
    54  H    0.048016
    55  H    0.049916
    56  H    0.043225
    57  H    0.069424
    58  H    0.065065
    59  H    0.028986
    60  H    0.067755
    61  H    0.050409
    62  H    0.051374
    63  H    0.031820
    64  H    0.027994
    65  H    0.049185
    66  H    0.044382
    67  H    0.015738
    68  H    0.025043
    69  H    0.037057
    70  H    0.036116
    71  H    0.032797
    72  H    0.043253
    73  H    0.056020
    74  H    0.023882
    75  H    0.063805
    76  H    0.047929
    77  H    0.049151
    78  H    0.048133
    79  H    0.062299
    80  Mg   0.943017
    81  C    0.041785
    82  C   -0.129181
    83  C   -0.076030
    84  C   -0.077226
    85  N   -0.336198
    86  C   -0.017742
    87  C   -0.079582
    88  C   -0.155312
    89  C    0.135893
    90  C    0.022136
    91  C    0.093518
    92  C   -0.136235
    93  H    0.008435
    94  N   -0.446386
    95  C    0.165913
    96  C   -0.153413
    97  C   -0.107720
    98  C    0.164894
    99  C    0.056828
   100  C    0.032493
   101  O   -0.217345
   102  C    0.006227
   103  N   -0.392426
   104  C    0.060403
   105  C   -0.103435
   106  C   -0.058560
   107  C    0.088984
   108  C    0.029671
   109  C   -0.034554
   110  C   -0.028638
   111  N   -0.416625
   112  C    0.095748
   113  C   -0.195721
   114  C   -0.011631
   115  C    0.105129
   116  C    0.075051
   117  C    0.122658
   118  O   -0.234716
   119  C   -0.139333
   120  C    0.281207
   121  O   -0.275237
   122  O   -0.340293
   123  C    0.132014
   124  H   -0.010201
   125  H    0.029266
   126  H   -0.008167
   127  H    0.017219
   128  H    0.025062
   129  H    0.051041
   130  H    0.035199
   131  H    0.035335
   132  H    0.016100
   133  H    0.073755
   134  H    0.051842
   135  H    0.042770
   136  H    0.051627
   137  H    0.037484
   138  H    0.072728
   139  H    0.062156
   140  H    0.066189
   141  H    0.055615
   142  H    0.043055
   143  H    0.031587
   144  H    0.039738
   145  H    0.045909
   146  H    0.038642
   147  H    0.026802
   148  H    0.028202
   149  H    0.044972
   150  H    0.030335
   151  H    0.041895
   152  H    0.063254
   153  H    0.057672
   154  H    0.033439
   155  H    0.090187
   156  H    0.070403
   157  H    0.051681
   158  H    0.058742
 Sum of Mulliken charges =  -0.00000

 Dipole moment (field-independent basis, Debye):
    X=              0.8793    Y=              5.1744    Z=             -0.9509  Tot=              5.3341
 Quadrupole moment (field-independent basis, Debye-Ang):
   XX=           -437.5314   YY=           -560.8858   ZZ=           -488.1839
   XY=             -7.1864   XZ=             28.7717   YZ=            -19.6421

 Normal termination of Gaussian 16 at Sun Sep 19 12:03:14 2021.
