 Gaussian 16, Revision A.03,
 Gaussian 16:  ES64L-G16RevA.03 25-Dec-2016

 --------------------------------
 #p wB97XD/Def2SVP td=(nstates=5)
 --------------------------------

 --------------------------------
 TDDFT excited states in gaussian
 --------------------------------
 Symbolic Z-matrix:
 Charge =  0 Multiplicity = 1

                         Standard orientation:
 ---------------------------------------------------------------------
 Center     Atomic      Atomic             Coordinates (Angstroms)
 Number     Number       Type             X           Y           Z
 ---------------------------------------------------------------------
      1         12           0       -3.845304   -0.471998    1.254203
      2          6           0       -5.614720    1.797082   -0.560058
      3          6           0       -2.059977    2.043015    2.778737
      4          6           0       -2.042739   -2.848931    2.854739
      5          6           0       -5.355780   -3.021165   -0.672445
      6          7           0       -3.691870    1.682048    0.953000
      7          6           0       -4.730036    2.373229    0.411219
      8          6           0       -4.730829    3.820711    0.769429
      9          6           0       -3.382808    3.876576    1.658667
     10          6           0       -2.996815    2.443368    1.824393
     11          6           0       -2.222452    4.725671    0.966827
     12          6           0       -6.037901    4.137498    1.635483
     13          6           0       -6.524866    5.587863    1.665778
     14          1           0       -5.688920    6.801472    1.188445
     15          7           0       -2.336125   -0.463620    2.702203
     16          6           0       -1.716502    0.701224    3.183548
     17          6           0       -0.702234    0.282254    4.122922
     18          6           0       -0.707181   -1.126431    4.177167
     19          6           0       -1.763496   -1.512308    3.251684
     20          6           0        0.129448    1.317169    4.916061
     21          6           0        0.301916   -2.086591    4.999625
     22          8           0        0.130872   -3.308350    5.097175
     23          6           0        1.523726   -1.593804    5.757300
     24          7           0       -3.787489   -2.681555    1.133781
     25          6           0       -2.912387   -3.384027    1.892277
     26          6           0       -2.833054   -4.843094    1.446225
     27          6           0       -4.168819   -4.972075    0.510502
     28          6           0       -4.568311   -3.495540    0.362624
     29          6           0       -1.445029   -5.309769    0.808874
     30          6           0       -5.443463   -5.702632    1.174683
     31          6           0       -6.166180   -6.798991    0.413876
     32          7           0       -5.251288   -0.673292   -0.277311
     33          6           0       -5.752623   -1.718363   -0.958711
     34          6           0       -6.811686   -1.245562   -1.904470
     35          6           0       -6.794953    0.155012   -1.703033
     36          6           0       -5.738878    0.424576   -0.798602
     37          6           0       -7.719497   -1.999270   -2.810758
     38          6           0       -7.445698    1.324766   -2.161348
     39          8           0       -8.366440    1.462836   -2.992699
     40          6           0       -6.707245    2.451862   -1.443813
     41          6           0       -6.106601    3.318724   -2.431719
     42          8           0       -5.355927    3.078719   -3.325031
     43          8           0       -6.482398    4.614218   -2.089198
     44          6           0       -5.997415    5.824994   -2.856133
     45          1           0       -1.618782    2.774618    3.458273
     46          1           0       -1.392131   -3.603335    3.302765
     47          1           0       -5.713952   -3.722697   -1.427968
     48          1           0       -4.695952    4.598182    0.006519
     49          1           0       -3.571844    4.317350    2.637466
     50          1           0       -1.590732    5.304924    1.639852
     51          1           0       -2.648482    5.315815    0.155597
     52          1           0       -1.555499    4.002519    0.496310
     53          1           0       -5.915355    3.825419    2.672821
     54          1           0       -6.820881    3.514327    1.202649
     55          1           0       -6.827414    5.771477    2.697503
     56          1           0       -7.461514    5.649004    1.112962
     57          1           0       -0.157726    2.353669    4.739638
     58          1           0        1.171980    1.146047    4.649884
     59          1           0        0.023329    1.068404    5.972228
     60          1           0        1.113653   -1.035885    6.598311
     61          1           0        2.036085   -0.781618    5.241215
     62          1           0        2.237445   -2.405226    5.898312
     63          1           0       -3.004659   -5.465530    2.325231
     64          1           0       -3.941473   -5.483196   -0.425209
     65          1           0       -1.582302   -5.691768   -0.203001
     66          1           0       -0.979304   -6.066020    1.439736
     67          1           0       -0.770575   -4.460904    0.693944
     68          1           0       -6.185570   -4.984819    1.523836
     69          1           0       -5.086383   -6.136601    2.108148
     70          1           0       -7.207361   -6.487046    0.339560
     71          1           0       -6.070178   -7.777710    0.883153
     72          1           0       -5.797748   -6.837087   -0.612218
     73          1           0       -7.647985   -3.084082   -2.733952
     74          1           0       -7.516954   -1.755982   -3.854100
     75          1           0       -8.745650   -1.711120   -2.583430
     76          1           0       -7.371428    3.043938   -0.813530
     77          1           0       -5.299728    5.524489   -3.638116
     78          1           0       -5.441849    6.482935   -2.186543
     79          1           0       -6.895770    6.283469   -3.269399
     80         12           0        3.698838   -0.648610   -1.095682
     81          6           0        5.218125    2.515235   -0.206736
     82          6           0        0.864548    0.879560   -0.833227
     83          6           0        2.505372   -3.671428   -1.644092
     84          6           0        6.876129   -2.323531   -0.539712
     85          7           0        3.140352    1.541701   -0.685294
     86          6           0        3.866931    2.663435   -0.343760
     87          6           0        2.958053    3.815116   -0.106182
     88          6           0        1.586324    3.144740    0.163228
     89          6           0        1.864527    1.749244   -0.443559
     90          6           0        1.215086    3.030317    1.658013
     91          6           0        2.859416    4.681877   -1.398439
     92          6           0        2.929837    6.245918   -1.202422
     93          1           0        3.308855    7.179183   -2.420365
     94          7           0        1.820469   -1.289892   -1.270274
     95          6           0        0.768286   -0.515894   -1.247316
     96          6           0       -0.393767   -1.322438   -1.569497
     97          6           0        0.141844   -2.585461   -1.915300
     98          6           0        1.540672   -2.550071   -1.584720
     99          6           0       -1.795426   -0.691788   -1.656899
    100          6           0       -0.623775   -3.760316   -2.457102
    101          8           0       -0.062840   -4.790675   -2.683105
    102          6           0       -2.067088   -3.592552   -2.804355
    103          7           0        4.592353   -2.781403   -0.799809
    104          6           0        3.839455   -3.770400   -1.276950
    105          6           0        4.619235   -5.013715   -1.487216
    106          6           0        6.009075   -4.582637   -0.920714
    107          6           0        5.864161   -3.098288   -0.712313
    108          6           0        4.032147   -6.355621   -0.919005
    109          6           0        7.175879   -4.991975   -1.901992
    110          6           0        8.102747   -6.186151   -1.541024
    111          7           0        5.585987   -0.137153   -0.526234
    112          6           0        6.797732   -0.854118   -0.409244
    113          6           0        7.890126    0.080599   -0.068609
    114          6           0        7.308980    1.340267   -0.010807
    115          6           0        5.950651    1.194128   -0.235937
    116          6           0        9.335068   -0.332749    0.302029
    117          6           0        7.649434    2.777550    0.240743
    118          8           0        8.681024    3.368907    0.455874
    119          6           0        6.258506    3.587026    0.293742
    120          6           0        6.332898    4.808557   -0.420218
    121          8           0        6.006314    4.894521   -1.612272
    122          8           0        6.833485    5.908517    0.269349
    123          6           0        6.749192    7.260011   -0.364546
    124          1           0       -0.150278    1.281101   -0.823062
    125          1           0        2.120953   -4.663645   -1.889021
    126          1           0        7.839360   -2.810007   -0.378516
    127          1           0        3.241228    4.327784    0.813475
    128          1           0        0.716584    3.615554   -0.294602
    129          1           0        0.291170    3.571352    1.864520
    130          1           0        2.038508    3.467001    2.222389
    131          1           0        1.111508    2.008533    2.024240
    132          1           0        1.886846    4.432832   -1.823316
    133          1           0        3.636203    4.308101   -2.065210
    134          1           0        3.604923    6.442060   -0.369864
    135          1           0        1.912145    6.481489   -0.888850
    136          1           0       -2.133344   -0.748228   -2.692472
    137          1           0       -1.886453    0.324596   -1.275324
    138          1           0       -2.523870   -1.326905   -1.153632
    139          1           0       -2.223235   -2.858563   -3.594476
    140          1           0       -2.713770   -3.178682   -2.030732
    141          1           0       -2.441114   -4.534587   -3.206102
    142          1           0        4.724394   -5.156487   -2.562705
    143          1           0        6.129517   -4.989584    0.083506
    144          1           0        3.037446   -6.116962   -0.543994
    145          1           0        4.642493   -6.905644   -0.201859
    146          1           0        3.950898   -7.067905   -1.740245
    147          1           0        7.855053   -4.146305   -2.013385
    148          1           0        6.714629   -4.991574   -2.889582
    149          1           0        8.231750   -6.830206   -2.410729
    150          1           0        7.674465   -6.737944   -0.704071
    151          1           0        9.095502   -5.831353   -1.261567
    152          1           0        9.578836   -1.228833   -0.267992
    153          1           0        9.359689   -0.642707    1.346998
    154          1           0       10.054097    0.461041    0.098235
    155          1           0        6.035284    3.797095    1.339342
    156          1           0        5.710887    7.556638   -0.519571
    157          1           0        7.445235    7.355640   -1.197036
    158          1           0        7.011594    7.979699    0.410783
 ---------------------------------------------------------------------

 SCF Done:  E(RwB97XD) =  -4070.60333472     A.U. after   19 cycles

 Excitation energies and oscillator strengths:

 Excited State   1:      Singlet-A      1.6622 eV  745.89 nm  f=0.1821  <S**2>=0.000
     309 -> 315       -0.18164
     311 -> 313        0.64136
     312 -> 314       -0.21795
     309 <- 315       -0.11184
 This state for optimization and/or second-order correction.
 Total Energy, E(TD-HF/TD-DFT) =  -4070.54224904
 Copying the excited state density for this state as the 1-particle RhoCI density.

 Excited State   2:      Singlet-A      1.6921 eV  732.72 nm  f=0.5772  <S**2>=0.000
     310 -> 317        0.15659
     311 -> 313        0.21371
     312 -> 314        0.64375
     310 <- 317        0.10333

 Excited State   3:      Singlet-A      2.1095 eV  587.74 nm  f=0.0986  <S**2>=0.000
     309 -> 313       -0.21872
     310 -> 314        0.62814
     312 -> 317       -0.18786

 Excited State   4:      Singlet-A      2.1719 eV  570.86 nm  f=0.1648  <S**2>=0.000
     309 -> 313        0.59382
     310 -> 314        0.21872
     311 -> 315        0.28358

 Excited State   5:      Singlet-A      2.5345 eV  489.18 nm  f=0.0004  <S**2>=0.000
     311 -> 314        0.69739

 The electronic state is 1-A.
 Alpha  occ. eigenvalues --  -46.96436 -46.95711 -19.29524 -19.29233 -19.25174
 Alpha  occ. eigenvalues --  -19.24603 -19.24602 -19.24504 -19.24322 -19.23473
 Alpha  occ. eigenvalues --  -14.47840 -14.46961 -14.46352 -14.44776 -14.44722
 Alpha  occ. eigenvalues --  -14.44643 -14.44357 -14.44283 -10.43124 -10.42345
 Alpha  occ. eigenvalues --  -10.40612 -10.39914 -10.39145 -10.39103 -10.36527
 Alpha  occ. eigenvalues --  -10.36180 -10.35476 -10.35432 -10.35347 -10.35260
 Alpha  occ. eigenvalues --  -10.35045 -10.34815 -10.34740 -10.34655 -10.34624
 Alpha  occ. eigenvalues --  -10.34362 -10.34028 -10.33969 -10.33742 -10.33701
 Alpha  occ. eigenvalues --  -10.33527 -10.33519 -10.33495 -10.33278 -10.33139
 Alpha  occ. eigenvalues --  -10.33062 -10.33026 -10.32926 -10.32817 -10.32748
 Alpha  occ. eigenvalues --  -10.32718 -10.32660 -10.32295 -10.32269 -10.32251
 Alpha  occ. eigenvalues --  -10.32197 -10.32173 -10.32056 -10.31983 -10.31848
 Alpha  occ. eigenvalues --  -10.31823 -10.31816 -10.31249 -10.31211 -10.31207
 Alpha  occ. eigenvalues --  -10.31196 -10.31187 -10.30805 -10.30794 -10.30682
 Alpha  occ. eigenvalues --  -10.30551 -10.30500 -10.30391 -10.30315 -10.30144
 Alpha  occ. eigenvalues --  -10.30060 -10.30016 -10.29824 -10.29790 -10.29561
 Alpha  occ. eigenvalues --  -10.29506 -10.29495 -10.29433 -10.29304 -10.29301
 Alpha  occ. eigenvalues --  -10.29022  -3.22293  -3.21690  -1.95903  -1.95397
 Alpha  occ. eigenvalues --   -1.95274  -1.95264  -1.94820  -1.94652  -1.18413
 Alpha  occ. eigenvalues --   -1.16353  -1.14431  -1.13029  -1.12095  -1.11200
 Alpha  occ. eigenvalues --   -1.10031  -1.08456  -1.08353  -1.07854  -1.07252
 Alpha  occ. eigenvalues --   -1.06920  -1.06852  -1.06239  -1.05298  -1.02893
 Alpha  occ. eigenvalues --   -0.96195  -0.93154  -0.91229  -0.91125  -0.90855
 Alpha  occ. eigenvalues --   -0.90745  -0.90152  -0.89805  -0.89663  -0.89619
 Alpha  occ. eigenvalues --   -0.89538  -0.89201  -0.88785  -0.87059  -0.86926
 Alpha  occ. eigenvalues --   -0.86240  -0.85922  -0.84904  -0.84734  -0.84050
 Alpha  occ. eigenvalues --   -0.83961  -0.83834  -0.83610  -0.82881  -0.82837
 Alpha  occ. eigenvalues --   -0.82310  -0.80964  -0.80639  -0.79992  -0.79684
 Alpha  occ. eigenvalues --   -0.79038  -0.78756  -0.78554  -0.78136  -0.77580
 Alpha  occ. eigenvalues --   -0.77320  -0.75255  -0.74687  -0.74597  -0.73040
 Alpha  occ. eigenvalues --   -0.71929  -0.71189  -0.71147  -0.70665  -0.70606
 Alpha  occ. eigenvalues --   -0.69907  -0.69284  -0.68512  -0.68043  -0.67869
 Alpha  occ. eigenvalues --   -0.67715  -0.67478  -0.67148  -0.66918  -0.66893
 Alpha  occ. eigenvalues --   -0.66173  -0.64441  -0.63410  -0.63110  -0.63034
 Alpha  occ. eigenvalues --   -0.62558  -0.62047  -0.61813  -0.61449  -0.61071
 Alpha  occ. eigenvalues --   -0.61008  -0.60255  -0.59981  -0.59503  -0.59129
 Alpha  occ. eigenvalues --   -0.58673  -0.58484  -0.58053  -0.57877  -0.57615
 Alpha  occ. eigenvalues --   -0.57445  -0.56729  -0.56460  -0.55901  -0.55875
 Alpha  occ. eigenvalues --   -0.55622  -0.55563  -0.55345  -0.55326  -0.54828
 Alpha  occ. eigenvalues --   -0.54716  -0.54536  -0.54490  -0.54374  -0.54236
 Alpha  occ. eigenvalues --   -0.54016  -0.53885  -0.53862  -0.53755  -0.53337
 Alpha  occ. eigenvalues --   -0.53176  -0.53016  -0.52500  -0.52295  -0.52194
 Alpha  occ. eigenvalues --   -0.52133  -0.51993  -0.51897  -0.51800  -0.51725
 Alpha  occ. eigenvalues --   -0.51575  -0.51518  -0.51434  -0.51111  -0.50824
 Alpha  occ. eigenvalues --   -0.50796  -0.50648  -0.50598  -0.50396  -0.50220
 Alpha  occ. eigenvalues --   -0.50166  -0.49832  -0.49729  -0.49628  -0.49435
 Alpha  occ. eigenvalues --   -0.49304  -0.49291  -0.49184  -0.49000  -0.48789
 Alpha  occ. eigenvalues --   -0.48364  -0.48249  -0.48118  -0.48024  -0.47660
 Alpha  occ. eigenvalues --   -0.47638  -0.47418  -0.47263  -0.47243  -0.46852
 Alpha  occ. eigenvalues --   -0.46818  -0.46770  -0.46685  -0.46463  -0.46431
 Alpha  occ. eigenvalues --   -0.46326  -0.46246  -0.46026  -0.45944  -0.45660
 Alpha  occ. eigenvalues --   -0.45379  -0.45342  -0.45241  -0.44969  -0.44888
 Alpha  occ. eigenvalues --   -0.44645  -0.44607  -0.44331  -0.44231  -0.44099
 Alpha  occ. eigenvalues --   -0.43736  -0.43683  -0.43547  -0.43512  -0.43248
 Alpha  occ. eigenvalues --   -0.43167  -0.42849  -0.42590  -0.42510  -0.42247
 Alpha  occ. eigenvalues --   -0.42160  -0.42074  -0.41902  -0.41765  -0.41722
 Alpha  occ. eigenvalues --   -0.40719  -0.40415  -0.40191  -0.40140  -0.39513
 Alpha  occ. eigenvalues --   -0.39413  -0.39197  -0.39081  -0.38734  -0.38431
 Alpha  occ. eigenvalues --   -0.38139  -0.37746  -0.37102  -0.36843  -0.36100
 Alpha  occ. eigenvalues --   -0.35488  -0.35011  -0.34726  -0.34043  -0.33896
 Alpha  occ. eigenvalues --   -0.33756  -0.33568  -0.33422  -0.33247  -0.32948
 Alpha  occ. eigenvalues --   -0.32843  -0.32735  -0.31736  -0.26454  -0.25390
 Alpha  occ. eigenvalues --   -0.23620  -0.23403
 Alpha virt. eigenvalues --   -0.07565  -0.07333  -0.00542   0.01418   0.01615
 Alpha virt. eigenvalues --    0.03054   0.03895   0.04724   0.05239   0.05560
 Alpha virt. eigenvalues --    0.06713   0.06769   0.07429   0.07654   0.07727

 Mulliken charges:
               1
     1  Mg   0.894704
     2  C   -0.080637
     3  C   -0.066852
     4  C   -0.046152
     5  C   -0.098873
     6  N   -0.364586
     7  C    0.030025
     8  C   -0.079012
     9  C   -0.112911
    10  C    0.084083
    11  C    0.023032
    12  C   -0.013847
    13  C   -0.099956
    14  H    0.036391
    15  N   -0.436358
    16  C    0.112695
    17  C   -0.179695
    18  C   -0.082416
    19  C    0.124117
    20  C    0.058671
    21  C    0.078690
    22  O   -0.247325
    23  C    0.009574
    24  N   -0.333343
    25  C    0.031886
    26  C   -0.065164
    27  C   -0.124062
    28  C    0.099947
    29  C    0.011710
    30  C   -0.019596
    31  C   -0.037814
    32  N   -0.386949
    33  C    0.079555
    34  C   -0.155902
    35  C   -0.056177
    36  C    0.189878
    37  C    0.082471
    38  C    0.128876
    39  O   -0.227247
    40  C   -0.055144
    41  C    0.259691
    42  O   -0.204038
    43  O   -0.416279
    44  C    0.129736
    45  H   -0.002896
    46  H    0.018316
    47  H    0.001376
    48  H    0.042178
    49  H    0.035409
    50  H    0.053817
    51  H    0.035109
    52  H    0.031668
    53  H    0.034751
    54  H    0.034013
    55  H    0.044442
    56  H    0.054659
    57  H    0.043398
    58  H    0.054355
    59  H    0.051480
    60  H    0.054760
    61  H    0.028601
    62  H    0.078210
    63  H    0.037518
    64  H    0.035769
    65  H    0.045283
    66  H    0.050603
    67  H    0.049670
    68  H    0.037874
    69  H    0.022051
    70  H    0.036789
    71  H    0.049875
    72  H    0.025244
    73  H    0.025203
    74  H    0.065132
    75  H    0.065284
    76  H    0.071092
    77  H    0.066382
    78  H    0.053518
    79  H    0.070989
    80  Mg   0.973552
    81  C   -0.021460
    82  C   -0.045029
    83  C   -0.054746
    84  C   -0.110492
    85  N   -0.301668
    86  C   -0.007468
    87  C   -0.070416
    88  C   -0.134904
    89  C    0.066580
    90  C    0.053552
    91  C    0.032934
    92  C   -0.096095
    93  H    0.050260
    94  N   -0.461928
    95  C    0.094410
    96  C   -0.139792
    97  C   -0.075950
    98  C    0.136059
    99  C    0.032783
   100  C    0.041716
   101  O   -0.205200
   102  C   -0.012283
   103  N   -0.271670
   104  C    0.016141
   105  C   -0.095612
   106  C   -0.044623
   107  C    0.058060
   108  C    0.023767
   109  C   -0.029488
   110  C   -0.028154
   111  N   -0.485205
   112  C    0.125578
   113  C   -0.224596
   114  C   -0.055370
   115  C    0.150952
   116  C    0.077613
   117  C    0.162717
   118  O   -0.175531
   119  C   -0.083304
   120  C    0.267167
   121  O   -0.272694
   122  O   -0.390348
   123  C    0.157762
   124  H   -0.024495
   125  H    0.019744
   126  H   -0.000819
   127  H    0.018160
   128  H    0.036162
   129  H    0.016171
   130  H    0.020640
   131  H    0.044947
   132  H    0.027355
   133  H    0.074364
   134  H    0.043005
   135  H    0.035315
   136  H    0.056498
   137  H    0.093712
   138  H    0.065268
   139  H    0.054094
   140  H    0.041214
   141  H    0.050043
   142  H    0.045896
   143  H    0.031608
   144  H    0.048615
   145  H    0.037786
   146  H    0.031534
   147  H    0.020908
   148  H    0.014738
   149  H    0.040021
   150  H    0.034850
   151  H    0.038086
   152  H    0.028699
   153  H    0.051712
   154  H    0.061541
   155  H    0.078443
   156  H    0.043300
   157  H    0.074105
   158  H    0.041885
 Sum of Mulliken charges =  -0.00000

 Dipole moment (field-independent basis, Debye):
    X=             -3.9363    Y=              0.8377    Z=              4.2496  Tot=              5.8528
 Quadrupole moment (field-independent basis, Debye-Ang):
   XX=           -557.6829   YY=           -468.9405   ZZ=           -522.5130
   XY=            -24.1902   XZ=            -16.7366   YZ=             25.4085

 Normal termination of Gaussian 16 at Sun Sep 19 13:24:24 2021.
