 Gaussian 16, Revision A.03,
 Gaussian 16:  ES64L-G16RevA.03 25-Dec-2016

 --------------------------------
 #p wB97XD/Def2SVP td=(nstates=5)
 --------------------------------

 --------------------------------
 TDDFT excited states in gaussian
 --------------------------------
 Symbolic Z-matrix:
 Charge =  0 Multiplicity = 1

                         Standard orientation:
 ---------------------------------------------------------------------
 Center     Atomic      Atomic             Coordinates (Angstroms)
 Number     Number       Type             X           Y           Z
 ---------------------------------------------------------------------
      1         12           0      -24.944603   -0.680993   -0.325104
      2          6           0      -25.175692    2.330956    1.390894
      3          6           0      -24.156210    1.208459   -3.124761
      4          6           0      -25.212003   -3.547508   -2.135583
      5          6           0      -25.914247   -2.353748    2.541527
      6          7           0      -24.750549    1.526178   -0.814959
      7          6           0      -24.851609    2.599530    0.057002
      8          6           0      -24.697858    4.006601   -0.643272
      9          6           0      -24.694955    3.554744   -2.155057
     10          6           0      -24.562933    1.990384   -2.054101
     11          6           0      -25.862550    3.897961   -3.084803
     12          6           0      -23.435334    4.733292   -0.144691
     13          6           0      -23.638240    5.911173    0.771596
     14          1           0      -22.674665    7.098649    0.598423
     15          7           0      -24.538514   -1.187791   -2.294083
     16          6           0      -24.161770   -0.264223   -3.218617
     17          6           0      -23.999418   -1.014361   -4.479302
     18          6           0      -24.385878   -2.346649   -4.265189
     19          6           0      -24.718168   -2.441788   -2.896842
     20          6           0      -23.393727   -0.381459   -5.665877
     21          6           0      -24.490977   -3.490617   -5.230710
     22          8           0      -24.748927   -4.675574   -4.880067
     23          6           0      -24.344259   -3.355792   -6.645900
     24          7           0      -25.393567   -2.630655    0.135441
     25          6           0      -25.414972   -3.650013   -0.766222
     26          6           0      -25.790824   -4.952974   -0.178274
     27          6           0      -25.963409   -4.606382    1.344196
     28          6           0      -25.809501   -3.132068    1.321244
     29          6           0      -26.983255   -5.810653   -0.695017
     30          6           0      -25.006763   -5.418557    2.349997
     31          6           0      -23.547777   -4.980868    2.675457
     32          7           0      -25.489670   -0.192159    1.573376
     33          6           0      -25.821691   -0.972511    2.643213
     34          6           0      -25.882354   -0.197328    3.804514
     35          6           0      -25.713319    1.150631    3.303303
     36          6           0      -25.451276    1.081179    1.949531
     37          6           0      -26.071838   -0.672455    5.243883
     38          6           0      -25.572656    2.503114    3.761007
     39          8           0      -25.541108    3.035386    4.851894
     40          6           0      -25.442643    3.363475    2.455441
     41          6           0      -26.692511    4.113922    2.222375
     42          8           0      -27.501693    3.937575    1.285157
     43          8           0      -26.960806    5.057356    3.151360
     44          6           0      -28.065411    6.046947    2.908756
     45          1           0      -23.971916    1.812225   -4.015090
     46          1           0      -25.350487   -4.491987   -2.666253
     47          1           0      -26.052362   -2.822612    3.518535
     48          1           0      -25.629841    4.572777   -0.636180
     49          1           0      -23.771125    3.953224   -2.574291
     50          1           0      -26.420596    2.995733   -3.336267
     51          1           0      -25.416103    4.170365   -4.040005
     52          1           0      -26.546869    4.663776   -2.718022
     53          1           0      -22.967790    5.134402   -1.044686
     54          1           0      -22.755561    3.987393    0.267185
     55          1           0      -23.531194    5.549681    1.794660
     56          1           0      -24.636975    6.347920    0.762774
     57          1           0      -22.482780   -0.950005   -5.848544
     58          1           0      -23.145520    0.680470   -5.644199
     59          1           0      -24.054186   -0.508974   -6.523531
     60          1           0      -24.919652   -2.468525   -6.908752
     61          1           0      -24.542548   -4.301894   -7.147904
     62          1           0      -23.329565   -3.056800   -6.908892
     63          1           0      -24.863224   -5.495459   -0.358595
     64          1           0      -26.995731   -4.790087    1.639627
     65          1           0      -26.650818   -6.750445   -1.135990
     66          1           0      -27.527735   -5.292770   -1.485325
     67          1           0      -27.736712   -6.008980    0.067178
     68          1           0      -24.917655   -6.381180    1.846041
     69          1           0      -25.658181   -5.496532    3.220573
     70          1           0      -23.260115   -3.998412    2.302009
     71          1           0      -22.771269   -5.722103    2.484369
     72          1           0      -23.532051   -4.949550    3.764104
     73          1           0      -26.934245   -0.202510    5.717807
     74          1           0      -25.203263   -0.342703    5.813687
     75          1           0      -26.103958   -1.755719    5.363477
     76          1           0      -24.721104    4.154509    2.660483
     77          1           0      -27.774967    6.756614    3.683554
     78          1           0      -29.073740    5.655499    3.039380
     79          1           0      -27.983113    6.448879    1.898440
     80         12           0       24.959168   -0.668693    0.333506
     81          6           0       25.549414    2.005800   -1.754703
     82          6           0       23.831941    1.646687    2.810734
     83          6           0       24.708751   -3.117036    2.502741
     84          6           0       26.226194   -2.869766   -2.056779
     85          7           0       24.743106    1.558150    0.423409
     86          6           0       25.011988    2.431049   -0.551951
     87          6           0       24.582951    3.860012   -0.084337
     88          6           0       24.165881    3.682713    1.447285
     89          6           0       24.302797    2.156383    1.608505
     90          6           0       25.084637    4.295069    2.487020
     91          6           0       23.523080    4.536311   -0.966918
     92          6           0       23.951398    5.936330   -1.373347
     93          1           0       22.912945    7.018375   -1.703365
     94          7           0       24.276493   -0.718026    2.346937
     95          6           0       23.820438    0.277686    3.161873
     96          6           0       23.401323   -0.201846    4.402559
     97          6           0       23.750599   -1.597205    4.420252
     98          6           0       24.265777   -1.883133    3.036637
     99          6           0       22.775079    0.664643    5.485559
    100          6           0       23.676834   -2.587156    5.571297
    101          8           0       24.191881   -3.711966    5.420041
    102          6           0       23.125710   -2.215876    6.887261
    103          7           0       25.375151   -2.654520    0.193977
    104          6           0       25.135403   -3.542243    1.222689
    105          6           0       25.533712   -5.032061    0.908381
    106          6           0       25.745653   -4.913386   -0.661230
    107          6           0       25.808342   -3.388565   -0.864975
    108          6           0       26.766435   -5.723768    1.613621
    109          6           0       24.784143   -5.745593   -1.625741
    110          6           0       23.407522   -5.168726   -1.825357
    111          7           0       25.850139   -0.530068   -1.441580
    112          6           0       26.330510   -1.469455   -2.334010
    113          6           0       26.817250   -0.883600   -3.515466
    114          6           0       26.488522    0.463842   -3.327469
    115          6           0       25.891445    0.655915   -2.047510
    116          6           0       27.347548   -1.684159   -4.627598
    117          6           0       26.682677    1.706497   -3.969780
    118          8           0       27.294264    1.925886   -5.017279
    119          6           0       26.049330    2.825913   -2.989597
    120          6           0       27.073060    3.801810   -2.659716
    121          8           0       28.000188    3.651371   -1.897222
    122          8           0       26.932054    4.889838   -3.406796
    123          6           0       27.917794    5.924709   -3.322135
    124          1           0       23.538457    2.365313    3.578227
    125          1           0       24.683269   -4.024667    3.108848
    126          1           0       26.617052   -3.592903   -2.775704
    127          1           0       25.544951    4.369622   -0.128374
    128          1           0       23.224116    4.222896    1.550411
    129          1           0       25.896931    4.895852    2.076851
    130          1           0       25.581233    3.511204    3.058271
    131          1           0       24.493300    4.806306    3.247264
    132          1           0       22.525342    4.587858   -0.530722
    133          1           0       23.389094    3.915279   -1.852308
    134          1           0       24.475836    5.821694   -2.322683
    135          1           0       24.587872    6.299445   -0.566629
    136          1           0       22.497122    1.647469    5.104772
    137          1           0       23.535101    0.893404    6.232967
    138          1           0       21.982037    0.129739    6.006778
    139          1           0       23.491122   -2.888165    7.664355
    140          1           0       22.047020   -2.365160    6.830655
    141          1           0       23.399717   -1.191343    7.137797
    142          1           0       24.682434   -5.710543    0.972467
    143          1           0       26.699318   -5.374646   -0.914824
    144          1           0       27.199147   -5.001808    2.305054
    145          1           0       27.577320   -5.817424    0.890174
    146          1           0       26.608342   -6.680820    2.111614
    147          1           0       24.620569   -6.702095   -1.129906
    148          1           0       25.229262   -5.997598   -2.587514
    149          1           0       23.094214   -5.445158   -2.831492
    150          1           0       23.213169   -4.108716   -1.666808
    151          1           0       22.767120   -5.642344   -1.081249
    152          1           0       26.948571   -2.685299   -4.788826
    153          1           0       28.431038   -1.689209   -4.740167
    154          1           0       27.052187   -1.069853   -5.477801
    155          1           0       25.237110    3.314750   -3.527245
    156          1           0       27.684238    6.657896   -2.549284
    157          1           0       27.889539    6.464000   -4.268775
    158          1           0       28.893136    5.490028   -3.102838
 ---------------------------------------------------------------------

 SCF Done:  E(RwB97XD) =  -4070.62781743     A.U. after   20 cycles

 Excitation energies and oscillator strengths:

 Excited State   1:      Singlet-A      1.6445 eV  753.95 nm  f=0.3296  <S**2>=0.000
     310 -> 316        0.18253
     312 -> 314        0.68068
     310 <- 316        0.11686
 This state for optimization and/or second-order correction.
 Total Energy, E(TD-HF/TD-DFT) =  -4070.56738464
 Copying the excited state density for this state as the 1-particle RhoCI density.

 Excited State   2:      Singlet-A      1.6477 eV  752.48 nm  f=0.4699  <S**2>=0.000
     309 -> 315        0.17764
     311 -> 313        0.68252
     309 <- 315        0.11409

 Excited State   3:      Singlet-A      2.1515 eV  576.26 nm  f=0.1357  <S**2>=0.000
     310 -> 314        0.64867
     312 -> 316       -0.26446

 Excited State   4:      Singlet-A      2.1651 eV  572.66 nm  f=0.1574  <S**2>=0.000
     309 -> 313        0.65109
     311 -> 315       -0.25705

 Excited State   5:      Singlet-A      3.3480 eV  370.32 nm  f=0.0039  <S**2>=0.000
     305 -> 314       -0.18877
     308 -> 314        0.65704

 The electronic state is 1-A.
 Alpha  occ. eigenvalues --  -46.94047 -46.93898 -19.30021 -19.29278 -19.23661
 Alpha  occ. eigenvalues --  -19.23546 -19.23306 -19.23287 -19.23209 -19.23014
 Alpha  occ. eigenvalues --  -14.46903 -14.46795 -14.46625 -14.46464 -14.44334
 Alpha  occ. eigenvalues --  -14.44169 -14.43573 -14.42965 -10.42373 -10.42101
 Alpha  occ. eigenvalues --  -10.38854 -10.38536 -10.38483 -10.38200 -10.35765
 Alpha  occ. eigenvalues --  -10.35572 -10.35251 -10.35168 -10.35018 -10.34934
 Alpha  occ. eigenvalues --  -10.34815 -10.34811 -10.34686 -10.34503 -10.34149
 Alpha  occ. eigenvalues --  -10.34148 -10.34099 -10.33425 -10.33060 -10.32989
 Alpha  occ. eigenvalues --  -10.32894 -10.32623 -10.32552 -10.32527 -10.32493
 Alpha  occ. eigenvalues --  -10.32447 -10.32414 -10.32315 -10.32286 -10.32235
 Alpha  occ. eigenvalues --  -10.32027 -10.31898 -10.31879 -10.31748 -10.31725
 Alpha  occ. eigenvalues --  -10.31655 -10.31645 -10.31630 -10.31435 -10.31397
 Alpha  occ. eigenvalues --  -10.31369 -10.31343 -10.31244 -10.31137 -10.31105
 Alpha  occ. eigenvalues --  -10.30852 -10.30830 -10.30813 -10.30790 -10.30728
 Alpha  occ. eigenvalues --  -10.30532 -10.30304 -10.30270 -10.30210 -10.30181
 Alpha  occ. eigenvalues --  -10.30032 -10.29973 -10.29865 -10.29796 -10.29632
 Alpha  occ. eigenvalues --  -10.29550 -10.29529 -10.29432 -10.28776 -10.28676
 Alpha  occ. eigenvalues --  -10.28671  -3.20239  -3.20025  -1.93834  -1.93630
 Alpha  occ. eigenvalues --   -1.93386  -1.93217  -1.93159  -1.93005  -1.20104
 Alpha  occ. eigenvalues --   -1.17302  -1.11775  -1.11092  -1.10735  -1.10163
 Alpha  occ. eigenvalues --   -1.09966  -1.07272  -1.06896  -1.06615  -1.06131
 Alpha  occ. eigenvalues --   -1.05764  -1.05340  -1.05266  -1.04591  -1.04298
 Alpha  occ. eigenvalues --   -0.95084  -0.94055  -0.91287  -0.90901  -0.90656
 Alpha  occ. eigenvalues --   -0.90348  -0.90218  -0.90216  -0.89589  -0.89551
 Alpha  occ. eigenvalues --   -0.89454  -0.88945  -0.88738  -0.88061  -0.86529
 Alpha  occ. eigenvalues --   -0.86295  -0.85760  -0.85577  -0.84842  -0.84746
 Alpha  occ. eigenvalues --   -0.84357  -0.84334  -0.83155  -0.82940  -0.82575
 Alpha  occ. eigenvalues --   -0.82510  -0.80537  -0.80322  -0.79437  -0.79261
 Alpha  occ. eigenvalues --   -0.78841  -0.78790  -0.78146  -0.77890  -0.77246
 Alpha  occ. eigenvalues --   -0.77223  -0.75446  -0.75104  -0.73431  -0.73330
 Alpha  occ. eigenvalues --   -0.72038  -0.71567  -0.70838  -0.70738  -0.69981
 Alpha  occ. eigenvalues --   -0.69755  -0.69119  -0.69097  -0.67347  -0.67149
 Alpha  occ. eigenvalues --   -0.67034  -0.66927  -0.66638  -0.66578  -0.66382
 Alpha  occ. eigenvalues --   -0.66360  -0.64308  -0.63488  -0.62430  -0.61995
 Alpha  occ. eigenvalues --   -0.61971  -0.61621  -0.61158  -0.61002  -0.60603
 Alpha  occ. eigenvalues --   -0.60503  -0.60312  -0.59738  -0.59675  -0.59304
 Alpha  occ. eigenvalues --   -0.58512  -0.58165  -0.58103  -0.57571  -0.57104
 Alpha  occ. eigenvalues --   -0.56887  -0.56596  -0.56358  -0.56303  -0.55785
 Alpha  occ. eigenvalues --   -0.55461  -0.55203  -0.55139  -0.54854  -0.54709
 Alpha  occ. eigenvalues --   -0.54466  -0.54458  -0.54392  -0.54245  -0.54025
 Alpha  occ. eigenvalues --   -0.53977  -0.53823  -0.53680  -0.53290  -0.53019
 Alpha  occ. eigenvalues --   -0.52808  -0.52307  -0.52280  -0.52225  -0.52105
 Alpha  occ. eigenvalues --   -0.51937  -0.51729  -0.51611  -0.51582  -0.51426
 Alpha  occ. eigenvalues --   -0.51381  -0.51165  -0.51084  -0.50924  -0.50877
 Alpha  occ. eigenvalues --   -0.50731  -0.50372  -0.50335  -0.50107  -0.50072
 Alpha  occ. eigenvalues --   -0.49847  -0.49719  -0.49718  -0.49295  -0.49187
 Alpha  occ. eigenvalues --   -0.48818  -0.48709  -0.48474  -0.48461  -0.48318
 Alpha  occ. eigenvalues --   -0.48176  -0.47956  -0.47935  -0.47623  -0.47447
 Alpha  occ. eigenvalues --   -0.47356  -0.47320  -0.47197  -0.47103  -0.47064
 Alpha  occ. eigenvalues --   -0.46868  -0.46716  -0.46524  -0.46303  -0.46189
 Alpha  occ. eigenvalues --   -0.45912  -0.45846  -0.45834  -0.45713  -0.45569
 Alpha  occ. eigenvalues --   -0.45444  -0.45365  -0.45208  -0.44852  -0.44704
 Alpha  occ. eigenvalues --   -0.44618  -0.44494  -0.44410  -0.43930  -0.43534
 Alpha  occ. eigenvalues --   -0.43530  -0.43430  -0.43425  -0.43341  -0.43048
 Alpha  occ. eigenvalues --   -0.43018  -0.42915  -0.42704  -0.42388  -0.42250
 Alpha  occ. eigenvalues --   -0.42023  -0.41607  -0.41117  -0.40868  -0.40842
 Alpha  occ. eigenvalues --   -0.40149  -0.40111  -0.39824  -0.39669  -0.39176
 Alpha  occ. eigenvalues --   -0.38862  -0.38637  -0.38554  -0.38403  -0.38340
 Alpha  occ. eigenvalues --   -0.38120  -0.37622  -0.36320  -0.36236  -0.35804
 Alpha  occ. eigenvalues --   -0.35464  -0.35391  -0.34772  -0.33680  -0.33229
 Alpha  occ. eigenvalues --   -0.32725  -0.32561  -0.32561  -0.32229  -0.32172
 Alpha  occ. eigenvalues --   -0.31952  -0.31942  -0.31502  -0.26053  -0.25568
 Alpha  occ. eigenvalues --   -0.23296  -0.22931
 Alpha virt. eigenvalues --   -0.07472  -0.07061   0.00490   0.00595   0.02527
 Alpha virt. eigenvalues --    0.02736   0.04445   0.04574   0.06207   0.06616
 Alpha virt. eigenvalues --    0.07476   0.07916   0.08071   0.08239   0.08404

 Mulliken charges:
               1
     1  Mg   0.984109
     2  C   -0.026434
     3  C   -0.065041
     4  C   -0.072327
     5  C   -0.099245
     6  N   -0.335705
     7  C   -0.019330
     8  C   -0.045842
     9  C   -0.130668
    10  C    0.025568
    11  C    0.037441
    12  C    0.055317
    13  C   -0.144141
    14  H    0.038389
    15  N   -0.481660
    16  C    0.183397
    17  C   -0.191584
    18  C   -0.022557
    19  C    0.131618
    20  C    0.056709
    21  C    0.038469
    22  O   -0.281133
    23  C    0.024627
    24  N   -0.375305
    25  C    0.076420
    26  C   -0.094277
    27  C   -0.054976
    28  C    0.063527
    29  C    0.027622
    30  C   -0.032329
    31  C   -0.043688
    32  N   -0.452869
    33  C    0.130575
    34  C   -0.169522
    35  C   -0.056340
    36  C    0.216038
    37  C    0.092236
    38  C    0.091590
    39  O   -0.190103
    40  C   -0.123866
    41  C    0.263276
    42  O   -0.290814
    43  O   -0.356979
    44  C    0.146661
    45  H   -0.009021
    46  H    0.021597
    47  H   -0.013545
    48  H    0.038393
    49  H    0.026754
    50  H    0.047604
    51  H    0.032129
    52  H    0.052290
    53  H    0.035791
    54  H    0.046999
    55  H    0.065134
    56  H    0.052667
    57  H    0.057311
    58  H    0.043339
    59  H    0.035745
    60  H    0.042629
    61  H    0.066631
    62  H    0.043721
    63  H    0.047293
    64  H    0.036204
    65  H    0.044665
    66  H    0.039217
    67  H    0.036238
    68  H    0.035248
    69  H    0.040168
    70  H    0.056347
    71  H    0.040405
    72  H    0.028967
    73  H    0.060721
    74  H    0.053766
    75  H    0.024495
    76  H    0.056500
    77  H    0.066037
    78  H    0.067032
    79  H    0.053673
    80  Mg   0.992447
    81  C   -0.044622
    82  C   -0.105219
    83  C   -0.051447
    84  C   -0.104124
    85  N   -0.349823
    86  C   -0.028420
    87  C   -0.021247
    88  C   -0.162841
    89  C    0.116135
    90  C    0.006202
    91  C    0.037880
    92  C   -0.145960
    93  H    0.028820
    94  N   -0.425490
    95  C    0.160248
    96  C   -0.175196
    97  C   -0.074115
    98  C    0.171299
    99  C    0.066676
   100  C    0.038151
   101  O   -0.260154
   102  C    0.004557
   103  N   -0.396078
   104  C    0.027576
   105  C   -0.070190
   106  C   -0.076019
   107  C    0.087025
   108  C    0.029265
   109  C   -0.031236
   110  C   -0.058214
   111  N   -0.470316
   112  C    0.132136
   113  C   -0.134413
   114  C   -0.037966
   115  C    0.195326
   116  C    0.072342
   117  C    0.096106
   118  O   -0.219407
   119  C   -0.078293
   120  C    0.235467
   121  O   -0.251477
   122  O   -0.328056
   123  C    0.135813
   124  H   -0.002078
   125  H    0.021835
   126  H   -0.004723
   127  H    0.033193
   128  H    0.042974
   129  H    0.043828
   130  H    0.040413
   131  H    0.035207
   132  H    0.039556
   133  H    0.030034
   134  H    0.063262
   135  H    0.056148
   136  H    0.042417
   137  H    0.057038
   138  H    0.056309
   139  H    0.055890
   140  H    0.067037
   141  H    0.045003
   142  H    0.038413
   143  H    0.027412
   144  H    0.039882
   145  H    0.027331
   146  H    0.056782
   147  H    0.029189
   148  H    0.032960
   149  H    0.037785
   150  H    0.047625
   151  H    0.028753
   152  H    0.046015
   153  H    0.055592
   154  H    0.045387
   155  H    0.065566
   156  H    0.042561
   157  H    0.055546
   158  H    0.066711
 Sum of Mulliken charges =  -0.00000

 Dipole moment (field-independent basis, Debye):
    X=             -2.3738    Y=              0.2898    Z=             -0.0084  Tot=              2.3914
 Quadrupole moment (field-independent basis, Debye-Ang):
   XX=           -743.1278   YY=           -467.8837   ZZ=           -509.8461
   XY=            -14.7248   XZ=            123.0183   YZ=             -5.7265

 Normal termination of Gaussian 16 at Sat Sep 18 20:43:05 2021.
