 Gaussian 16, Revision A.03,
 Gaussian 16:  ES64L-G16RevA.03 25-Dec-2016

 --------------------------------
 #p wB97XD/Def2SVP td=(nstates=5)
 --------------------------------

 --------------------------------
 TDDFT excited states in gaussian
 --------------------------------
 Symbolic Z-matrix:
 Charge =  0 Multiplicity = 1

                         Standard orientation:
 ---------------------------------------------------------------------
 Center     Atomic      Atomic             Coordinates (Angstroms)
 Number     Number       Type             X           Y           Z
 ---------------------------------------------------------------------
      1         12           0       24.532270   -0.773332    0.303585
      2          6           0       24.951717    2.404171   -1.194243
      3          6           0       24.714076    0.734024    3.403020
      4          6           0       24.423575   -3.854731    1.708856
      5          6           0       24.567840   -2.281524   -2.860826
      6          7           0       24.906366    1.321513    0.914887
      7          6           0       24.828168    2.486168    0.154950
      8          6           0       24.876698    3.777842    1.069628
      9          6           0       25.077458    3.161118    2.479543
     10          6           0       24.947464    1.634317    2.281095
     11          6           0       26.399513    3.509295    3.260617
     12          6           0       23.706904    4.828135    0.879448
     13          6           0       24.142721    6.201474    0.466689
     14          1           0       23.326109    7.404118    1.085786
     15          7           0       24.576132   -1.398556    2.246821
     16          6           0       24.583540   -0.650859    3.406839
     17          6           0       24.602266   -1.541825    4.556416
     18          6           0       24.516402   -2.893570    4.117999
     19          6           0       24.477578   -2.769729    2.614380
     20          6           0       24.541177   -1.062556    6.020737
     21          6           0       24.433262   -4.185624    4.924339
     22          8           0       24.274294   -5.282414    4.429207
     23          6           0       24.435423   -4.249754    6.506700
     24          7           0       24.596737   -2.810047   -0.484557
     25          6           0       24.536965   -3.882537    0.293951
     26          6           0       24.523021   -5.214439   -0.537886
     27          6           0       24.372432   -4.686781   -2.019483
     28          6           0       24.493190   -3.148788   -1.797488
     29          6           0       25.745089   -6.120021   -0.209374
     30          6           0       23.091077   -5.168235   -2.670839
     31          6           0       23.257687   -5.607766   -4.124380
     32          7           0       24.849944   -0.187305   -1.669983
     33          6           0       24.740955   -0.878637   -2.861342
     34          6           0       25.049895    0.038114   -3.915207
     35          6           0       25.098847    1.336816   -3.350671
     36          6           0       24.977030    1.172086   -1.942694
     37          6           0       25.191080   -0.300136   -5.350838
     38          6           0       25.184604    2.774290   -3.662137
     39          8           0       25.416964    3.390511   -4.698080
     40          6           0       25.039474    3.543051   -2.136489
     41          6           0       26.180366    4.373089   -1.905630
     42          8           0       27.090765    4.100682   -1.153474
     43          8           0       26.042966    5.582775   -2.548088
     44          6           0       27.231056    6.456758   -2.382880
     45          1           0       24.642253    1.178830    4.397918
     46          1           0       24.436275   -4.871427    2.105824
     47          1           0       24.480035   -2.821878   -3.806376
     48          1           0       25.855270    4.210188    0.863677
     49          1           0       24.265568    3.452885    3.145800
     50          1           0       26.114045    3.657457    4.302553
     51          1           0       26.833179    4.406855    2.820367
     52          1           0       27.159736    2.728575    3.228534
     53          1           0       23.162039    4.838437    1.823539
     54          1           0       23.073531    4.448493    0.077511
     55          1           0       24.053323    6.305279   -0.615467
     56          1           0       25.191773    6.231718    0.759741
     57          1           0       23.569430   -1.394862    6.384224
     58          1           0       24.475137    0.025616    6.034416
     59          1           0       25.307726   -1.463236    6.685193
     60          1           0       23.611147   -3.633582    6.867485
     61          1           0       25.430079   -4.119273    6.934030
     62          1           0       24.339872   -5.311285    6.733029
     63          1           0       23.639719   -5.827847   -0.361230
     64          1           0       25.273403   -5.009744   -2.541437
     65          1           0       26.221032   -6.405826   -1.147831
     66          1           0       25.493535   -6.976204    0.417054
     67          1           0       26.472479   -5.554827    0.371038
     68          1           0       22.299721   -4.420874   -2.623561
     69          1           0       22.606747   -5.995045   -2.148995
     70          1           0       24.240024   -5.338218   -4.512407
     71          1           0       22.508087   -5.058951   -4.695162
     72          1           0       23.008532   -6.658497   -4.273496
     73          1           0       25.067764   -1.345322   -5.634359
     74          1           0       26.077366    0.231263   -5.699647
     75          1           0       24.256963    0.069036   -5.774881
     76          1           0       24.135040    4.152062   -2.132363
     77          1           0       28.113900    5.960703   -2.786742
     78          1           0       27.278560    6.700946   -1.321678
     79          1           0       27.152968    7.389197   -2.940590
     80         12           0      -25.366929   -0.524093   -0.189930
     81          6           0      -23.382909    2.427597   -0.342470
     82          6           0      -27.515187    1.131614    1.923410
     83          6           0      -27.045561   -3.369434   -0.118448
     84          6           0      -22.790720   -2.274465   -1.983996
     85          7           0      -25.418469    1.589873    0.781330
     86          6           0      -24.533614    2.598091    0.445413
     87          6           0      -25.037113    3.883224    1.187701
     88          6           0      -26.384803    3.451494    1.977847
     89          6           0      -26.432859    1.980621    1.551804
     90          6           0      -26.402236    3.731502    3.495007
     91          6           0      -25.156230    5.210676    0.330688
     92          6           0      -24.343221    6.374652    0.817953
     93          1           0      -23.960731    6.580919    2.259811
     94          7           0      -27.195618   -1.029669    0.711610
     95          6           0      -27.897308   -0.209757    1.538151
     96          6           0      -29.141221   -0.886690    1.800821
     97          6           0      -28.991181   -2.205113    1.319293
     98          6           0      -27.679587   -2.305282    0.600248
     99          6           0      -30.232185   -0.195379    2.635895
    100          6           0      -29.895429   -3.371525    1.580051
    101          8           0      -29.600107   -4.528890    1.198551
    102          6           0      -31.142362   -3.165812    2.357406
    103          7           0      -24.882621   -2.564638   -0.924627
    104          6           0      -25.768668   -3.493800   -0.828647
    105          6           0      -25.429969   -4.908922   -1.542707
    106          6           0      -24.053459   -4.538852   -2.115787
    107          6           0      -23.880524   -3.103185   -1.684123
    108          6           0      -25.425651   -6.054884   -0.465723
    109          6           0      -23.860899   -4.709726   -3.663689
    110          6           0      -24.581706   -3.682185   -4.568299
    111          7           0      -23.487897   -0.079469   -0.862646
    112          6           0      -22.572820   -0.915545   -1.544722
    113          6           0      -21.423942   -0.091477   -1.944368
    114          6           0      -21.705428    1.223148   -1.501210
    115          6           0      -23.000297    1.191011   -0.881536
    116          6           0      -20.182461   -0.595906   -2.739278
    117          6           0      -21.188373    2.487738   -1.501374
    118          8           0      -20.131136    2.938028   -1.893391
    119          6           0      -22.248777    3.388221   -0.808299
    120          6           0      -21.605720    4.106624    0.267572
    121          8           0      -21.484128    3.685839    1.423569
    122          8           0      -20.941505    5.227442   -0.244713
    123          6           0      -20.088214    5.935427    0.741562
    124          1           0      -28.120678    1.446323    2.776381
    125          1           0      -27.528272   -4.333887    0.053130
    126          1           0      -21.980213   -2.756761   -2.534293
    127          1           0      -24.155256    4.057271    1.802896
    128          1           0      -27.215068    4.050698    1.606712
    129          1           0      -27.265891    4.340818    3.764401
    130          1           0      -25.509581    4.189922    3.920251
    131          1           0      -26.495146    2.740891    3.940163
    132          1           0      -26.200543    5.514907    0.257606
    133          1           0      -24.758442    4.953224   -0.650966
    134          1           0      -24.995064    7.247123    0.760859
    135          1           0      -23.454307    6.444225    0.191980
    136          1           0      -30.078916    0.882093    2.700632
    137          1           0      -30.249352   -0.618924    3.639274
    138          1           0      -31.157971   -0.414868    2.105034
    139          1           0      -31.725366   -2.414187    1.825142
    140          1           0      -30.931519   -2.762281    3.348507
    141          1           0      -31.659514   -4.111969    2.511749
    142          1           0      -26.137506   -5.129466   -2.342371
    143          1           0      -23.273906   -5.037462   -1.539323
    144          1           0      -25.129685   -5.613959    0.486124
    145          1           0      -24.658032   -6.777802   -0.744105
    146          1           0      -26.351666   -6.606390   -0.301096
    147          1           0      -24.038305   -5.747240   -3.945105
    148          1           0      -22.792770   -4.639653   -3.866947
    149          1           0      -25.531086   -3.289472   -4.205759
    150          1           0      -24.664389   -4.111516   -5.567409
    151          1           0      -23.872708   -2.861754   -4.678182
    152          1           0      -19.938477    0.031491   -3.596629
    153          1           0      -20.269606   -1.632568   -3.062648
    154          1           0      -19.282357   -0.375195   -2.164967
    155          1           0      -22.522676    4.062935   -1.618708
    156          1           0      -19.222039    5.328629    1.004217
    157          1           0      -20.578370    6.150517    1.690387
    158          1           0      -19.915448    6.932360    0.335765
 ---------------------------------------------------------------------

 SCF Done:  E(RwB97XD) =  -4070.60911978     A.U. after   19 cycles

 Excitation energies and oscillator strengths:

 Excited State   1:      Singlet-A      1.7178 eV  721.76 nm  f=0.3725  <S**2>=0.000
     310 -> 315        0.19150
     312 -> 313        0.67996
     310 <- 315        0.11531
 This state for optimization and/or second-order correction.
 Total Energy, E(TD-HF/TD-DFT) =  -4070.54599136
 Copying the excited state density for this state as the 1-particle RhoCI density.

 Excited State   2:      Singlet-A      1.7609 eV  704.11 nm  f=0.3729  <S**2>=0.000
     309 -> 316        0.17859
     311 -> 314        0.68335
     309 <- 316        0.10772

 Excited State   3:      Singlet-A      2.1592 eV  574.22 nm  f=0.1060  <S**2>=0.000
     310 -> 313        0.63944
     312 -> 315       -0.28265

 Excited State   4:      Singlet-A      2.2096 eV  561.13 nm  f=0.1123  <S**2>=0.000
     309 -> 314        0.63741
     311 -> 316       -0.28425

 Excited State   5:      Singlet-A      3.4491 eV  359.47 nm  f=0.0259  <S**2>=0.000
     303 -> 314       -0.29676
     308 -> 314        0.60909

 The electronic state is 1-A.
 Alpha  occ. eigenvalues --  -46.96160 -46.94562 -19.29468 -19.29444 -19.24947
 Alpha  occ. eigenvalues --  -19.24339 -19.24178 -19.24061 -19.23885 -19.22502
 Alpha  occ. eigenvalues --  -14.47271 -14.46880 -14.46462 -14.46321 -14.44999
 Alpha  occ. eigenvalues --  -14.44386 -14.44246 -14.43257 -10.42408 -10.42052
 Alpha  occ. eigenvalues --  -10.40438 -10.39950 -10.39097 -10.37210 -10.36649
 Alpha  occ. eigenvalues --  -10.36154 -10.35995 -10.35818 -10.35595 -10.35343
 Alpha  occ. eigenvalues --  -10.35267 -10.35111 -10.35061 -10.34943 -10.34499
 Alpha  occ. eigenvalues --  -10.34444 -10.34157 -10.34129 -10.33806 -10.33728
 Alpha  occ. eigenvalues --  -10.33611 -10.33062 -10.32892 -10.32722 -10.32646
 Alpha  occ. eigenvalues --  -10.32570 -10.32446 -10.32368 -10.32189 -10.32133
 Alpha  occ. eigenvalues --  -10.32116 -10.32071 -10.32071 -10.31997 -10.31975
 Alpha  occ. eigenvalues --  -10.31914 -10.31890 -10.31837 -10.31684 -10.31648
 Alpha  occ. eigenvalues --  -10.31622 -10.31476 -10.31440 -10.31378 -10.31196
 Alpha  occ. eigenvalues --  -10.31161 -10.31157 -10.31150 -10.30866 -10.30673
 Alpha  occ. eigenvalues --  -10.30639 -10.30576 -10.30518 -10.30284 -10.30273
 Alpha  occ. eigenvalues --  -10.30222 -10.30113 -10.29881 -10.29858 -10.29805
 Alpha  occ. eigenvalues --  -10.29682 -10.29668 -10.29064 -10.28899 -10.28825
 Alpha  occ. eigenvalues --  -10.27837  -3.21964  -3.20527  -1.95563  -1.95117
 Alpha  occ. eigenvalues --   -1.94885  -1.94125  -1.93643  -1.93507  -1.17937
 Alpha  occ. eigenvalues --   -1.16453  -1.13778  -1.11417  -1.11407  -1.10740
 Alpha  occ. eigenvalues --   -1.09538  -1.08454  -1.08133  -1.06065  -1.05779
 Alpha  occ. eigenvalues --   -1.05077  -1.04524  -1.03945  -1.03680  -1.02922
 Alpha  occ. eigenvalues --   -0.94222  -0.93737  -0.91602  -0.90968  -0.90278
 Alpha  occ. eigenvalues --   -0.90275  -0.89993  -0.89673  -0.89243  -0.89238
 Alpha  occ. eigenvalues --   -0.88805  -0.88709  -0.87454  -0.87410  -0.86260
 Alpha  occ. eigenvalues --   -0.86226  -0.85483  -0.85229  -0.84443  -0.84396
 Alpha  occ. eigenvalues --   -0.84198  -0.82980  -0.82642  -0.82601  -0.82037
 Alpha  occ. eigenvalues --   -0.82033  -0.80434  -0.80336  -0.79471  -0.78811
 Alpha  occ. eigenvalues --   -0.78348  -0.78336  -0.77638  -0.77620  -0.76946
 Alpha  occ. eigenvalues --   -0.76661  -0.74499  -0.74194  -0.73542  -0.73271
 Alpha  occ. eigenvalues --   -0.72358  -0.71076  -0.71028  -0.70721  -0.69813
 Alpha  occ. eigenvalues --   -0.69411  -0.69127  -0.68939  -0.67511  -0.67251
 Alpha  occ. eigenvalues --   -0.66892  -0.66724  -0.66590  -0.66585  -0.66330
 Alpha  occ. eigenvalues --   -0.66215  -0.63386  -0.63106  -0.62275  -0.62071
 Alpha  occ. eigenvalues --   -0.61489  -0.61137  -0.60751  -0.60610  -0.60098
 Alpha  occ. eigenvalues --   -0.59923  -0.59876  -0.59730  -0.59519  -0.58989
 Alpha  occ. eigenvalues --   -0.58220  -0.57991  -0.57928  -0.57646  -0.57205
 Alpha  occ. eigenvalues --   -0.56911  -0.56696  -0.56112  -0.55598  -0.55483
 Alpha  occ. eigenvalues --   -0.55224  -0.55217  -0.55149  -0.54938  -0.54931
 Alpha  occ. eigenvalues --   -0.54796  -0.54494  -0.54478  -0.54029  -0.53976
 Alpha  occ. eigenvalues --   -0.53593  -0.53467  -0.53297  -0.53230  -0.53023
 Alpha  occ. eigenvalues --   -0.52757  -0.52719  -0.52483  -0.52453  -0.52027
 Alpha  occ. eigenvalues --   -0.51745  -0.51502  -0.51476  -0.51434  -0.51336
 Alpha  occ. eigenvalues --   -0.51191  -0.51133  -0.50955  -0.50788  -0.50614
 Alpha  occ. eigenvalues --   -0.50545  -0.50519  -0.49968  -0.49943  -0.49894
 Alpha  occ. eigenvalues --   -0.49881  -0.49656  -0.49455  -0.49428  -0.49231
 Alpha  occ. eigenvalues --   -0.48673  -0.48651  -0.48544  -0.48443  -0.48312
 Alpha  occ. eigenvalues --   -0.48104  -0.48097  -0.47896  -0.47734  -0.47446
 Alpha  occ. eigenvalues --   -0.47427  -0.47079  -0.46835  -0.46732  -0.46639
 Alpha  occ. eigenvalues --   -0.46491  -0.46394  -0.46120  -0.45941  -0.45856
 Alpha  occ. eigenvalues --   -0.45732  -0.45661  -0.45457  -0.45400  -0.45172
 Alpha  occ. eigenvalues --   -0.45136  -0.45136  -0.44962  -0.44674  -0.44380
 Alpha  occ. eigenvalues --   -0.44280  -0.44268  -0.44172  -0.43872  -0.43786
 Alpha  occ. eigenvalues --   -0.43739  -0.43552  -0.43385  -0.43382  -0.43186
 Alpha  occ. eigenvalues --   -0.43114  -0.43025  -0.42492  -0.42443  -0.42182
 Alpha  occ. eigenvalues --   -0.41991  -0.41916  -0.41686  -0.41544  -0.41290
 Alpha  occ. eigenvalues --   -0.41013  -0.40581  -0.39631  -0.39185  -0.38888
 Alpha  occ. eigenvalues --   -0.38875  -0.38652  -0.38437  -0.38205  -0.38033
 Alpha  occ. eigenvalues --   -0.37817  -0.37458  -0.36145  -0.35911  -0.35760
 Alpha  occ. eigenvalues --   -0.35553  -0.35313  -0.35311  -0.33895  -0.33541
 Alpha  occ. eigenvalues --   -0.33475  -0.33194  -0.32862  -0.32519  -0.32161
 Alpha  occ. eigenvalues --   -0.31936  -0.31660  -0.30731  -0.25998  -0.25741
 Alpha  occ. eigenvalues --   -0.23133  -0.23069
 Alpha virt. eigenvalues --   -0.06888  -0.06817   0.00128   0.00171   0.02113
 Alpha virt. eigenvalues --    0.02197   0.04233   0.04430   0.05688   0.06039
 Alpha virt. eigenvalues --    0.06944   0.07228   0.07933   0.08112   0.08235

 Mulliken charges:
               1
     1  Mg   0.955377
     2  C    0.013829
     3  C   -0.100449
     4  C   -0.065598
     5  C   -0.067001
     6  N   -0.380818
     7  C   -0.011956
     8  C   -0.052043
     9  C   -0.156818
    10  C    0.113104
    11  C    0.022932
    12  C    0.049823
    13  C   -0.135495
    14  H    0.029638
    15  N   -0.510131
    16  C    0.184541
    17  C   -0.167939
    18  C   -0.051457
    19  C    0.184785
    20  C    0.065597
    21  C    0.037334
    22  O   -0.218188
    23  C   -0.018811
    24  N   -0.317945
    25  C    0.037552
    26  C   -0.121246
    27  C   -0.060520
    28  C    0.021383
    29  C    0.018088
    30  C    0.000694
    31  C   -0.057012
    32  N   -0.463726
    33  C    0.166506
    34  C   -0.208627
    35  C   -0.042149
    36  C    0.161332
    37  C    0.091184
    38  C    0.152346
    39  O   -0.199083
    40  C   -0.162916
    41  C    0.269666
    42  O   -0.250547
    43  O   -0.372315
    44  C    0.150425
    45  H   -0.008644
    46  H    0.020406
    47  H   -0.018288
    48  H    0.051671
    49  H    0.032792
    50  H    0.036889
    51  H    0.043453
    52  H    0.050780
    53  H    0.038840
    54  H    0.034472
    55  H    0.066061
    56  H    0.050603
    57  H    0.052623
    58  H    0.034088
    59  H    0.066456
    60  H    0.061548
    61  H    0.055583
    62  H    0.047337
    63  H    0.040357
    64  H    0.034380
    65  H    0.035205
    66  H    0.050587
    67  H    0.041472
    68  H    0.030975
    69  H    0.027963
    70  H    0.041049
    71  H    0.031104
    72  H    0.041226
    73  H    0.019059
    74  H    0.070160
    75  H    0.044847
    76  H    0.079927
    77  H    0.060080
    78  H    0.049499
    79  H    0.052092
    80  Mg   0.949268
    81  C    0.012630
    82  C   -0.090564
    83  C   -0.048154
    84  C   -0.087801
    85  N   -0.314535
    86  C   -0.013117
    87  C   -0.056079
    88  C   -0.105078
    89  C    0.077696
    90  C    0.018428
    91  C    0.000106
    92  C   -0.139707
    93  H    0.031627
    94  N   -0.486313
    95  C    0.140206
    96  C   -0.180442
    97  C   -0.072210
    98  C    0.161098
    99  C    0.073127
   100  C    0.036508
   101  O   -0.261892
   102  C    0.006456
   103  N   -0.272005
   104  C    0.015754
   105  C   -0.110022
   106  C    0.029220
   107  C   -0.040153
   108  C   -0.003643
   109  C   -0.032805
   110  C   -0.036115
   111  N   -0.476727
   112  C    0.148561
   113  C   -0.175990
   114  C    0.006719
   115  C    0.138681
   116  C    0.087122
   117  C    0.031604
   118  O   -0.201454
   119  C   -0.063122
   120  C    0.267074
   121  O   -0.263303
   122  O   -0.379049
   123  C    0.150034
   124  H    0.007856
   125  H    0.029031
   126  H   -0.009080
   127  H    0.057280
   128  H    0.044923
   129  H    0.035057
   130  H    0.051799
   131  H    0.033474
   132  H    0.031619
   133  H    0.036300
   134  H    0.048495
   135  H    0.062273
   136  H    0.047823
   137  H    0.064128
   138  H    0.046267
   139  H    0.050942
   140  H    0.050377
   141  H    0.058534
   142  H    0.052394
   143  H    0.036462
   144  H    0.045561
   145  H    0.037057
   146  H    0.064063
   147  H    0.030902
   148  H    0.025075
   149  H    0.049792
   150  H    0.041222
   151  H    0.038647
   152  H    0.043754
   153  H    0.031550
   154  H    0.051141
   155  H    0.073548
   156  H    0.064640
   157  H    0.041711
   158  H    0.053743
 Sum of Mulliken charges =  -0.00000

 Dipole moment (field-independent basis, Debye):
    X=             -6.3256    Y=             -1.4072    Z=              4.9602  Tot=              8.1607
 Quadrupole moment (field-independent basis, Debye-Ang):
   XX=           -358.5190   YY=           -487.7224   ZZ=           -489.9655
   XY=            -49.8626   XZ=            105.1012   YZ=             44.2322

 Normal termination of Gaussian 16 at Mon Sep 20 13:23:51 2021.
