 Gaussian 16, Revision A.03,
 Gaussian 16:  ES64L-G16RevA.03 25-Dec-2016

 --------------------------------
 #p wB97XD/Def2SVP td=(nstates=5)
 --------------------------------

 --------------------------------
 TDDFT excited states in gaussian
 --------------------------------
 Symbolic Z-matrix:
 Charge =  0 Multiplicity = 1

                         Standard orientation:
 ---------------------------------------------------------------------
 Center     Atomic      Atomic             Coordinates (Angstroms)
 Number     Number       Type             X           Y           Z
 ---------------------------------------------------------------------
      1         12           0        9.115950    0.526687   -0.123653
      2          6           0        6.850531   -2.199327   -0.681265
      3          6           0        6.560608    2.574299   -1.551024
      4          6           0       10.509592    3.299101    1.164891
      5          6           0       11.017931   -1.545470    1.821840
      6          7           0        6.982833    0.184854   -0.955181
      7          6           0        6.296991   -0.985217   -1.103625
      8          6           0        4.892303   -0.759359   -1.764211
      9          6           0        5.071533    0.716546   -2.364523
     10          6           0        6.229872    1.211029   -1.512855
     11          6           0        5.435464    0.763076   -3.830827
     12          6           0        3.730575   -1.025470   -0.821237
     13          6           0        2.528114   -1.832526   -1.376009
     14          1           0        1.188977   -1.094258   -1.844550
     15          7           0        8.665507    2.723230   -0.258754
     16          6           0        7.610173    3.316654   -0.982402
     17          6           0        7.745133    4.776085   -0.899023
     18          6           0        8.953081    4.994351   -0.126382
     19          6           0        9.374897    3.698865    0.361382
     20          6           0        6.817668    5.793498   -1.448660
     21          6           0        9.610645    6.333758    0.092869
     22          8           0        9.197724    7.282024   -0.536033
     23          6           0       10.764553    6.574150    1.038787
     24          7           0       10.434719    0.771258    1.340358
     25          6           0       10.967721    2.036762    1.568818
     26          6           0       12.066426    1.885813    2.623501
     27          6           0       12.354555    0.340203    2.655300
     28          6           0       11.215752   -0.182681    1.846477
     29          6           0       13.344398    2.794574    2.502105
     30          6           0       12.534971   -0.345144    4.044550
     31          6           0       13.786313   -1.125471    4.283724
     32          7           0        9.085983   -1.459469    0.381256
     33          6           0        9.976623   -2.207890    1.130938
     34          6           0        9.696006   -3.649852    0.990744
     35          6           0        8.411148   -3.648445    0.321205
     36          6           0        8.120860   -2.316580    0.009880
     37          6           0       10.465022   -4.844465    1.490408
     38          6           0        7.346862   -4.556077   -0.199861
     39          8           0        7.210480   -5.741177   -0.089450
     40          6           0        6.277053   -3.617648   -0.748713
     41          6           0        6.005428   -4.014499   -2.169084
     42          8           0        6.883394   -3.874814   -2.993281
     43          8           0        4.674170   -4.441244   -2.456630
     44          6           0        4.334276   -4.640408   -3.898189
     45          1           0        5.827566    3.228836   -2.027475
     46          1           0       11.084477    4.089201    1.650833
     47          1           0       11.760990   -2.192831    2.291571
     48          1           0        4.766421   -1.361143   -2.663815
     49          1           0        4.216879    1.349688   -2.126493
     50          1           0        6.506078    0.582505   -3.924377
     51          1           0        5.116121    1.734309   -4.208497
     52          1           0        4.999004    0.025482   -4.505099
     53          1           0        3.332194   -0.047133   -0.554220
     54          1           0        4.142230   -1.401709    0.115253
     55          1           0        2.290163   -2.509319   -0.555029
     56          1           0        2.785198   -2.458941   -2.230270
     57          1           0        7.250252    6.117916   -2.394604
     58          1           0        6.847197    6.681423   -0.817066
     59          1           0        5.765466    5.552430   -1.604532
     60          1           0       11.051487    7.617436    1.168942
     61          1           0       11.612476    6.047759    0.600392
     62          1           0       10.719324    6.170962    2.049788
     63          1           0       11.570208    2.284621    3.508747
     64          1           0       13.195029    0.140523    1.991266
     65          1           0       13.450256    3.175272    1.485893
     66          1           0       14.229343    2.255110    2.839183
     67          1           0       13.274017    3.635092    3.192176
     68          1           0       11.684287   -1.002779    4.223002
     69          1           0       12.398331    0.428150    4.800374
     70          1           0       13.549838   -2.189250    4.272980
     71          1           0       14.184352   -0.883754    5.269145
     72          1           0       14.606064   -0.993871    3.577806
     73          1           0       10.208508   -5.739778    0.924461
     74          1           0       10.211796   -4.953483    2.545339
     75          1           0       11.524206   -4.586838    1.476598
     76          1           0        5.429086   -3.655849   -0.064737
     77          1           0        4.728490   -5.601807   -4.227885
     78          1           0        4.818337   -3.887251   -4.519551
     79          1           0        3.257585   -4.576482   -4.054329
     80         12           0       -9.131010    0.333269   -0.011327
     81          6           0       -6.833609   -2.324440   -0.415658
     82          6           0       -7.083763    2.270447   -1.956885
     83          6           0      -10.919996    2.968200    0.896689
     84          6           0      -10.837105   -1.628334    2.332348
     85          7           0       -7.091855    0.049297   -0.932932
     86          6           0       -6.422298   -1.172077   -1.045539
     87          6           0       -5.295654   -1.060254   -2.102142
     88          6           0       -5.386660    0.438679   -2.568357
     89          6           0       -6.627130    0.996831   -1.817234
     90          6           0       -4.103431    1.250669   -2.545960
     91          6           0       -5.349530   -2.056737   -3.270631
     92          6           0       -4.046955   -2.882839   -3.454861
     93          1           0       -3.410702   -2.797180   -4.824466
     94          7           0       -9.044320    2.333440   -0.555402
     95          6           0       -8.124623    2.972014   -1.334376
     96          6           0       -8.586912    4.324075   -1.539322
     97          6           0       -9.650395    4.590456   -0.574599
     98          6           0       -9.870087    3.257895   -0.033627
     99          6           0       -7.791000    5.382786   -2.464624
    100          6           0      -10.174117    5.842985   -0.015929
    101          8           0      -11.063151    5.972425    0.776609
    102          6           0       -9.493126    7.121733   -0.494547
    103          7           0      -10.544045    0.653748    1.592470
    104          6           0      -11.183310    1.834633    1.702236
    105          6           0      -12.386285    1.713786    2.640622
    106          6           0      -12.547957    0.192651    2.791421
    107          6           0      -11.266271   -0.326040    2.178552
    108          6           0      -12.110582    2.435739    4.038621
    109          6           0      -13.816679   -0.276065    1.912685
    110          6           0      -13.612931   -0.260206    0.373054
    111          7           0       -9.028979   -1.632185    0.767526
    112          6           0       -9.785271   -2.262993    1.680382
    113          6           0       -9.275002   -3.598112    1.840417
    114          6           0       -8.169810   -3.674537    1.013774
    115          6           0       -7.994354   -2.427571    0.407573
    116          6           0       -9.779505   -4.715245    2.733877
    117          6           0       -7.101484   -4.606701    0.643574
    118          8           0       -6.709564   -5.694633    0.959436
    119          6           0       -6.233371   -3.801140   -0.358847
    120          6           0       -4.869326   -3.778314    0.225297
    121          8           0       -4.671106   -3.376739    1.344404
    122          8           0       -3.905234   -4.335427   -0.599371
    123          6           0       -2.572893   -4.620380    0.031038
    124          1           0       -6.541235    2.806848   -2.738317
    125          1           0      -11.614858    3.774435    1.142427
    126          1           0      -11.421973   -2.373464    2.875694
    127          1           0       -4.334068   -1.146668   -1.595764
    128          1           0       -5.591994    0.443184   -3.639011
    129          1           0       -3.341799    0.766903   -1.936205
    130          1           0       -4.239675    2.278529   -2.208799
    131          1           0       -3.717734    1.222267   -3.564732
    132          1           0       -5.503340   -1.660796   -4.274475
    133          1           0       -6.176093   -2.755441   -3.143378
    134          1           0       -4.176006   -3.912090   -3.120226
    135          1           0       -3.294701   -2.458030   -2.791438
    136          1           0       -8.517555    5.862856   -3.120084
    137          1           0       -7.043162    4.967304   -3.139002
    138          1           0       -7.188821    6.152043   -1.981231
    139          1           0       -9.690929    7.123235   -1.566705
    140          1           0       -8.438105    6.974929   -0.265457
    141          1           0       -9.916304    8.042247   -0.091268
    142          1           0      -13.316628    2.081467    2.206454
    143          1           0      -12.603331   -0.260184    3.781606
    144          1           0      -13.077906    2.765046    4.418930
    145          1           0      -11.470645    3.318640    4.053211
    146          1           0      -11.718768    1.640052    4.672044
    147          1           0      -14.720528    0.288009    2.142021
    148          1           0      -13.987083   -1.342461    2.061185
    149          1           0      -14.514492   -0.409313   -0.220186
    150          1           0      -12.929280   -1.072558    0.125946
    151          1           0      -13.138863    0.687411    0.115279
    152          1           0      -10.786265   -5.059474    2.498239
    153          1           0       -9.791197   -4.262545    3.725010
    154          1           0       -9.082993   -5.551302    2.796709
    155          1           0       -6.236755   -4.429170   -1.249548
    156          1           0       -1.931055   -4.245285   -0.766111
    157          1           0       -2.389536   -5.684299    0.180079
    158          1           0       -2.309661   -4.170347    0.987937
 ---------------------------------------------------------------------

 SCF Done:  E(RwB97XD) =  -4070.61975441     A.U. after   19 cycles

 Excitation energies and oscillator strengths:

 Excited State   1:      Singlet-A      1.6099 eV  770.15 nm  f=0.2436  <S**2>=0.000
     309 -> 315        0.17172
     311 -> 313        0.13164
     312 -> 314        0.67359
     309 <- 315        0.11376
 This state for optimization and/or second-order correction.
 Total Energy, E(TD-HF/TD-DFT) =  -4070.56059268
 Copying the excited state density for this state as the 1-particle RhoCI density.

 Excited State   2:      Singlet-A      1.6457 eV  753.40 nm  f=0.5322  <S**2>=0.000
     310 -> 316        0.17838
     311 -> 313        0.67228
     312 -> 314       -0.13118
     310 <- 316        0.11484

 Excited State   3:      Singlet-A      2.1357 eV  580.54 nm  f=0.1464  <S**2>=0.000
     310 -> 313        0.65333
     311 -> 316       -0.25141

 Excited State   4:      Singlet-A      2.1823 eV  568.12 nm  f=0.1233  <S**2>=0.000
     309 -> 314        0.63781
     312 -> 315       -0.28391

 Excited State   5:      Singlet-A      3.3905 eV  365.68 nm  f=0.0000  <S**2>=0.000
     312 -> 313        0.70687

 The electronic state is 1-A.
 Alpha  occ. eigenvalues --  -46.95900 -46.95735 -19.30632 -19.30349 -19.25780
 Alpha  occ. eigenvalues --  -19.24865 -19.24659 -19.24197 -19.23417 -19.23027
 Alpha  occ. eigenvalues --  -14.47479 -14.46743 -14.46535 -14.46331 -14.44377
 Alpha  occ. eigenvalues --  -14.44012 -14.43834 -14.43812 -10.44217 -10.42627
 Alpha  occ. eigenvalues --  -10.39517 -10.39186 -10.38504 -10.38318 -10.36160
 Alpha  occ. eigenvalues --  -10.35603 -10.35510 -10.35481 -10.35422 -10.34808
 Alpha  occ. eigenvalues --  -10.34795 -10.34784 -10.34777 -10.34543 -10.34366
 Alpha  occ. eigenvalues --  -10.34353 -10.34273 -10.33993 -10.33827 -10.33574
 Alpha  occ. eigenvalues --  -10.33489 -10.33384 -10.33209 -10.33192 -10.32993
 Alpha  occ. eigenvalues --  -10.32928 -10.32858 -10.32838 -10.32762 -10.32268
 Alpha  occ. eigenvalues --  -10.32191 -10.32138 -10.32135 -10.32101 -10.32068
 Alpha  occ. eigenvalues --  -10.31950 -10.31946 -10.31926 -10.31675 -10.31591
 Alpha  occ. eigenvalues --  -10.31381 -10.31370 -10.31106 -10.31091 -10.31022
 Alpha  occ. eigenvalues --  -10.31006 -10.30693 -10.30666 -10.30594 -10.30528
 Alpha  occ. eigenvalues --  -10.30527 -10.30433 -10.30411 -10.30369 -10.30357
 Alpha  occ. eigenvalues --  -10.30081 -10.30025 -10.29876 -10.29832 -10.29789
 Alpha  occ. eigenvalues --  -10.29696 -10.29567 -10.29473 -10.29350 -10.29115
 Alpha  occ. eigenvalues --  -10.28932  -3.21769  -3.21763  -1.95330  -1.95300
 Alpha  occ. eigenvalues --   -1.94898  -1.94890  -1.94741  -1.94723  -1.17829
 Alpha  occ. eigenvalues --   -1.17637  -1.14067  -1.13924  -1.13284  -1.12456
 Alpha  occ. eigenvalues --   -1.10212  -1.09807  -1.07222  -1.06643  -1.06347
 Alpha  occ. eigenvalues --   -1.05883  -1.05665  -1.04881  -1.04030  -1.03604
 Alpha  occ. eigenvalues --   -0.94836  -0.94359  -0.91317  -0.90877  -0.90786
 Alpha  occ. eigenvalues --   -0.90720  -0.90415  -0.90170  -0.89692  -0.89622
 Alpha  occ. eigenvalues --   -0.88524  -0.88286  -0.88238  -0.87656  -0.86497
 Alpha  occ. eigenvalues --   -0.86366  -0.85905  -0.85406  -0.84497  -0.84417
 Alpha  occ. eigenvalues --   -0.83805  -0.83166  -0.82818  -0.82576  -0.82259
 Alpha  occ. eigenvalues --   -0.82126  -0.80334  -0.80148  -0.79510  -0.79354
 Alpha  occ. eigenvalues --   -0.78827  -0.78720  -0.78387  -0.78102  -0.77243
 Alpha  occ. eigenvalues --   -0.77180  -0.75117  -0.74718  -0.73826  -0.73766
 Alpha  occ. eigenvalues --   -0.71485  -0.71300  -0.71216  -0.71012  -0.70085
 Alpha  occ. eigenvalues --   -0.70030  -0.69280  -0.68777  -0.67909  -0.67451
 Alpha  occ. eigenvalues --   -0.67303  -0.67166  -0.67160  -0.66629  -0.66464
 Alpha  occ. eigenvalues --   -0.66399  -0.64438  -0.64271  -0.62431  -0.61878
 Alpha  occ. eigenvalues --   -0.61708  -0.61597  -0.61297  -0.61263  -0.61135
 Alpha  occ. eigenvalues --   -0.60754  -0.60406  -0.60106  -0.59693  -0.59553
 Alpha  occ. eigenvalues --   -0.58557  -0.58003  -0.57678  -0.57502  -0.57344
 Alpha  occ. eigenvalues --   -0.57174  -0.56607  -0.56310  -0.56103  -0.55933
 Alpha  occ. eigenvalues --   -0.55417  -0.55394  -0.55138  -0.54925  -0.54895
 Alpha  occ. eigenvalues --   -0.54614  -0.54343  -0.54248  -0.54084  -0.53846
 Alpha  occ. eigenvalues --   -0.53843  -0.53747  -0.53471  -0.53369  -0.53221
 Alpha  occ. eigenvalues --   -0.53095  -0.52919  -0.52729  -0.52395  -0.52005
 Alpha  occ. eigenvalues --   -0.51932  -0.51902  -0.51775  -0.51766  -0.51438
 Alpha  occ. eigenvalues --   -0.51323  -0.51301  -0.51241  -0.51068  -0.50985
 Alpha  occ. eigenvalues --   -0.50713  -0.50603  -0.50367  -0.50209  -0.50201
 Alpha  occ. eigenvalues --   -0.49884  -0.49663  -0.49542  -0.49420  -0.49074
 Alpha  occ. eigenvalues --   -0.48992  -0.48965  -0.48458  -0.48422  -0.48375
 Alpha  occ. eigenvalues --   -0.48195  -0.48079  -0.48060  -0.48052  -0.47997
 Alpha  occ. eigenvalues --   -0.47864  -0.47823  -0.47499  -0.47298  -0.47249
 Alpha  occ. eigenvalues --   -0.47051  -0.47009  -0.46703  -0.46498  -0.46017
 Alpha  occ. eigenvalues --   -0.45805  -0.45649  -0.45608  -0.45475  -0.45371
 Alpha  occ. eigenvalues --   -0.45318  -0.45300  -0.44988  -0.44880  -0.44854
 Alpha  occ. eigenvalues --   -0.44626  -0.44558  -0.44471  -0.44403  -0.44313
 Alpha  occ. eigenvalues --   -0.44044  -0.43951  -0.43898  -0.43615  -0.43406
 Alpha  occ. eigenvalues --   -0.43310  -0.43086  -0.42845  -0.42820  -0.42544
 Alpha  occ. eigenvalues --   -0.42246  -0.42223  -0.41684  -0.41242  -0.40994
 Alpha  occ. eigenvalues --   -0.40589  -0.40280  -0.40050  -0.39838  -0.39751
 Alpha  occ. eigenvalues --   -0.39441  -0.39263  -0.39163  -0.38696  -0.38348
 Alpha  occ. eigenvalues --   -0.38235  -0.37902  -0.37097  -0.36471  -0.36423
 Alpha  occ. eigenvalues --   -0.36031  -0.35658  -0.35523  -0.33843  -0.33705
 Alpha  occ. eigenvalues --   -0.33390  -0.33248  -0.32570  -0.32454  -0.32386
 Alpha  occ. eigenvalues --   -0.32227  -0.31926  -0.30976  -0.26293  -0.26119
 Alpha  occ. eigenvalues --   -0.23410  -0.22986
 Alpha virt. eigenvalues --   -0.07547  -0.07409   0.00368   0.00467   0.02584
 Alpha virt. eigenvalues --    0.02650   0.04168   0.04568   0.04757   0.04783
 Alpha virt. eigenvalues --    0.06414   0.06559   0.07546   0.07891   0.07904

 Mulliken charges:
               1
     1  Mg   0.981638
     2  C   -0.076387
     3  C   -0.054127
     4  C   -0.079781
     5  C   -0.124137
     6  N   -0.312976
     7  C   -0.015863
     8  C   -0.066401
     9  C   -0.119873
    10  C    0.049131
    11  C    0.041601
    12  C    0.037354
    13  C   -0.106559
    14  H    0.020444
    15  N   -0.419704
    16  C    0.112411
    17  C   -0.143783
    18  C   -0.073586
    19  C    0.168744
    20  C    0.081147
    21  C    0.035549
    22  O   -0.234916
    23  C   -0.012193
    24  N   -0.451570
    25  C    0.092006
    26  C   -0.128708
    27  C   -0.033789
    28  C    0.089219
    29  C    0.013794
    30  C    0.000856
    31  C   -0.047324
    32  N   -0.442235
    33  C    0.135422
    34  C   -0.189237
    35  C   -0.106243
    36  C    0.178310
    37  C    0.090763
    38  C    0.132803
    39  O   -0.173854
    40  C   -0.015498
    41  C    0.278520
    42  O   -0.234192
    43  O   -0.405507
    44  C    0.133250
    45  H   -0.006525
    46  H   -0.037260
    47  H   -0.011539
    48  H    0.025511
    49  H    0.028284
    50  H    0.043636
    51  H    0.042367
    52  H    0.036374
    53  H    0.037895
    54  H    0.041534
    55  H    0.054430
    56  H    0.048559
    57  H    0.055426
    58  H    0.054018
    59  H    0.036539
    60  H    0.051381
    61  H    0.050116
    62  H    0.058140
    63  H    0.051739
    64  H    0.033647
    65  H    0.044794
    66  H    0.038482
    67  H    0.031198
    68  H    0.038785
    69  H    0.025590
    70  H    0.036322
    71  H    0.037105
    72  H    0.035852
    73  H    0.071683
    74  H    0.054209
    75  H    0.034552
    76  H    0.072326
    77  H    0.064274
    78  H    0.051625
    79  H    0.064522
    80  Mg   0.945865
    81  C   -0.040749
    82  C   -0.093403
    83  C   -0.065092
    84  C   -0.068434
    85  N   -0.371868
    86  C    0.009248
    87  C   -0.037972
    88  C   -0.102949
    89  C    0.075350
    90  C    0.021501
    91  C    0.015515
    92  C   -0.141524
    93  H    0.023959
    94  N   -0.445153
    95  C    0.174406
    96  C   -0.128359
    97  C   -0.081829
    98  C    0.149685
    99  C    0.018065
   100  C    0.023362
   101  O   -0.210379
   102  C   -0.005829
   103  N   -0.330960
   104  C    0.048290
   105  C   -0.089177
   106  C   -0.066757
   107  C    0.055897
   108  C    0.021715
   109  C   -0.041451
   110  C   -0.066540
   111  N   -0.411848
   112  C    0.080658
   113  C   -0.175849
   114  C   -0.085117
   115  C    0.178078
   116  C    0.073457
   117  C    0.147861
   118  O   -0.173928
   119  C   -0.066815
   120  C    0.252391
   121  O   -0.231116
   122  O   -0.382424
   123  C    0.126099
   124  H   -0.010292
   125  H    0.025945
   126  H   -0.003787
   127  H    0.041264
   128  H    0.033760
   129  H    0.030079
   130  H    0.043401
   131  H    0.030611
   132  H    0.042526
   133  H    0.033230
   134  H    0.068216
   135  H    0.036562
   136  H    0.049016
   137  H    0.026773
   138  H    0.053830
   139  H    0.041702
   140  H    0.056503
   141  H    0.049727
   142  H    0.042185
   143  H    0.040009
   144  H    0.039850
   145  H    0.057690
   146  H    0.036769
   147  H    0.045284
   148  H    0.027687
   149  H    0.048357
   150  H    0.041019
   151  H    0.039455
   152  H    0.051912
   153  H    0.041868
   154  H    0.061013
   155  H    0.062839
   156  H    0.053142
   157  H    0.062107
   158  H    0.073759
 Sum of Mulliken charges =  -0.00000

 Dipole moment (field-independent basis, Debye):
    X=              1.1604    Y=              1.4039    Z=             -2.0012  Tot=              2.7060
 Quadrupole moment (field-independent basis, Debye-Ang):
   XX=           -422.5052   YY=           -577.7830   ZZ=           -486.5317
   XY=             10.2362   XZ=             45.0316   YZ=             -0.0836

 Normal termination of Gaussian 16 at Sun Sep 19 15:01:11 2021.
