 Gaussian 16, Revision A.03,
 Gaussian 16:  ES64L-G16RevA.03 25-Dec-2016

 --------------------------------
 #p wB97XD/Def2SVP td=(nstates=5)
 --------------------------------

 --------------------------------
 TDDFT excited states in gaussian
 --------------------------------
 Symbolic Z-matrix:
 Charge =  0 Multiplicity = 1

                         Standard orientation:
 ---------------------------------------------------------------------
 Center     Atomic      Atomic             Coordinates (Angstroms)
 Number     Number       Type             X           Y           Z
 ---------------------------------------------------------------------
      1         12           0       19.950575    0.227914    0.338332
      2          6           0       17.367816   -1.392047   -1.206664
      3          6           0       20.469924    2.129853   -2.347783
      4          6           0       22.519150    1.489778    1.898032
      5          6           0       19.688408   -2.249556    2.887050
      6          7           0       19.121179    0.245955   -1.667123
      7          6           0       17.919394   -0.316184   -1.949483
      8          6           0       17.278587    0.307513   -3.159046
      9          6           0       18.448110    1.244266   -3.664519
     10          6           0       19.461995    1.156744   -2.544450
     11          6           0       18.997794    0.891694   -5.067551
     12          6           0       15.822463    1.021986   -2.864731
     13          6           0       14.654041    0.727094   -3.817661
     14          1           0       15.020510    0.275192   -5.266241
     15          7           0       21.146770    1.675874   -0.066230
     16          6           0       21.263571    2.382071   -1.220935
     17          6           0       22.382469    3.292728   -1.220635
     18          6           0       22.850983    3.266003    0.058163
     19          6           0       22.246072    2.029581    0.643979
     20          6           0       22.732157    3.962103   -2.537155
     21          6           0       23.938218    4.144919    0.707814
     22          8           0       24.333676    4.005969    1.841845
     23          6           0       24.505885    5.186720   -0.210328
     24          7           0       21.046087   -0.448417    2.069776
     25          6           0       22.000278    0.374135    2.541464
     26          6           0       22.511764   -0.105809    3.903369
     27          6           0       21.396517   -1.105351    4.362618
     28          6           0       20.663428   -1.317685    3.022190
     29          6           0       23.973985   -0.719403    3.987860
     30          6           0       20.377680   -0.571030    5.438536
     31          6           0       19.519533    0.646453    5.215915
     32          7           0       18.754797   -1.447355    0.881354
     33          6           0       18.798784   -2.422688    1.882821
     34          6           0       17.732800   -3.418644    1.715114
     35          6           0       17.130539   -3.044423    0.504544
     36          6           0       17.801256   -1.854964    0.078482
     37          6           0       17.339177   -4.534089    2.649120
     38          6           0       16.148434   -3.359035   -0.429117
     39          8           0       15.352318   -4.279944   -0.525147
     40          6           0       16.093710   -2.189799   -1.446196
     41          6           0       16.054836   -2.898769   -2.745790
     42          8           0       17.029173   -3.385504   -3.324565
     43          8           0       14.771865   -3.053506   -3.184820
     44          6           0       14.493665   -3.979404   -4.287284
     45          1           0       20.485546    2.859829   -3.160061
     46          1           0       23.332066    1.895125    2.502879
     47          1           0       19.697377   -2.913067    3.755171
     48          1           0       17.153582   -0.430797   -3.951189
     49          1           0       18.099123    2.276631   -3.656792
     50          1           0       19.951503    0.376677   -4.952894
     51          1           0       19.174440    1.819438   -5.611806
     52          1           0       18.255836    0.245417   -5.536665
     53          1           0       16.034025    2.091242   -2.878228
     54          1           0       15.442223    0.724152   -1.888097
     55          1           0       14.081025    1.635351   -4.002363
     56          1           0       13.954510    0.040144   -3.341517
     57          1           0       23.011668    3.282929   -3.342725
     58          1           0       23.635566    4.564896   -2.627920
     59          1           0       21.839697    4.565702   -2.702449
     60          1           0       23.714609    5.822327   -0.607100
     61          1           0       25.063730    4.575898   -0.919818
     62          1           0       25.175092    5.941549    0.201036
     63          1           0       22.539516    0.827620    4.466673
     64          1           0       21.865971   -2.052421    4.629573
     65          1           0       24.433843   -0.696986    3.000160
     66          1           0       23.933108   -1.784083    4.214748
     67          1           0       24.646913   -0.274299    4.722350
     68          1           0       21.062051   -0.427140    6.275009
     69          1           0       19.642895   -1.324882    5.719397
     70          1           0       19.836895    1.153960    4.304034
     71          1           0       19.649394    1.359330    6.030048
     72          1           0       18.456725    0.468703    5.052987
     73          1           0       17.620311   -5.514565    2.267328
     74          1           0       16.264318   -4.502286    2.828165
     75          1           0       17.964700   -4.351193    3.523191
     76          1           0       15.250722   -1.524987   -1.256899
     77          1           0       13.471845   -4.359561   -4.257939
     78          1           0       15.272668   -4.732772   -4.393843
     79          1           0       14.592503   -3.507322   -5.264594
     80         12           0      -19.536531   -0.459955   -0.333462
     81          6           0      -18.927262    2.942434    0.378523
     82          6           0      -16.104250   -1.053940   -0.148232
     83          6           0      -20.250593   -3.774958    0.006029
     84          6           0      -23.017055    0.297516    0.043428
     85          7           0      -17.777986    0.799737    0.028769
     86          6           0      -17.769034    2.118584    0.316664
     87          6           0      -16.325432    2.608026    0.664000
     88          6           0      -15.467760    1.381493    0.104785
     89          6           0      -16.528816    0.246537   -0.065884
     90          6           0      -14.712572    1.489873   -1.239335
     91          6           0      -16.220148    2.819823    2.221654
     92          6           0      -15.325034    4.019633    2.638670
     93          1           0      -14.398523    3.775228    3.898629
     94          7           0      -18.318467   -2.247802   -0.303373
     95          6           0      -16.949134   -2.224430   -0.283679
     96          6           0      -16.521083   -3.570976   -0.325946
     97          6           0      -17.659682   -4.423160   -0.214113
     98          6           0      -18.845932   -3.502974   -0.215681
     99          6           0      -15.079930   -4.020063   -0.379323
    100          6           0      -17.655705   -5.895458    0.019468
    101          8           0      -16.621647   -6.516751    0.205107
    102          6           0      -18.834307   -6.716237    0.119703
    103          7           0      -21.419055   -1.555320    0.095627
    104          6           0      -21.415455   -2.955441    0.010319
    105          6           0      -22.814992   -3.486087    0.007910
    106          6           0      -23.727491   -2.206586    0.086387
    107          6           0      -22.703830   -1.084411    0.078184
    108          6           0      -23.024056   -4.336761   -1.251418
    109          6           0      -24.820814   -2.275708    1.218159
    110          6           0      -26.248481   -2.114919    0.791653
    111          7           0      -20.798198    1.279528    0.087451
    112          6           0      -22.164965    1.400708    0.144060
    113          6           0      -22.553094    2.824811    0.244155
    114          6           0      -21.274121    3.421402    0.402797
    115          6           0      -20.282174    2.477123    0.215453
    116          6           0      -23.935907    3.445119    0.368354
    117          6           0      -20.638130    4.663890    0.751952
    118          8           0      -21.139921    5.759218    1.049139
    119          6           0      -19.122696    4.465061    0.742191
    120          6           0      -18.464022    5.417975   -0.170613
    121          8           0      -17.649419    6.185531    0.195262
    122          8           0      -18.738224    5.192573   -1.488561
    123          6           0      -17.852294    6.001735   -2.353370
    124          1           0      -15.032499   -1.263828   -0.174172
    125          1           0      -20.409338   -4.854423    0.017247
    126          1           0      -24.013030    0.711188    0.218065
    127          1           0      -16.148116    3.541955    0.130389
    128          1           0      -14.867579    0.856577    0.847806
    129          1           0      -15.192317    2.225592   -1.885835
    130          1           0      -14.584598    0.563730   -1.799768
    131          1           0      -13.726575    1.880631   -0.990167
    132          1           0      -15.889949    1.905334    2.715202
    133          1           0      -17.246433    3.001380    2.540981
    134          1           0      -16.047027    4.809768    2.845604
    135          1           0      -14.801684    4.258814    1.712664
    136          1           0      -14.899823   -5.022366   -0.768187
    137          1           0      -14.756733   -3.952400    0.659107
    138          1           0      -14.362821   -3.310980   -0.792960
    139          1           0      -19.354232   -6.636516   -0.835840
    140          1           0      -19.453011   -6.416329    0.965981
    141          1           0      -18.522670   -7.746958    0.289062
    142          1           0      -23.026630   -4.013559    0.937701
    143          1           0      -24.212107   -1.874506   -0.832012
    144          1           0      -22.092094   -4.607157   -1.748433
    145          1           0      -23.611692   -3.808656   -2.002344
    146          1           0      -23.363946   -5.331562   -0.964948
    147          1           0      -24.539128   -1.486841    1.915623
    148          1           0      -24.893317   -3.247993    1.704136
    149          1           0      -26.668645   -1.301095    1.382018
    150          1           0      -26.842716   -2.999860    1.020150
    151          1           0      -26.365577   -2.009391   -0.286932
    152          1           0      -24.314544    3.428594    1.390544
    153          1           0      -24.662537    3.019228   -0.324690
    154          1           0      -23.708791    4.491145    0.162939
    155          1           0      -18.710608    4.746356    1.710440
    156          1           0      -18.112822    5.783349   -3.389330
    157          1           0      -16.805682    5.766461   -2.160604
    158          1           0      -18.028734    7.075370   -2.297815
 ---------------------------------------------------------------------

 SCF Done:  E(RwB97XD) =  -4070.57693549     A.U. after   20 cycles

 Excitation energies and oscillator strengths:

 Excited State   1:      Singlet-A      1.6192 eV  765.73 nm  f=0.4055  <S**2>=0.000
     309 -> 315       -0.17888
     311 -> 313        0.68464
     309 <- 315       -0.11647
 This state for optimization and/or second-order correction.
 Total Energy, E(TD-HF/TD-DFT) =  -4070.51743199
 Copying the excited state density for this state as the 1-particle RhoCI density.

 Excited State   2:      Singlet-A      1.7217 eV  720.15 nm  f=0.3756  <S**2>=0.000
     310 -> 316       -0.19590
     312 -> 314        0.67978
     310 <- 316       -0.11419

 Excited State   3:      Singlet-A      2.1452 eV  577.96 nm  f=0.1102  <S**2>=0.000
     309 -> 313        0.63985
     311 -> 315        0.28462

 Excited State   4:      Singlet-A      2.2243 eV  557.42 nm  f=0.0564  <S**2>=0.000
     310 -> 314        0.61465
     312 -> 316        0.33876

 Excited State   5:      Singlet-A      3.2200 eV  385.04 nm  f=0.0034  <S**2>=0.000
     304 -> 313       -0.13504
     306 -> 313        0.11735
     308 -> 313        0.65575
     308 -> 318        0.10338

 The electronic state is 1-A.
 Alpha  occ. eigenvalues --  -46.97166 -46.94292 -19.30351 -19.29110 -19.24978
 Alpha  occ. eigenvalues --  -19.24857 -19.23951 -19.23265 -19.22671 -19.22308
 Alpha  occ. eigenvalues --  -14.47604 -14.47276 -14.46271 -14.45625 -14.44638
 Alpha  occ. eigenvalues --  -14.44481 -14.43900 -14.43312 -10.42574 -10.42083
 Alpha  occ. eigenvalues --  -10.39948 -10.38830 -10.37508 -10.37404 -10.36306
 Alpha  occ. eigenvalues --  -10.36012 -10.35885 -10.35584 -10.35097 -10.35005
 Alpha  occ. eigenvalues --  -10.34929 -10.34610 -10.34442 -10.34374 -10.34283
 Alpha  occ. eigenvalues --  -10.34244 -10.34226 -10.33867 -10.33524 -10.33115
 Alpha  occ. eigenvalues --  -10.33111 -10.33107 -10.33075 -10.32983 -10.32893
 Alpha  occ. eigenvalues --  -10.32764 -10.32655 -10.32583 -10.32499 -10.32493
 Alpha  occ. eigenvalues --  -10.32281 -10.32198 -10.32003 -10.31983 -10.31899
 Alpha  occ. eigenvalues --  -10.31879 -10.31843 -10.31738 -10.31712 -10.31635
 Alpha  occ. eigenvalues --  -10.31591 -10.31574 -10.31556 -10.31524 -10.31377
 Alpha  occ. eigenvalues --  -10.31345 -10.30977 -10.30906 -10.30758 -10.30736
 Alpha  occ. eigenvalues --  -10.30565 -10.30406 -10.30388 -10.30254 -10.30174
 Alpha  occ. eigenvalues --  -10.29896 -10.29895 -10.29725 -10.29609 -10.29565
 Alpha  occ. eigenvalues --  -10.29535 -10.29161 -10.29128 -10.28999 -10.28996
 Alpha  occ. eigenvalues --  -10.28044  -3.22809  -3.20551  -1.96402  -1.95901
 Alpha  occ. eigenvalues --   -1.95761  -1.94114  -1.93696  -1.93561  -1.20150
 Alpha  occ. eigenvalues --   -1.16989  -1.13770  -1.11724  -1.11269  -1.11226
 Alpha  occ. eigenvalues --   -1.11199  -1.08084  -1.07632  -1.07178  -1.06745
 Alpha  occ. eigenvalues --   -1.06098  -1.05752  -1.05443  -1.05001  -1.04563
 Alpha  occ. eigenvalues --   -0.94639  -0.94299  -0.91597  -0.91291  -0.90958
 Alpha  occ. eigenvalues --   -0.90342  -0.90125  -0.89962  -0.89882  -0.89841
 Alpha  occ. eigenvalues --   -0.89381  -0.88998  -0.88472  -0.87756  -0.86786
 Alpha  occ. eigenvalues --   -0.86602  -0.86279  -0.85463  -0.84637  -0.84627
 Alpha  occ. eigenvalues --   -0.84486  -0.84402  -0.82980  -0.82896  -0.82528
 Alpha  occ. eigenvalues --   -0.82473  -0.81000  -0.80616  -0.79560  -0.79365
 Alpha  occ. eigenvalues --   -0.78882  -0.78808  -0.78417  -0.77619  -0.77366
 Alpha  occ. eigenvalues --   -0.77127  -0.75160  -0.74604  -0.74502  -0.73655
 Alpha  occ. eigenvalues --   -0.71547  -0.71365  -0.71204  -0.71000  -0.70112
 Alpha  occ. eigenvalues --   -0.69933  -0.69305  -0.68853  -0.68296  -0.67657
 Alpha  occ. eigenvalues --   -0.67334  -0.67015  -0.66894  -0.66738  -0.66657
 Alpha  occ. eigenvalues --   -0.65736  -0.65323  -0.63684  -0.63150  -0.62096
 Alpha  occ. eigenvalues --   -0.62032  -0.61279  -0.61255  -0.60994  -0.60875
 Alpha  occ. eigenvalues --   -0.60285  -0.59865  -0.59780  -0.59518  -0.59058
 Alpha  occ. eigenvalues --   -0.58459  -0.58317  -0.58033  -0.57544  -0.57222
 Alpha  occ. eigenvalues --   -0.57085  -0.57080  -0.56574  -0.56517  -0.56389
 Alpha  occ. eigenvalues --   -0.55584  -0.55501  -0.55322  -0.55107  -0.55098
 Alpha  occ. eigenvalues --   -0.54777  -0.54582  -0.54572  -0.54551  -0.54326
 Alpha  occ. eigenvalues --   -0.54214  -0.54164  -0.53679  -0.53591  -0.53441
 Alpha  occ. eigenvalues --   -0.53287  -0.53183  -0.52828  -0.52522  -0.52408
 Alpha  occ. eigenvalues --   -0.52123  -0.51972  -0.51791  -0.51544  -0.51482
 Alpha  occ. eigenvalues --   -0.51246  -0.51242  -0.51035  -0.50998  -0.50707
 Alpha  occ. eigenvalues --   -0.50569  -0.50475  -0.50327  -0.50111  -0.50004
 Alpha  occ. eigenvalues --   -0.49929  -0.49705  -0.49465  -0.49260  -0.49084
 Alpha  occ. eigenvalues --   -0.48946  -0.48734  -0.48714  -0.48625  -0.48566
 Alpha  occ. eigenvalues --   -0.48419  -0.48273  -0.48254  -0.47685  -0.47607
 Alpha  occ. eigenvalues --   -0.47388  -0.47132  -0.47099  -0.47042  -0.46804
 Alpha  occ. eigenvalues --   -0.46756  -0.46640  -0.46441  -0.46303  -0.46063
 Alpha  occ. eigenvalues --   -0.45996  -0.45793  -0.45754  -0.45531  -0.45497
 Alpha  occ. eigenvalues --   -0.45306  -0.45059  -0.44931  -0.44830  -0.44821
 Alpha  occ. eigenvalues --   -0.44787  -0.44552  -0.44363  -0.44346  -0.44055
 Alpha  occ. eigenvalues --   -0.43770  -0.43703  -0.43498  -0.43301  -0.43143
 Alpha  occ. eigenvalues --   -0.42971  -0.42905  -0.42681  -0.42648  -0.42438
 Alpha  occ. eigenvalues --   -0.42065  -0.41544  -0.41482  -0.41133  -0.41102
 Alpha  occ. eigenvalues --   -0.40589  -0.40368  -0.40084  -0.39928  -0.39666
 Alpha  occ. eigenvalues --   -0.39246  -0.39017  -0.38941  -0.38409  -0.38336
 Alpha  occ. eigenvalues --   -0.38295  -0.37129  -0.36913  -0.36328  -0.36136
 Alpha  occ. eigenvalues --   -0.35756  -0.35427  -0.34937  -0.34628  -0.33716
 Alpha  occ. eigenvalues --   -0.33398  -0.32983  -0.32919  -0.32611  -0.32051
 Alpha  occ. eigenvalues --   -0.31910  -0.31849  -0.31331  -0.26430  -0.25751
 Alpha  occ. eigenvalues --   -0.23369  -0.22419
 Alpha virt. eigenvalues --   -0.07759  -0.06155  -0.00344   0.00165   0.02309
 Alpha virt. eigenvalues --    0.02328   0.04410   0.04547   0.04594   0.05885
 Alpha virt. eigenvalues --    0.07272   0.07580   0.08000   0.08204   0.08500

 Mulliken charges:
               1
     1  Mg   0.992902
     2  C    0.011173
     3  C   -0.117687
     4  C   -0.080767
     5  C   -0.117021
     6  N   -0.330572
     7  C   -0.016946
     8  C   -0.037137
     9  C   -0.153998
    10  C    0.076229
    11  C    0.047330
    12  C    0.007293
    13  C   -0.126039
    14  H    0.026392
    15  N   -0.509806
    16  C    0.179907
    17  C   -0.131281
    18  C   -0.119620
    19  C    0.182741
    20  C    0.046060
    21  C    0.071645
    22  O   -0.201869
    23  C   -0.025182
    24  N   -0.321205
    25  C    0.020541
    26  C   -0.086036
    27  C   -0.050141
    28  C   -0.008033
    29  C    0.024210
    30  C   -0.010767
    31  C   -0.046793
    32  N   -0.398698
    33  C    0.159895
    34  C   -0.187031
    35  C    0.034938
    36  C    0.091373
    37  C    0.104703
    38  C    0.050747
    39  O   -0.214244
    40  C   -0.074834
    41  C    0.264617
    42  O   -0.268199
    43  O   -0.355833
    44  C    0.151806
    45  H   -0.008492
    46  H    0.016504
    47  H   -0.010518
    48  H    0.043109
    49  H    0.031869
    50  H    0.045727
    51  H    0.038562
    52  H    0.045924
    53  H    0.033215
    54  H    0.041181
    55  H    0.049109
    56  H    0.062496
    57  H    0.060537
    58  H    0.029695
    59  H    0.066600
    60  H    0.061493
    61  H    0.069383
    62  H    0.048031
    63  H    0.035054
    64  H    0.029212
    65  H    0.038289
    66  H    0.025927
    67  H    0.050235
    68  H    0.032283
    69  H    0.032316
    70  H    0.028536
    71  H    0.041173
    72  H    0.043844
    73  H    0.059464
    74  H    0.063983
    75  H    0.019694
    76  H    0.072662
    77  H    0.061570
    78  H    0.057170
    79  H    0.029398
    80  Mg   0.930626
    81  C   -0.012332
    82  C   -0.078738
    83  C   -0.029818
    84  C   -0.055236
    85  N   -0.359362
    86  C   -0.011347
    87  C   -0.090468
    88  C   -0.100353
    89  C    0.079409
    90  C    0.032995
    91  C    0.011748
    92  C   -0.106949
    93  H    0.041704
    94  N   -0.446555
    95  C    0.131743
    96  C   -0.166276
    97  C   -0.071359
    98  C    0.121673
    99  C    0.092379
   100  C   -0.000464
   101  O   -0.245821
   102  C    0.011383
   103  N   -0.354075
   104  C    0.049186
   105  C   -0.068707
   106  C   -0.054148
   107  C    0.053231
   108  C    0.028790
   109  C   -0.008411
   110  C   -0.059101
   111  N   -0.368081
   112  C    0.038718
   113  C   -0.158705
   114  C   -0.038470
   115  C    0.117404
   116  C    0.062087
   117  C    0.094528
   118  O   -0.225768
   119  C   -0.017552
   120  C    0.221480
   121  O   -0.212640
   122  O   -0.366488
   123  C    0.140032
   124  H    0.006097
   125  H   -0.031042
   126  H   -0.001373
   127  H    0.038004
   128  H    0.035509
   129  H    0.032264
   130  H    0.046141
   131  H    0.040153
   132  H    0.042504
   133  H    0.036096
   134  H    0.065931
   135  H    0.053234
   136  H    0.070810
   137  H    0.039840
   138  H    0.017355
   139  H    0.051099
   140  H    0.064305
   141  H    0.052331
   142  H    0.048001
   143  H    0.037671
   144  H    0.035150
   145  H    0.041422
   146  H    0.037094
   147  H    0.041959
   148  H    0.039587
   149  H    0.042331
   150  H    0.030773
   151  H    0.032989
   152  H    0.064826
   153  H    0.051556
   154  H    0.065742
   155  H    0.062048
   156  H    0.046733
   157  H    0.053338
   158  H    0.057628
 Sum of Mulliken charges =  -0.00000

 Dipole moment (field-independent basis, Debye):
    X=             -1.8436    Y=              2.7858    Z=             -3.6475  Tot=              4.9461
 Quadrupole moment (field-independent basis, Debye-Ang):
   XX=           -320.9302   YY=           -563.2597   ZZ=           -484.8644
   XY=            174.5506   XZ=             35.3987   YZ=            -37.6921

 Normal termination of Gaussian 16 at Fri Sep 17 19:03:54 2021.
