 Gaussian 16, Revision A.03,
 Gaussian 16:  ES64L-G16RevA.03 25-Dec-2016

 --------------------------------
 #p wB97XD/Def2SVP td=(nstates=5)
 --------------------------------

 --------------------------------
 TDDFT excited states in gaussian
 --------------------------------
 Symbolic Z-matrix:
 Charge =  0 Multiplicity = 1

                         Standard orientation:
 ---------------------------------------------------------------------
 Center     Atomic      Atomic             Coordinates (Angstroms)
 Number     Number       Type             X           Y           Z
 ---------------------------------------------------------------------
      1         12           0      -30.579239    0.306085    0.207378
      2          6           0      -27.778468   -1.648197   -0.409747
      3          6           0      -31.835579   -0.512525   -2.813485
      4          6           0      -33.143748    2.360827    0.844723
      5          6           0      -29.117234    1.223552    3.254142
      6          7           0      -29.828076   -0.991063   -1.385934
      7          6           0      -28.754525   -1.744247   -1.407221
      8          6           0      -28.765527   -2.558987   -2.781829
      9          6           0      -29.550149   -1.565254   -3.612082
     10          6           0      -30.528914   -0.983180   -2.543188
     11          6           0      -28.594318   -0.555734   -4.283622
     12          6           0      -29.284140   -4.043070   -2.549883
     13          6           0      -28.897503   -5.033394   -3.652671
     14          1           0      -28.292087   -4.497425   -4.938515
     15          7           0      -32.318695    0.705711   -0.745586
     16          6           0      -32.689487    0.188448   -1.984574
     17          6           0      -34.119900    0.552561   -2.213692
     18          6           0      -34.512797    1.474654   -1.152609
     19          6           0      -33.256308    1.578336   -0.363994
     20          6           0      -34.909326    0.059538   -3.403215
     21          6           0      -35.910633    2.178661   -0.829039
     22          8           0      -36.108611    2.885523    0.164961
     23          6           0      -37.036306    1.925534   -1.810057
     24          7           0      -31.000624    1.655196    1.718731
     25          6           0      -32.102642    2.398974    1.764475
     26          6           0      -32.112464    3.392061    2.967384
     27          6           0      -30.959276    2.814740    3.800688
     28          6           0      -30.328733    1.785320    2.916382
     29          6           0      -31.940015    4.886579    2.577039
     30          6           0      -31.256956    2.368187    5.300957
     31          6           0      -31.381145    0.904827    5.571865
     32          7           0      -28.735246    0.070297    1.162993
     33          6           0      -28.308806    0.431634    2.396483
     34          6           0      -26.993397   -0.016006    2.686750
     35          6           0      -26.719653   -0.877226    1.577937
     36          6           0      -27.809175   -0.759007    0.745538
     37          6           0      -26.022077    0.240290    3.809722
     38          6           0      -25.800074   -1.789843    0.966454
     39          8           0      -24.705710   -2.186755    1.304260
     40          6           0      -26.484542   -2.461700   -0.266420
     41          6           0      -25.594271   -2.378473   -1.428148
     42          8           0      -25.232649   -1.311762   -1.901154
     43          8           0      -25.055172   -3.627798   -1.828573
     44          6           0      -24.063985   -3.584781   -2.915086
     45          1           0      -32.175591   -0.747991   -3.823026
     46          1           0      -33.972564    3.053108    1.002000
     47          1           0      -28.671850    1.570827    4.188378
     48          1           0      -27.744780   -2.697330   -3.135697
     49          1           0      -30.197109   -2.018257   -4.362886
     50          1           0      -28.699770   -0.809693   -5.338905
     51          1           0      -27.557990   -0.672578   -3.963924
     52          1           0      -29.044197    0.425382   -4.133177
     53          1           0      -30.372174   -4.052691   -2.479247
     54          1           0      -28.775176   -4.377891   -1.645728
     55          1           0      -29.798227   -5.598126   -3.891270
     56          1           0      -28.201295   -5.743028   -3.206336
     57          1           0      -34.600846   -0.944150   -3.697930
     58          1           0      -34.899732    0.680869   -4.298148
     59          1           0      -35.950581   -0.051021   -3.100819
     60          1           0      -36.592614    2.176257   -2.773289
     61          1           0      -37.900251    2.578294   -1.688544
     62          1           0      -37.384157    0.896732   -1.715521
     63          1           0      -33.051074    3.338806    3.518782
     64          1           0      -30.184027    3.579952    3.786349
     65          1           0      -31.242422    5.290622    3.311073
     66          1           0      -32.842781    5.494083    2.536361
     67          1           0      -31.557011    4.920525    1.557074
     68          1           0      -32.117684    2.931335    5.661852
     69          1           0      -30.403666    2.636510    5.923436
     70          1           0      -30.524026    0.613418    6.179392
     71          1           0      -31.227838    0.242488    4.718971
     72          1           0      -32.269582    0.622397    6.136783
     73          1           0      -26.388521    0.987897    4.514100
     74          1           0      -25.042045    0.461038    3.385753
     75          1           0      -25.861758   -0.579150    4.510708
     76          1           0      -26.711444   -3.511301   -0.081343
     77          1           0      -23.790335   -4.555320   -3.328199
     78          1           0      -23.202393   -3.113145   -2.441737
     79          1           0      -24.471904   -2.890123   -3.648415
     80         12           0       30.650381    0.117186   -0.378321
     81          6           0       27.453010   -0.363301    0.923796
     82          6           0       29.745487    3.309822   -1.312568
     83          6           0       33.742394    0.388453   -1.443294
     84          6           0       31.750009   -2.761390    1.567741
     85          7           0       28.688726    1.312158   -0.234870
     86          6           0       27.519728    0.932104    0.362311
     87          6           0       26.480313    1.986086    0.215756
     88          6           0       27.242800    3.188686   -0.470619
     89          6           0       28.687360    2.602197   -0.717794
     90          6           0       26.510967    3.810665   -1.686518
     91          6           0       25.845557    2.403317    1.564621
     92          6           0       24.321160    2.337024    1.489292
     93          1           0       23.524311    3.608589    1.910195
     94          7           0       31.605101    1.641399   -1.291404
     95          6           0       31.074090    2.880582   -1.646338
     96          6           0       32.137433    3.564998   -2.370430
     97          6           0       33.329658    2.706450   -2.457698
     98          6           0       32.911824    1.448100   -1.762540
     99          6           0       32.047567    4.954375   -2.762091
    100          6           0       34.615253    3.194382   -2.984398
    101          8           0       34.786637    4.301953   -3.448988
    102          6           0       35.886045    2.421234   -2.919616
    103          7           0       32.410457   -0.972494    0.044396
    104          6           0       33.502880   -0.805206   -0.768428
    105          6           0       34.596241   -1.777451   -0.378655
    106          6           0       34.101796   -2.398700    0.873860
    107          6           0       32.711022   -1.997929    0.900460
    108          6           0       35.051207   -2.771902   -1.524034
    109          6           0       34.764961   -1.802242    2.162602
    110          6           0       34.889198   -2.695868    3.308811
    111          7           0       29.809176   -1.332072    0.965773
    112          6           0       30.339014   -2.456699    1.611828
    113          6           0       29.265269   -3.245734    2.128902
    114          6           0       28.128691   -2.470274    1.932479
    115          6           0       28.515564   -1.267324    1.240818
    116          6           0       29.446337   -4.568057    2.778111
    117          6           0       26.744737   -2.393049    2.184079
    118          8           0       26.009980   -3.173275    2.747472
    119          6           0       26.247715   -1.092971    1.513428
    120          6           0       25.185963   -1.425141    0.550202
    121          8           0       25.361288   -1.764552   -0.632195
    122          8           0       23.972067   -1.459294    1.197323
    123          6           0       22.745400   -1.667416    0.445164
    124          1           0       29.371172    4.283210   -1.634683
    125          1           0       34.807716    0.370526   -1.686460
    126          1           0       32.119904   -3.632028    2.113331
    127          1           0       25.851492    1.627673   -0.599729
    128          1           0       27.364707    4.054654    0.179300
    129          1           0       25.486893    3.464540   -1.541481
    130          1           0       26.932503    3.602312   -2.669935
    131          1           0       26.512604    4.897172   -1.602821
    132          1           0       26.022023    3.444081    1.835606
    133          1           0       26.256132    1.727466    2.314571
    134          1           0       24.139848    1.613685    2.284144
    135          1           0       24.063650    1.937399    0.509540
    136          1           0       31.058176    5.318572   -2.484562
    137          1           0       32.099007    5.153632   -3.832909
    138          1           0       32.786485    5.533716   -2.207381
    139          1           0       35.522472    1.462983   -3.290702
    140          1           0       36.197062    2.349535   -1.877059
    141          1           0       36.643037    2.847604   -3.578205
    142          1           0       35.451456   -1.125010   -0.206397
    143          1           0       34.055082   -3.486779    0.919776
    144          1           0       34.624446   -2.472487   -2.481465
    145          1           0       34.924077   -3.829901   -1.292093
    146          1           0       36.103767   -2.669815   -1.786763
    147          1           0       34.225567   -0.902203    2.457958
    148          1           0       35.779031   -1.463620    1.950822
    149          1           0       35.821208   -3.254276    3.214900
    150          1           0       34.028015   -3.356509    3.414218
    151          1           0       35.114722   -2.114568    4.203446
    152          1           0       30.215391   -5.152724    2.273493
    153          1           0       28.527391   -5.147896    2.865758
    154          1           0       29.881270   -4.318382    3.745936
    155          1           0       25.701205   -0.444683    2.198502
    156          1           0       22.533211   -2.656834    0.039906
    157          1           0       22.676520   -0.925159   -0.349821
    158          1           0       21.958433   -1.526799    1.185187
 ---------------------------------------------------------------------

 SCF Done:  E(RwB97XD) =  -4070.58912055     A.U. after   20 cycles

 Excitation energies and oscillator strengths:

 Excited State   1:      Singlet-A      1.6144 eV  768.00 nm  f=0.3665  <S**2>=0.000
     309 -> 315       -0.19430
     311 -> 313        0.68134
     309 <- 315       -0.12117
 This state for optimization and/or second-order correction.
 Total Energy, E(TD-HF/TD-DFT) =  -4070.52979345
 Copying the excited state density for this state as the 1-particle RhoCI density.

 Excited State   2:      Singlet-A      1.6905 eV  733.41 nm  f=0.3918  <S**2>=0.000
     310 -> 316        0.18169
     312 -> 314        0.68421
     310 <- 316        0.11473

 Excited State   3:      Singlet-A      2.1299 eV  582.12 nm  f=0.0995  <S**2>=0.000
     309 -> 313        0.63360
     311 -> 315        0.30003

 Excited State   4:      Singlet-A      2.1645 eV  572.81 nm  f=0.1459  <S**2>=0.000
     310 -> 314        0.65220
     312 -> 316       -0.26036

 Excited State   5:      Singlet-A      3.2694 eV  379.22 nm  f=0.0024  <S**2>=0.000
     305 -> 313       -0.24645
     307 -> 313        0.52100
     308 -> 313        0.35632

 The electronic state is 1-A.
 Alpha  occ. eigenvalues --  -46.95275 -46.94117 -19.30084 -19.29141 -19.25574
 Alpha  occ. eigenvalues --  -19.24399 -19.24304 -19.23386 -19.22911 -19.22396
 Alpha  occ. eigenvalues --  -14.46912 -14.46606 -14.46537 -14.46031 -14.44898
 Alpha  occ. eigenvalues --  -14.44748 -14.43755 -14.43195 -10.42929 -10.42716
 Alpha  occ. eigenvalues --  -10.41293 -10.38188 -10.38075 -10.37640 -10.35668
 Alpha  occ. eigenvalues --  -10.35640 -10.35576 -10.35410 -10.35392 -10.35252
 Alpha  occ. eigenvalues --  -10.35137 -10.35135 -10.35072 -10.34785 -10.34647
 Alpha  occ. eigenvalues --  -10.34575 -10.34450 -10.34446 -10.33879 -10.33796
 Alpha  occ. eigenvalues --  -10.33233 -10.33085 -10.32951 -10.32751 -10.32698
 Alpha  occ. eigenvalues --  -10.32692 -10.32613 -10.32416 -10.32363 -10.32268
 Alpha  occ. eigenvalues --  -10.32260 -10.32193 -10.32057 -10.32043 -10.32030
 Alpha  occ. eigenvalues --  -10.32017 -10.31845 -10.31643 -10.31590 -10.31589
 Alpha  occ. eigenvalues --  -10.31398 -10.31341 -10.31332 -10.31311 -10.31272
 Alpha  occ. eigenvalues --  -10.31193 -10.31113 -10.31082 -10.30980 -10.30779
 Alpha  occ. eigenvalues --  -10.30661 -10.30347 -10.30321 -10.30233 -10.30081
 Alpha  occ. eigenvalues --  -10.29851 -10.29636 -10.29598 -10.29585 -10.29527
 Alpha  occ. eigenvalues --  -10.29351 -10.29051 -10.28774 -10.28741 -10.28297
 Alpha  occ. eigenvalues --  -10.28169  -3.21212  -3.20282  -1.94804  -1.94345
 Alpha  occ. eigenvalues --   -1.94169  -1.93892  -1.93378  -1.93306  -1.17615
 Alpha  occ. eigenvalues --   -1.16628  -1.12766  -1.12275  -1.12050  -1.11773
 Alpha  occ. eigenvalues --   -1.08933  -1.08885  -1.07582  -1.06976  -1.06739
 Alpha  occ. eigenvalues --   -1.06174  -1.05805  -1.05234  -1.04996  -1.03617
 Alpha  occ. eigenvalues --   -0.94623  -0.94087  -0.92639  -0.91445  -0.91093
 Alpha  occ. eigenvalues --   -0.90981  -0.90445  -0.90214  -0.89635  -0.89271
 Alpha  occ. eigenvalues --   -0.89177  -0.89041  -0.88261  -0.88169  -0.87155
 Alpha  occ. eigenvalues --   -0.86441  -0.86211  -0.85516  -0.85364  -0.84698
 Alpha  occ. eigenvalues --   -0.84518  -0.84489  -0.83366  -0.82886  -0.82778
 Alpha  occ. eigenvalues --   -0.82037  -0.80588  -0.80579  -0.79904  -0.79146
 Alpha  occ. eigenvalues --   -0.79055  -0.78570  -0.78231  -0.77760  -0.77330
 Alpha  occ. eigenvalues --   -0.76999  -0.75390  -0.74804  -0.74014  -0.73156
 Alpha  occ. eigenvalues --   -0.71307  -0.71128  -0.71019  -0.70732  -0.69933
 Alpha  occ. eigenvalues --   -0.69891  -0.69462  -0.68664  -0.68397  -0.67881
 Alpha  occ. eigenvalues --   -0.67279  -0.67022  -0.66683  -0.66581  -0.66182
 Alpha  occ. eigenvalues --   -0.65961  -0.64007  -0.63246  -0.62706  -0.62690
 Alpha  occ. eigenvalues --   -0.61546  -0.61464  -0.61442  -0.61120  -0.60964
 Alpha  occ. eigenvalues --   -0.60009  -0.59952  -0.59920  -0.59570  -0.59370
 Alpha  occ. eigenvalues --   -0.58389  -0.57836  -0.57810  -0.57653  -0.57405
 Alpha  occ. eigenvalues --   -0.57356  -0.57125  -0.56679  -0.56356  -0.56160
 Alpha  occ. eigenvalues --   -0.55883  -0.55569  -0.55332  -0.55133  -0.54947
 Alpha  occ. eigenvalues --   -0.54736  -0.54584  -0.54481  -0.54240  -0.54223
 Alpha  occ. eigenvalues --   -0.54082  -0.54020  -0.53731  -0.53669  -0.53577
 Alpha  occ. eigenvalues --   -0.53204  -0.53177  -0.53132  -0.52717  -0.52695
 Alpha  occ. eigenvalues --   -0.52348  -0.52225  -0.51952  -0.51814  -0.51607
 Alpha  occ. eigenvalues --   -0.51414  -0.51338  -0.51106  -0.51048  -0.50984
 Alpha  occ. eigenvalues --   -0.50789  -0.50765  -0.50481  -0.50472  -0.50409
 Alpha  occ. eigenvalues --   -0.50400  -0.49748  -0.49503  -0.49308  -0.49068
 Alpha  occ. eigenvalues --   -0.48932  -0.48792  -0.48710  -0.48558  -0.48349
 Alpha  occ. eigenvalues --   -0.48234  -0.48172  -0.48158  -0.47936  -0.47701
 Alpha  occ. eigenvalues --   -0.47661  -0.47446  -0.47230  -0.46875  -0.46851
 Alpha  occ. eigenvalues --   -0.46579  -0.46509  -0.46451  -0.46258  -0.45964
 Alpha  occ. eigenvalues --   -0.45932  -0.45880  -0.45579  -0.45436  -0.45406
 Alpha  occ. eigenvalues --   -0.45267  -0.45154  -0.45154  -0.44974  -0.44930
 Alpha  occ. eigenvalues --   -0.44849  -0.44455  -0.44429  -0.44023  -0.43976
 Alpha  occ. eigenvalues --   -0.43739  -0.43639  -0.43527  -0.43358  -0.43303
 Alpha  occ. eigenvalues --   -0.43075  -0.42954  -0.42858  -0.42578  -0.42422
 Alpha  occ. eigenvalues --   -0.42157  -0.42088  -0.41876  -0.41101  -0.41100
 Alpha  occ. eigenvalues --   -0.40438  -0.40196  -0.39974  -0.39640  -0.39449
 Alpha  occ. eigenvalues --   -0.39290  -0.39058  -0.38638  -0.38360  -0.38288
 Alpha  occ. eigenvalues --   -0.38125  -0.37617  -0.36438  -0.36337  -0.35887
 Alpha  occ. eigenvalues --   -0.35726  -0.35436  -0.35189  -0.34202  -0.33589
 Alpha  occ. eigenvalues --   -0.33387  -0.32717  -0.32651  -0.32155  -0.32032
 Alpha  occ. eigenvalues --   -0.31693  -0.31680  -0.31529  -0.26219  -0.25821
 Alpha  occ. eigenvalues --   -0.23366  -0.23213
 Alpha virt. eigenvalues --   -0.07509  -0.07172  -0.00587   0.00664   0.02003
 Alpha virt. eigenvalues --    0.02325   0.04472   0.04578   0.05846   0.06504
 Alpha virt. eigenvalues --    0.06607   0.06980   0.07463   0.07947   0.08042

 Mulliken charges:
               1
     1  Mg   0.985772
     2  C   -0.033752
     3  C   -0.089592
     4  C   -0.081516
     5  C   -0.113373
     6  N   -0.312241
     7  C   -0.022293
     8  C   -0.084835
     9  C   -0.106253
    10  C    0.035841
    11  C    0.056883
    12  C    0.017380
    13  C   -0.109397
    14  H    0.037448
    15  N   -0.477251
    16  C    0.190238
    17  C   -0.158448
    18  C   -0.108926
    19  C    0.127218
    20  C    0.049059
    21  C    0.101740
    22  O   -0.227661
    23  C   -0.029624
    24  N   -0.378976
    25  C    0.081019
    26  C   -0.097485
    27  C   -0.032834
    28  C    0.053581
    29  C    0.021169
    30  C   -0.006242
    31  C   -0.048526
    32  N   -0.374836
    33  C    0.115855
    34  C   -0.174737
    35  C   -0.023325
    36  C    0.102401
    37  C    0.084899
    38  C    0.096548
    39  O   -0.204577
    40  C   -0.019904
    41  C    0.245748
    42  O   -0.251775
    43  O   -0.402737
    44  C    0.147350
    45  H    0.004666
    46  H    0.017899
    47  H   -0.007201
    48  H    0.021252
    49  H    0.004267
    50  H    0.035517
    51  H    0.070966
    52  H    0.037000
    53  H    0.035387
    54  H    0.041322
    55  H    0.045559
    56  H    0.053102
    57  H    0.040758
    58  H    0.065829
    59  H    0.031027
    60  H    0.059257
    61  H    0.056238
    62  H    0.081376
    63  H    0.037167
    64  H    0.030713
    65  H    0.038433
    66  H    0.045371
    67  H    0.041239
    68  H    0.033880
    69  H    0.028041
    70  H    0.018060
    71  H    0.047813
    72  H    0.040850
    73  H    0.015384
    74  H    0.066026
    75  H    0.046099
    76  H    0.068314
    77  H    0.063924
    78  H    0.057324
    79  H    0.048110
    80  Mg   0.953426
    81  C    0.048334
    82  C   -0.057444
    83  C   -0.121931
    84  C   -0.096170
    85  N   -0.342799
    86  C   -0.024082
    87  C   -0.029642
    88  C   -0.145855
    89  C    0.045659
    90  C    0.012160
    91  C    0.023707
    92  C   -0.137297
    93  H    0.039245
    94  N   -0.537431
    95  C    0.202103
    96  C   -0.171586
    97  C   -0.063973
    98  C    0.269837
    99  C    0.097592
   100  C   -0.011618
   101  O   -0.239006
   102  C    0.006956
   103  N   -0.368802
   104  C    0.069771
   105  C   -0.083403
   106  C   -0.081680
   107  C    0.062915
   108  C    0.032035
   109  C    0.003090
   110  C   -0.018640
   111  N   -0.407259
   112  C    0.111864
   113  C   -0.185409
   114  C   -0.015199
   115  C    0.112813
   116  C    0.089639
   117  C    0.108558
   118  O   -0.187591
   119  C   -0.127666
   120  C    0.253661
   121  O   -0.269056
   122  O   -0.361191
   123  C    0.148995
   124  H    0.001507
   125  H   -0.005779
   126  H   -0.002762
   127  H    0.049537
   128  H    0.042580
   129  H    0.038452
   130  H    0.051701
   131  H    0.032387
   132  H    0.051894
   133  H    0.051972
   134  H    0.064244
   135  H    0.053275
   136  H    0.001028
   137  H    0.057451
   138  H    0.064817
   139  H    0.039490
   140  H    0.062461
   141  H    0.058180
   142  H    0.032785
   143  H    0.027083
   144  H    0.034030
   145  H    0.045455
   146  H    0.027812
   147  H    0.039413
   148  H    0.019981
   149  H    0.027119
   150  H    0.029223
   151  H    0.034561
   152  H    0.036177
   153  H    0.067953
   154  H    0.051129
   155  H    0.050911
   156  H    0.058148
   157  H    0.047291
   158  H    0.050860
 Sum of Mulliken charges =  -0.00000

 Dipole moment (field-independent basis, Debye):
    X=             -3.3678    Y=             -0.8725    Z=             -1.6924  Tot=              3.8688
 Quadrupole moment (field-independent basis, Debye-Ang):
   XX=            -98.0360   YY=           -510.9266   ZZ=           -493.8204
   XY=            -12.8387   XZ=            136.2807   YZ=             27.5815

 Normal termination of Gaussian 16 at Mon Sep 20 20:51:32 2021.
