 Gaussian 16, Revision A.03,
 Gaussian 16:  ES64L-G16RevA.03 25-Dec-2016

 --------------------------------
 #p wB97XD/Def2SVP td=(nstates=5)
 --------------------------------

 --------------------------------
 TDDFT excited states in gaussian
 --------------------------------
 Symbolic Z-matrix:
 Charge =  0 Multiplicity = 1

                         Standard orientation:
 ---------------------------------------------------------------------
 Center     Atomic      Atomic             Coordinates (Angstroms)
 Number     Number       Type             X           Y           Z
 ---------------------------------------------------------------------
      1         12           0       28.799639    0.442881   -0.159972
      2          6           0       26.570664   -2.251426   -0.006160
      3          6           0       26.444868    2.198119    1.666191
      4          6           0       30.993585    2.949672    0.051217
      5          6           0       31.320040   -1.731381   -1.227938
      6          7           0       26.708893   -0.133175    0.928542
      7          6           0       25.987071   -1.250730    0.718978
      8          6           0       24.648328   -1.244962    1.417090
      9          6           0       24.579480    0.310651    1.661755
     10          6           0       25.986130    0.868169    1.469798
     11          6           0       23.643123    0.970519    0.614566
     12          6           0       24.633287   -2.215886    2.604549
     13          6           0       25.873825   -2.335412    3.514088
     14          1           0       25.610804   -2.260378    5.013446
     15          7           0       28.734720    2.293458    0.709456
     16          6           0       27.631946    2.851460    1.299915
     17          6           0       27.800783    4.309910    1.339161
     18          6           0       29.192813    4.572866    1.019843
     19          6           0       29.681538    3.237808    0.558108
     20          6           0       26.744114    5.274242    2.001895
     21          6           0       29.927062    5.910532    1.140667
     22          8           0       29.326472    6.915442    1.401826
     23          6           0       31.404967    5.981976    0.885393
     24          7           0       30.964547    0.485101   -0.352167
     25          6           0       31.676083    1.698964   -0.327690
     26          6           0       33.207370    1.527050   -0.708342
     27          6           0       33.241901   -0.005169   -1.177070
     28          6           0       31.726848   -0.454990   -0.946412
     29          6           0       33.905639    2.537605   -1.749021
     30          6           0       34.305812   -0.966363   -0.474798
     31          6           0       34.835354   -2.076380   -1.510873
     32          7           0       28.972403   -1.589993   -0.612773
     33          6           0       30.038671   -2.303755   -1.120916
     34          6           0       29.605010   -3.663257   -1.419190
     35          6           0       28.229755   -3.732104   -1.077301
     36          6           0       27.905751   -2.447582   -0.508824
     37          6           0       30.403119   -4.724179   -2.130770
     38          6           0       26.992589   -4.566484   -0.932214
     39          8           0       26.823801   -5.752431   -1.108686
     40          6           0       25.910593   -3.595393   -0.294115
     41          6           0       24.788413   -3.490360   -1.289977
     42          8           0       23.921139   -4.382010   -1.467733
     43          8           0       24.782412   -2.221994   -1.852096
     44          6           0       23.638554   -1.906087   -2.640641
     45          1           0       25.666869    2.782441    2.162085
     46          1           0       31.734653    3.734169   -0.116991
     47          1           0       32.061705   -2.342330   -1.746959
     48          1           0       23.832751   -1.463375    0.727978
     49          1           0       24.235974    0.659322    2.634739
     50          1           0       24.064067    1.957333    0.420421
     51          1           0       22.610758    0.955945    0.961144
     52          1           0       23.625664    0.580452   -0.403585
     53          1           0       24.541119   -3.209631    2.167368
     54          1           0       23.756358   -1.992251    3.212190
     55          1           0       26.549759   -1.508454    3.297882
     56          1           0       26.326748   -3.311062    3.340189
     57          1           0       26.754491    5.292063    3.092039
     58          1           0       25.743910    5.007804    1.660110
     59          1           0       26.781777    6.315865    1.685066
     60          1           0       31.819227    6.953935    1.155300
     61          1           0       31.671930    5.777172   -0.151568
     62          1           0       31.791366    5.287137    1.631517
     63          1           0       33.648521    1.646976    0.280441
     64          1           0       33.412874   -0.081187   -2.250503
     65          1           0       34.314213    3.362855   -1.166977
     66          1           0       33.195268    2.901746   -2.490715
     67          1           0       34.685199    1.995112   -2.284283
     68          1           0       33.834984   -1.572225    0.299299
     69          1           0       35.115665   -0.392910   -0.023133
     70          1           0       34.589592   -3.080976   -1.166411
     71          1           0       35.918288   -1.998037   -1.602316
     72          1           0       34.406615   -2.113210   -2.511743
     73          1           0       31.309269   -4.914334   -1.556584
     74          1           0       30.687369   -4.365372   -3.120224
     75          1           0       29.867654   -5.671019   -2.198627
     76          1           0       25.511407   -4.166459    0.543823
     77          1           0       23.692907   -0.862169   -2.948630
     78          1           0       22.717225   -2.191922   -2.132849
     79          1           0       23.653559   -2.413701   -3.605075
     80         12           0      -29.041309   -0.180675   -0.459686
     81          6           0      -25.675513    0.489205   -0.069680
     82          6           0      -28.462984   -3.329534    0.805443
     83          6           0      -32.439528   -0.648275   -0.278948
     84          6           0      -29.555725    3.022990   -1.609946
     85          7           0      -27.331503   -1.213197    0.460143
     86          6           0      -26.034968   -0.738593    0.431306
     87          6           0      -25.045941   -1.750383    1.003949
     88          6           0      -25.901552   -3.070829    0.954166
     89          6           0      -27.303162   -2.505180    0.777754
     90          6           0      -25.468479   -4.185832   -0.101980
     91          6           0      -24.428033   -1.406277    2.396689
     92          6           0      -22.934517   -1.619975    2.524388
     93          1           0      -22.598433   -2.784776    3.442588
     94          7           0      -30.229309   -1.757565    0.188449
     95          6           0      -29.817328   -2.948808    0.636668
     96          6           0      -30.948143   -3.827559    0.880136
     97          6           0      -32.135548   -3.167976    0.609986
     98          6           0      -31.659511   -1.777977    0.198125
     99          6           0      -30.779429   -5.304793    1.477952
    100          6           0      -33.581525   -3.767661    0.654918
    101          8           0      -33.731544   -4.956558    1.055703
    102          6           0      -34.773860   -2.968256    0.291722
    103          7           0      -30.838258    1.133786   -0.664046
    104          6           0      -32.066631    0.671982   -0.711111
    105          6           0      -33.033801    1.639099   -1.361264
    106          6           0      -32.202890    2.909968   -1.746047
    107          6           0      -30.744732    2.337959   -1.403050
    108          6           0      -34.084100    1.118515   -2.393771
    109          6           0      -32.469812    4.272334   -1.042785
    110          6           0      -31.899023    5.452032   -1.802326
    111          7           0      -27.842469    1.472633   -0.775085
    112          6           0      -28.177183    2.723965   -1.342356
    113          6           0      -26.959492    3.467361   -1.518564
    114          6           0      -25.912918    2.628058   -1.064726
    115          6           0      -26.541874    1.476025   -0.600815
    116          6           0      -26.796540    4.770852   -2.286149
    117          6           0      -24.541669    2.573771   -0.938853
    118          8           0      -23.635619    3.347114   -1.090777
    119          6           0      -24.303008    1.197060   -0.126145
    120          6           0      -24.065246    1.656899    1.311411
    121          8           0      -24.928567    1.970553    2.108204
    122          8           0      -22.693502    1.661767    1.506505
    123          6           0      -22.234364    2.178303    2.791815
    124          1           0      -28.320930   -4.393089    1.007442
    125          1           0      -33.506297   -0.869505   -0.208982
    126          1           0      -29.547551    4.004391   -2.088707
    127          1           0      -24.246708   -1.872920    0.273558
    128          1           0      -25.950860   -3.446375    1.976888
    129          1           0      -26.403404   -4.728635   -0.240764
    130          1           0      -24.800865   -4.948433    0.299828
    131          1           0      -25.046882   -3.834626   -1.043693
    132          1           0      -24.961157   -2.073508    3.074256
    133          1           0      -24.719244   -0.456933    2.845708
    134          1           0      -22.506769   -0.691646    2.903673
    135          1           0      -22.461577   -1.845422    1.568359
    136          1           0      -29.756077   -5.593826    1.721038
    137          1           0      -31.182098   -6.045465    0.786229
    138          1           0      -31.241168   -5.425056    2.456990
    139          1           0      -34.685079   -2.631379   -0.740623
    140          1           0      -34.988975   -2.204868    1.039544
    141          1           0      -35.564869   -3.710673    0.193327
    142          1           0      -33.723327    2.141522   -0.682551
    143          1           0      -32.073654    3.013644   -2.823641
    144          1           0      -34.075535    0.031343   -2.304408
    145          1           0      -33.938652    1.503863   -3.403612
    146          1           0      -35.111264    1.408578   -2.172171
    147          1           0      -32.079796    4.168462   -0.030354
    148          1           0      -33.553991    4.309732   -0.937184
    149          1           0      -32.546286    6.308271   -1.610933
    150          1           0      -31.841690    5.327279   -2.884294
    151          1           0      -30.943994    5.731201   -1.357186
    152          1           0      -25.758447    5.050619   -2.465801
    153          1           0      -27.323163    5.546669   -1.731895
    154          1           0      -27.278738    4.717837   -3.262316
    155          1           0      -23.527973    0.588712   -0.593352
    156          1           0      -22.476167    3.238813    2.864092
    157          1           0      -21.172176    1.992629    2.947423
    158          1           0      -22.792952    1.698693    3.595096
 ---------------------------------------------------------------------

 SCF Done:  E(RwB97XD) =  -4070.60763307     A.U. after   20 cycles

 Excitation energies and oscillator strengths:

 Excited State   1:      Singlet-A      1.6941 eV  731.87 nm  f=0.3564  <S**2>=0.000
     310 -> 315        0.19922
     312 -> 313        0.67862
     310 <- 315        0.11862
 This state for optimization and/or second-order correction.
 Total Energy, E(TD-HF/TD-DFT) =  -4070.54537698
 Copying the excited state density for this state as the 1-particle RhoCI density.

 Excited State   2:      Singlet-A      1.8712 eV  662.58 nm  f=0.3752  <S**2>=0.000
     309 -> 316        0.14189
     311 -> 314        0.68597

 Excited State   3:      Singlet-A      2.1841 eV  567.66 nm  f=0.1021  <S**2>=0.000
     310 -> 313        0.63334
     312 -> 315       -0.30090

 Excited State   4:      Singlet-A      2.2254 eV  557.12 nm  f=0.1257  <S**2>=0.000
     309 -> 314        0.64385
     311 -> 316       -0.24648
     311 -> 317        0.10810

 Excited State   5:      Singlet-A      3.4915 eV  355.10 nm  f=0.1747  <S**2>=0.000
     306 -> 313        0.53168
     306 -> 318        0.10505
     310 -> 313        0.15424
     312 -> 315        0.39191

 The electronic state is 1-A.
 Alpha  occ. eigenvalues --  -46.96727 -46.95749 -19.31234 -19.29682 -19.25342
 Alpha  occ. eigenvalues --  -19.24974 -19.24726 -19.24558 -19.24066 -19.22648
 Alpha  occ. eigenvalues --  -14.46913 -14.46831 -14.46628 -14.46400 -14.45218
 Alpha  occ. eigenvalues --  -14.45121 -14.44035 -14.43011 -10.43837 -10.42885
 Alpha  occ. eigenvalues --  -10.41099 -10.39796 -10.39277 -10.37343 -10.37288
 Alpha  occ. eigenvalues --  -10.36945 -10.36524 -10.35940 -10.35828 -10.35692
 Alpha  occ. eigenvalues --  -10.35249 -10.35171 -10.34949 -10.34843 -10.34550
 Alpha  occ. eigenvalues --  -10.34348 -10.34186 -10.34082 -10.33948 -10.33790
 Alpha  occ. eigenvalues --  -10.33768 -10.33547 -10.33386 -10.33239 -10.33010
 Alpha  occ. eigenvalues --  -10.32579 -10.32491 -10.32488 -10.32471 -10.32436
 Alpha  occ. eigenvalues --  -10.32412 -10.32299 -10.32236 -10.32209 -10.32155
 Alpha  occ. eigenvalues --  -10.32131 -10.32117 -10.32027 -10.31894 -10.31805
 Alpha  occ. eigenvalues --  -10.31723 -10.31616 -10.31564 -10.31358 -10.31177
 Alpha  occ. eigenvalues --  -10.31104 -10.31055 -10.31034 -10.30942 -10.30822
 Alpha  occ. eigenvalues --  -10.30805 -10.30783 -10.30777 -10.30767 -10.30488
 Alpha  occ. eigenvalues --  -10.30316 -10.30269 -10.30142 -10.30106 -10.30105
 Alpha  occ. eigenvalues --  -10.29921 -10.29877 -10.29775 -10.29631 -10.29081
 Alpha  occ. eigenvalues --  -10.26990  -3.22572  -3.21644  -1.96116  -1.95705
 Alpha  occ. eigenvalues --   -1.95523  -1.95214  -1.94769  -1.94614  -1.18617
 Alpha  occ. eigenvalues --   -1.17548  -1.13740  -1.12873  -1.11930  -1.11440
 Alpha  occ. eigenvalues --   -1.10026  -1.09236  -1.06786  -1.06605  -1.05951
 Alpha  occ. eigenvalues --   -1.05870  -1.05280  -1.04941  -1.04539  -1.03895
 Alpha  occ. eigenvalues --   -0.94455  -0.93464  -0.91030  -0.90883  -0.90349
 Alpha  occ. eigenvalues --   -0.90287  -0.89949  -0.89579  -0.89253  -0.89001
 Alpha  occ. eigenvalues --   -0.88698  -0.87969  -0.87714  -0.87659  -0.86750
 Alpha  occ. eigenvalues --   -0.86404  -0.85543  -0.85238  -0.85125  -0.84604
 Alpha  occ. eigenvalues --   -0.83988  -0.83796  -0.82741  -0.82615  -0.82333
 Alpha  occ. eigenvalues --   -0.82149  -0.79589  -0.79485  -0.79211  -0.79098
 Alpha  occ. eigenvalues --   -0.78638  -0.78622  -0.78313  -0.77270  -0.77259
 Alpha  occ. eigenvalues --   -0.77087  -0.74782  -0.74352  -0.74030  -0.73675
 Alpha  occ. eigenvalues --   -0.71850  -0.71661  -0.71325  -0.71097  -0.70212
 Alpha  occ. eigenvalues --   -0.69844  -0.69366  -0.69196  -0.67817  -0.67544
 Alpha  occ. eigenvalues --   -0.67393  -0.66842  -0.66832  -0.66697  -0.66610
 Alpha  occ. eigenvalues --   -0.66026  -0.65682  -0.63665  -0.62069  -0.62031
 Alpha  occ. eigenvalues --   -0.61422  -0.61258  -0.61033  -0.60931  -0.60466
 Alpha  occ. eigenvalues --   -0.60145  -0.59758  -0.59703  -0.59325  -0.59320
 Alpha  occ. eigenvalues --   -0.58461  -0.58256  -0.58010  -0.57467  -0.57403
 Alpha  occ. eigenvalues --   -0.56993  -0.56964  -0.56200  -0.56084  -0.55913
 Alpha  occ. eigenvalues --   -0.55659  -0.55642  -0.55268  -0.55128  -0.55108
 Alpha  occ. eigenvalues --   -0.55008  -0.54751  -0.54695  -0.53944  -0.53838
 Alpha  occ. eigenvalues --   -0.53613  -0.53494  -0.53344  -0.53019  -0.52970
 Alpha  occ. eigenvalues --   -0.52664  -0.52636  -0.52492  -0.52469  -0.52128
 Alpha  occ. eigenvalues --   -0.52000  -0.51957  -0.51896  -0.51738  -0.51669
 Alpha  occ. eigenvalues --   -0.51488  -0.51401  -0.50979  -0.50875  -0.50607
 Alpha  occ. eigenvalues --   -0.50585  -0.50395  -0.50287  -0.50123  -0.49518
 Alpha  occ. eigenvalues --   -0.49496  -0.49276  -0.49259  -0.49165  -0.49163
 Alpha  occ. eigenvalues --   -0.48872  -0.48620  -0.48498  -0.48249  -0.48114
 Alpha  occ. eigenvalues --   -0.48032  -0.47995  -0.47914  -0.47612  -0.47441
 Alpha  occ. eigenvalues --   -0.47238  -0.47123  -0.47106  -0.47104  -0.46958
 Alpha  occ. eigenvalues --   -0.46819  -0.46793  -0.46595  -0.46254  -0.46166
 Alpha  occ. eigenvalues --   -0.45886  -0.45844  -0.45798  -0.45590  -0.45501
 Alpha  occ. eigenvalues --   -0.45380  -0.45307  -0.45222  -0.45080  -0.44920
 Alpha  occ. eigenvalues --   -0.44766  -0.44689  -0.44450  -0.44442  -0.44233
 Alpha  occ. eigenvalues --   -0.44158  -0.44083  -0.43972  -0.43916  -0.43624
 Alpha  occ. eigenvalues --   -0.43496  -0.43115  -0.42643  -0.42329  -0.42251
 Alpha  occ. eigenvalues --   -0.42075  -0.41811  -0.41759  -0.41223  -0.40997
 Alpha  occ. eigenvalues --   -0.40878  -0.40842  -0.40069  -0.39998  -0.39341
 Alpha  occ. eigenvalues --   -0.39268  -0.39218  -0.38779  -0.38592  -0.38311
 Alpha  occ. eigenvalues --   -0.38234  -0.37270  -0.36664  -0.36392  -0.36380
 Alpha  occ. eigenvalues --   -0.36137  -0.35376  -0.35330  -0.34472  -0.34123
 Alpha  occ. eigenvalues --   -0.33547  -0.33216  -0.33061  -0.32917  -0.32805
 Alpha  occ. eigenvalues --   -0.31849  -0.31596  -0.31152  -0.26046  -0.25947
 Alpha  occ. eigenvalues --   -0.23345  -0.23203
 Alpha virt. eigenvalues --   -0.06977  -0.06732  -0.00166   0.00156   0.02186
 Alpha virt. eigenvalues --    0.02194   0.03938   0.04101   0.04156   0.04937
 Alpha virt. eigenvalues --    0.06670   0.07627   0.07911   0.08191   0.08659

 Mulliken charges:
               1
     1  Mg   0.954519
     2  C    0.126573
     3  C   -0.086899
     4  C   -0.102722
     5  C   -0.086858
     6  N   -0.280253
     7  C   -0.106111
     8  C    0.024776
     9  C   -0.115460
    10  C    0.019840
    11  C    0.018035
    12  C    0.021157
    13  C   -0.133168
    14  H    0.032711
    15  N   -0.458794
    16  C    0.175454
    17  C   -0.148365
    18  C   -0.099981
    19  C    0.211681
    20  C    0.047885
    21  C    0.038188
    22  O   -0.200618
    23  C   -0.012781
    24  N   -0.367890
    25  C    0.007518
    26  C   -0.062951
    27  C   -0.084182
    28  C    0.069700
    29  C    0.005024
    30  C   -0.009868
    31  C   -0.094174
    32  N   -0.439609
    33  C    0.138931
    34  C   -0.213535
    35  C   -0.016301
    36  C    0.078965
    37  C    0.071698
    38  C    0.139972
    39  O   -0.173441
    40  C   -0.211116
    41  C    0.295940
    42  O   -0.266937
    43  O   -0.352055
    44  C    0.141298
    45  H    0.007242
    46  H   -0.025113
    47  H   -0.020870
    48  H    0.029512
    49  H    0.028329
    50  H    0.024561
    51  H    0.050188
    52  H    0.027440
    53  H    0.036949
    54  H    0.046197
    55  H    0.070687
    56  H    0.060463
    57  H    0.063285
    58  H    0.025833
    59  H    0.056070
    60  H    0.046987
    61  H    0.080142
    62  H    0.053724
    63  H    0.053695
    64  H    0.040268
    65  H    0.049438
    66  H    0.047508
    67  H    0.050465
    68  H    0.049743
    69  H    0.043974
    70  H    0.038456
    71  H    0.044450
    72  H    0.040082
    73  H    0.037433
    74  H    0.051953
    75  H    0.058883
    76  H    0.085138
    77  H    0.049507
    78  H    0.054981
    79  H    0.046604
    80  Mg   0.966658
    81  C   -0.041482
    82  C   -0.128740
    83  C   -0.109161
    84  C   -0.042124
    85  N   -0.333000
    86  C   -0.011695
    87  C   -0.074678
    88  C   -0.075937
    89  C    0.063608
    90  C    0.034903
    91  C    0.028305
    92  C   -0.107176
    93  H    0.024757
    94  N   -0.466178
    95  C    0.186033
    96  C   -0.152990
    97  C   -0.065471
    98  C    0.142312
    99  C    0.072231
   100  C    0.052321
   101  O   -0.253961
   102  C    0.003722
   103  N   -0.330971
   104  C    0.128599
   105  C   -0.083477
   106  C   -0.090925
   107  C    0.027182
   108  C    0.020526
   109  C    0.009826
   110  C   -0.034581
   111  N   -0.438521
   112  C    0.046380
   113  C   -0.148276
   114  C    0.002729
   115  C    0.157927
   116  C    0.059531
   117  C    0.057934
   118  O   -0.195155
   119  C   -0.117692
   120  C    0.296877
   121  O   -0.238875
   122  O   -0.364118
   123  C    0.141276
   124  H   -0.003533
   125  H   -0.019481
   126  H   -0.016850
   127  H    0.023290
   128  H    0.032774
   129  H    0.025016
   130  H    0.044692
   131  H    0.053883
   132  H    0.020248
   133  H    0.052805
   134  H    0.048281
   135  H    0.048688
   136  H    0.019584
   137  H    0.064675
   138  H    0.059495
   139  H    0.061841
   140  H    0.091266
   141  H    0.055058
   142  H    0.038389
   143  H    0.031577
   144  H    0.030260
   145  H    0.041596
   146  H    0.029146
   147  H    0.042113
   148  H    0.025813
   149  H    0.032463
   150  H    0.043077
   151  H    0.051711
   152  H    0.058568
   153  H    0.038057
   154  H    0.040751
   155  H    0.054835
   156  H    0.058143
   157  H    0.060949
   158  H    0.042368
 Sum of Mulliken charges =  -0.00000

 Dipole moment (field-independent basis, Debye):
    X=             -0.8675    Y=              2.5220    Z=             -3.0025  Tot=              4.0160
 Quadrupole moment (field-independent basis, Debye-Ang):
   XX=            -68.8201   YY=           -578.1295   ZZ=           -501.7187
   XY=            105.9548   XZ=              8.1910   YZ=            -11.3213

 Normal termination of Gaussian 16 at Sun Sep 19 19:19:15 2021.
