 Gaussian 16, Revision A.03,
 Gaussian 16:  ES64L-G16RevA.03 25-Dec-2016

 --------------------------------
 #p wB97XD/Def2SVP td=(nstates=5)
 --------------------------------

 --------------------------------
 TDDFT excited states in gaussian
 --------------------------------
 Symbolic Z-matrix:
 Charge =  0 Multiplicity = 1

                         Standard orientation:
 ---------------------------------------------------------------------
 Center     Atomic      Atomic             Coordinates (Angstroms)
 Number     Number       Type             X           Y           Z
 ---------------------------------------------------------------------
      1         12           0       16.241950    0.706306   -0.245405
      2          6           0       15.656737   -2.064057    1.878071
      3          6           0       13.518005    2.183848    1.091105
      4          6           0       16.752101    3.179591   -2.328892
      5          6           0       18.600917   -1.347886   -2.001369
      6          7           0       14.648920    0.092351    1.267609
      7          6           0       14.812259   -0.966134    2.145507
      8          6           0       13.835928   -0.762840    3.253326
      9          6           0       12.823205    0.240867    2.701255
     10          6           0       13.688399    0.934184    1.619197
     11          6           0       11.599241   -0.499210    2.042540
     12          6           0       14.439543   -0.279097    4.679589
     13          6           0       13.920158   -0.903598    6.010790
     14          1           0       12.376926   -0.963046    6.201475
     15          7           0       15.220546    2.454379   -0.558499
     16          6           0       14.170777    2.861103    0.092377
     17          6           0       13.749724    4.154614   -0.473159
     18          6           0       14.794886    4.597825   -1.339153
     19          6           0       15.647249    3.381982   -1.468970
     20          6           0       12.440576    4.974891   -0.182155
     21          6           0       15.045850    5.939638   -2.026482
     22          8           0       15.950945    6.143048   -2.858098
     23          6           0       14.055905    6.993520   -1.865860
     24          7           0       17.425970    0.792751   -2.074682
     25          6           0       17.542876    2.030149   -2.702344
     26          6           0       18.720385    1.961720   -3.749741
     27          6           0       19.342546    0.566250   -3.494489
     28          6           0       18.430998   -0.038149   -2.424124
     29          6           0       18.270754    2.279624   -5.176045
     30          6           0       20.859139    0.540934   -3.178060
     31          6           0       21.703755   -0.601249   -3.789451
     32          7           0       16.994705   -1.284083   -0.145204
     33          6           0       17.894543   -1.989831   -0.937610
     34          6           0       18.155115   -3.261856   -0.313098
     35          6           0       17.260115   -3.351926    0.754052
     36          6           0       16.560421   -2.117639    0.851977
     37          6           0       19.123400   -4.206498   -0.687731
     38          6           0       16.810402   -4.176123    1.885622
     39          8           0       17.153805   -5.271092    2.302155
     40          6           0       15.753965   -3.339988    2.679474
     41          6           0       14.481164   -4.165309    2.743231
     42          8           0       13.553718   -4.324747    1.982292
     43          8           0       14.542082   -4.672125    4.009165
     44          6           0       13.306175   -5.262715    4.575930
     45          1           0       12.692774    2.711684    1.574431
     46          1           0       17.016311    4.098156   -2.856866
     47          1           0       19.464989   -1.897980   -2.378610
     48          1           0       13.272471   -1.643766    3.561879
     49          1           0       12.577877    1.027108    3.414799
     50          1           0       10.656647    0.039655    2.132558
     51          1           0       11.351682   -1.441225    2.532463
     52          1           0       11.849074   -0.563094    0.984034
     53          1           0       14.417510    0.809081    4.728567
     54          1           0       15.516689   -0.449403    4.694818
     55          1           0       14.273274   -0.185573    6.751848
     56          1           0       14.408293   -1.878153    5.999559
     57          1           0       12.585013    5.906591    0.364343
     58          1           0       11.780187    4.322579    0.389916
     59          1           0       11.930620    5.364058   -1.063441
     60          1           0       13.870127    7.196196   -0.810774
     61          1           0       13.120182    6.723931   -2.355763
     62          1           0       14.521802    7.916678   -2.209175
     63          1           0       19.474274    2.665390   -3.396435
     64          1           0       19.123926   -0.107600   -4.322653
     65          1           0       17.956023    1.356585   -5.664032
     66          1           0       19.058626    2.658950   -5.826010
     67          1           0       17.330842    2.829179   -5.136460
     68          1           0       21.092379    0.610460   -2.115692
     69          1           0       21.340461    1.463058   -3.506578
     70          1           0       21.780089   -1.333019   -2.985087
     71          1           0       22.690737   -0.163227   -3.941561
     72          1           0       21.212665   -0.998623   -4.677299
     73          1           0       19.004452   -5.251872   -0.403763
     74          1           0       20.084346   -3.819326   -0.347477
     75          1           0       19.098550   -4.224777   -1.776694
     76          1           0       16.129544   -3.115454    3.677615
     77          1           0       13.264134   -4.881973    5.596001
     78          1           0       13.274002   -6.350448    4.633021
     79          1           0       12.435817   -4.897138    4.031649
     80         12           0      -16.043610    0.455605    0.650845
     81          6           0      -15.854433   -2.473283   -1.376842
     82          6           0      -12.789270    0.798544    0.099794
     83          6           0      -16.275804    3.676419    1.647814
     84          6           0      -19.569151    0.243835    0.175550
     85          7           0      -14.538051   -0.725492   -0.364019
     86          6           0      -14.638775   -1.946066   -1.066207
     87          6           0      -13.268405   -2.451877   -1.617198
     88          6           0      -12.300582   -1.371907   -1.055963
     89          6           0      -13.240527   -0.402161   -0.308931
     90          6           0      -11.236518   -2.097906   -0.216077
     91          6           0      -13.125544   -2.627895   -3.190555
     92          6           0      -12.931073   -4.048895   -3.706755
     93          1           0      -11.687254   -4.324617   -4.576100
     94          7           0      -14.754242    1.978564    0.941229
     95          6           0      -13.395726    1.911813    0.632617
     96          6           0      -12.732710    3.073353    1.069521
     97          6           0      -13.665308    3.898676    1.670276
     98          6           0      -14.943136    3.252696    1.448385
     99          6           0      -11.202950    3.430652    0.974369
    100          6           0      -13.300961    5.203496    2.338848
    101          8           0      -12.180082    5.579981    2.512181
    102          6           0      -14.533172    6.030910    2.955880
    103          7           0      -17.671674    1.811325    0.816831
    104          6           0      -17.491265    3.080646    1.294680
    105          6           0      -18.890443    3.814926    1.192516
    106          6           0      -19.947230    2.747291    0.863614
    107          6           0      -19.017548    1.506945    0.577558
    108          6           0      -19.211651    4.727351    2.341992
    109          6           0      -20.679111    3.134174   -0.415496
    110          6           0      -22.049261    2.548492   -0.631478
    111          7           0      -17.477425   -0.969128   -0.171653
    112          6           0      -18.848246   -0.917502   -0.257675
    113          6           0      -19.348643   -2.110416   -0.837903
    114          6           0      -18.223578   -2.855346   -1.263960
    115          6           0      -17.116384   -2.027358   -0.924941
    116          6           0      -20.756822   -2.453464   -1.117376
    117          6           0      -17.682893   -4.044464   -1.936319
    118          8           0      -18.293506   -5.030701   -2.369919
    119          6           0      -16.117490   -3.876238   -2.025000
    120          6           0      -15.489874   -4.839538   -1.160235
    121          8           0      -15.489685   -4.689821    0.084577
    122          8           0      -15.019218   -5.832369   -1.940368
    123          6           0      -14.149528   -6.871340   -1.323768
    124          1           0      -11.711810    0.923743   -0.028872
    125          1           0      -16.309355    4.697504    2.033748
    126          1           0      -20.644525    0.067452    0.110265
    127          1           0      -13.026117   -3.415843   -1.169905
    128          1           0      -11.804248   -0.787520   -1.830125
    129          1           0      -10.666960   -1.327400    0.302757
    130          1           0      -10.533881   -2.719521   -0.770890
    131          1           0      -11.677292   -2.756726    0.532948
    132          1           0      -12.174786   -2.146429   -3.419454
    133          1           0      -13.945689   -2.121732   -3.699847
    134          1           0      -13.830762   -4.316641   -4.261866
    135          1           0      -12.831337   -4.726567   -2.858133
    136          1           0      -11.160199    4.404929    0.487056
    137          1           0      -10.650403    2.704074    0.378857
    138          1           0      -10.647761    3.399312    1.911822
    139          1           0      -14.084471    6.866605    3.492059
    140          1           0      -15.028315    5.293477    3.588092
    141          1           0      -15.095660    6.294399    2.060229
    142          1           0      -18.763544    4.466444    0.327203
    143          1           0      -20.693737    2.540662    1.630449
    144          1           0      -20.294262    4.757049    2.462114
    145          1           0      -18.804908    5.701745    2.070675
    146          1           0      -18.691786    4.486085    3.268421
    147          1           0      -20.101719    2.929680   -1.317572
    148          1           0      -20.788023    4.214018   -0.516164
    149          1           0      -22.446719    2.058799    0.257339
    150          1           0      -21.972831    1.812787   -1.432359
    151          1           0      -22.720499    3.287948   -1.068113
    152          1           0      -21.436572   -1.970512   -0.414665
    153          1           0      -20.816067   -3.537820   -1.020679
    154          1           0      -20.954236   -2.068491   -2.118101
    155          1           0      -15.715976   -3.863829   -3.038290
    156          1           0      -14.442867   -7.738712   -1.916934
    157          1           0      -14.296772   -6.994233   -0.251177
    158          1           0      -13.107000   -6.745924   -1.618125
 ---------------------------------------------------------------------

 SCF Done:  E(RwB97XD) =  -4070.60473640     A.U. after   19 cycles

 Excitation energies and oscillator strengths:

 Excited State   1:      Singlet-A      1.6716 eV  741.72 nm  f=0.3065  <S**2>=0.000
     309 -> 316        0.16099
     311 -> 313        0.62811
     312 -> 314        0.27195
     309 <- 316        0.10283
 This state for optimization and/or second-order correction.
 Total Energy, E(TD-HF/TD-DFT) =  -4070.54330719
 Copying the excited state density for this state as the 1-particle RhoCI density.

 Excited State   2:      Singlet-A      1.6748 eV  740.31 nm  f=0.4614  <S**2>=0.000
     310 -> 315       -0.18066
     311 -> 313       -0.27423
     312 -> 314        0.62244
     310 <- 315       -0.10779

 Excited State   3:      Singlet-A      2.2042 eV  562.50 nm  f=0.1192  <S**2>=0.000
     309 -> 313        0.63455
     311 -> 316       -0.29084

 Excited State   4:      Singlet-A      2.2066 eV  561.87 nm  f=0.0624  <S**2>=0.000
     310 -> 314        0.61960
     312 -> 315        0.32349

 Excited State   5:      Singlet-A      3.2879 eV  377.09 nm  f=0.0022  <S**2>=0.000
     302 -> 313       -0.11735
     308 -> 313        0.66497

 The electronic state is 1-A.
 Alpha  occ. eigenvalues --  -46.95726 -46.94890 -19.31714 -19.29623 -19.24992
 Alpha  occ. eigenvalues --  -19.24728 -19.24601 -19.24318 -19.23788 -19.23744
 Alpha  occ. eigenvalues --  -14.47198 -14.46797 -14.46381 -14.46016 -14.44448
 Alpha  occ. eigenvalues --  -14.44193 -14.43573 -14.43065 -10.43342 -10.43105
 Alpha  occ. eigenvalues --  -10.39509 -10.39508 -10.39420 -10.38848 -10.36588
 Alpha  occ. eigenvalues --  -10.35792 -10.35728 -10.35531 -10.35219 -10.35122
 Alpha  occ. eigenvalues --  -10.34847 -10.34837 -10.34625 -10.34535 -10.34342
 Alpha  occ. eigenvalues --  -10.34060 -10.34007 -10.33850 -10.33719 -10.33667
 Alpha  occ. eigenvalues --  -10.33578 -10.33018 -10.32658 -10.32436 -10.32430
 Alpha  occ. eigenvalues --  -10.32216 -10.32215 -10.31990 -10.31987 -10.31980
 Alpha  occ. eigenvalues --  -10.31944 -10.31848 -10.31822 -10.31664 -10.31657
 Alpha  occ. eigenvalues --  -10.31634 -10.31599 -10.31597 -10.31364 -10.31355
 Alpha  occ. eigenvalues --  -10.31314 -10.31301 -10.31268 -10.31155 -10.31075
 Alpha  occ. eigenvalues --  -10.31009 -10.30988 -10.30783 -10.30584 -10.30343
 Alpha  occ. eigenvalues --  -10.30317 -10.30301 -10.30271 -10.30243 -10.30075
 Alpha  occ. eigenvalues --  -10.29934 -10.29715 -10.29674 -10.29645 -10.29581
 Alpha  occ. eigenvalues --  -10.29485 -10.29282 -10.29108 -10.28990 -10.28874
 Alpha  occ. eigenvalues --  -10.28854  -3.21571  -3.20930  -1.95154  -1.94692
 Alpha  occ. eigenvalues --   -1.94528  -1.94496  -1.94034  -1.93922  -1.18816
 Alpha  occ. eigenvalues --   -1.18307  -1.14257  -1.11842  -1.11596  -1.10891
 Alpha  occ. eigenvalues --   -1.09985  -1.09567  -1.07203  -1.06171  -1.05962
 Alpha  occ. eigenvalues --   -1.05259  -1.05064  -1.04865  -1.04107  -1.03779
 Alpha  occ. eigenvalues --   -0.94761  -0.94179  -0.91533  -0.91226  -0.90779
 Alpha  occ. eigenvalues --   -0.90700  -0.90381  -0.89893  -0.89503  -0.89306
 Alpha  occ. eigenvalues --   -0.89089  -0.88822  -0.88652  -0.88439  -0.86735
 Alpha  occ. eigenvalues --   -0.86153  -0.86141  -0.85498  -0.85201  -0.84627
 Alpha  occ. eigenvalues --   -0.84420  -0.83852  -0.83461  -0.83123  -0.82582
 Alpha  occ. eigenvalues --   -0.82282  -0.80362  -0.79667  -0.79387  -0.79354
 Alpha  occ. eigenvalues --   -0.78967  -0.78630  -0.78181  -0.77802  -0.77118
 Alpha  occ. eigenvalues --   -0.77064  -0.74746  -0.74510  -0.73805  -0.73726
 Alpha  occ. eigenvalues --   -0.71262  -0.70876  -0.70681  -0.70534  -0.69730
 Alpha  occ. eigenvalues --   -0.69709  -0.69340  -0.69256  -0.67670  -0.67513
 Alpha  occ. eigenvalues --   -0.67443  -0.67300  -0.67022  -0.66982  -0.66577
 Alpha  occ. eigenvalues --   -0.66341  -0.64229  -0.63954  -0.62501  -0.62205
 Alpha  occ. eigenvalues --   -0.61627  -0.61574  -0.61403  -0.61245  -0.60473
 Alpha  occ. eigenvalues --   -0.60305  -0.60211  -0.59911  -0.59511  -0.59163
 Alpha  occ. eigenvalues --   -0.58397  -0.58174  -0.58007  -0.57873  -0.57150
 Alpha  occ. eigenvalues --   -0.56983  -0.56635  -0.56420  -0.56217  -0.55785
 Alpha  occ. eigenvalues --   -0.55655  -0.55523  -0.55197  -0.55150  -0.55116
 Alpha  occ. eigenvalues --   -0.54892  -0.54841  -0.54447  -0.54378  -0.54348
 Alpha  occ. eigenvalues --   -0.54050  -0.53648  -0.53619  -0.53518  -0.53406
 Alpha  occ. eigenvalues --   -0.53167  -0.53159  -0.52732  -0.52469  -0.52362
 Alpha  occ. eigenvalues --   -0.52286  -0.52096  -0.51952  -0.51912  -0.51764
 Alpha  occ. eigenvalues --   -0.51609  -0.51344  -0.51192  -0.50947  -0.50899
 Alpha  occ. eigenvalues --   -0.50749  -0.50404  -0.50180  -0.50116  -0.49985
 Alpha  occ. eigenvalues --   -0.49585  -0.49480  -0.49432  -0.49327  -0.49043
 Alpha  occ. eigenvalues --   -0.48910  -0.48870  -0.48588  -0.48384  -0.48256
 Alpha  occ. eigenvalues --   -0.48206  -0.48046  -0.47873  -0.47591  -0.47480
 Alpha  occ. eigenvalues --   -0.47258  -0.47067  -0.46983  -0.46900  -0.46832
 Alpha  occ. eigenvalues --   -0.46698  -0.46621  -0.46317  -0.46256  -0.46088
 Alpha  occ. eigenvalues --   -0.46015  -0.45781  -0.45767  -0.45631  -0.45453
 Alpha  occ. eigenvalues --   -0.45264  -0.45006  -0.44961  -0.44906  -0.44730
 Alpha  occ. eigenvalues --   -0.44701  -0.44532  -0.44243  -0.44242  -0.44103
 Alpha  occ. eigenvalues --   -0.43935  -0.43847  -0.43592  -0.43568  -0.43518
 Alpha  occ. eigenvalues --   -0.43217  -0.42813  -0.42523  -0.42453  -0.42139
 Alpha  occ. eigenvalues --   -0.42123  -0.42014  -0.41778  -0.41496  -0.41106
 Alpha  occ. eigenvalues --   -0.40684  -0.40403  -0.40140  -0.39705  -0.39592
 Alpha  occ. eigenvalues --   -0.39343  -0.39259  -0.38785  -0.38589  -0.38490
 Alpha  occ. eigenvalues --   -0.37947  -0.37850  -0.36666  -0.36246  -0.36160
 Alpha  occ. eigenvalues --   -0.35930  -0.35328  -0.35212  -0.34040  -0.33699
 Alpha  occ. eigenvalues --   -0.33378  -0.33005  -0.32753  -0.32745  -0.32680
 Alpha  occ. eigenvalues --   -0.32450  -0.31437  -0.31079  -0.26227  -0.25905
 Alpha  occ. eigenvalues --   -0.23082  -0.22790
 Alpha virt. eigenvalues --   -0.07111  -0.06636  -0.00160   0.00209   0.01912
 Alpha virt. eigenvalues --    0.02639   0.04270   0.04770   0.05006   0.05428
 Alpha virt. eigenvalues --    0.06747   0.07213   0.07838   0.08027   0.08087

 Mulliken charges:
               1
     1  Mg   0.942454
     2  C   -0.051999
     3  C   -0.101224
     4  C   -0.067712
     5  C   -0.090795
     6  N   -0.320500
     7  C    0.052433
     8  C   -0.094520
     9  C   -0.080739
    10  C   -0.005948
    11  C    0.041923
    12  C   -0.020880
    13  C   -0.113927
    14  H    0.029582
    15  N   -0.428062
    16  C    0.194941
    17  C   -0.167092
    18  C   -0.071149
    19  C    0.113827
    20  C    0.058510
    21  C    0.067005
    22  O   -0.250749
    23  C   -0.004382
    24  N   -0.356324
    25  C    0.033256
    26  C   -0.062121
    27  C   -0.056358
    28  C    0.068410
    29  C    0.048391
    30  C   -0.039085
    31  C   -0.040919
    32  N   -0.439537
    33  C    0.135267
    34  C   -0.196745
    35  C   -0.015740
    36  C    0.167518
    37  C    0.061218
    38  C    0.109488
    39  O   -0.199668
    40  C   -0.077081
    41  C    0.279475
    42  O   -0.226498
    43  O   -0.373827
    44  C    0.131572
    45  H   -0.012468
    46  H    0.026211
    47  H   -0.012870
    48  H    0.024486
    49  H    0.020112
    50  H    0.029323
    51  H    0.045890
    52  H    0.057404
    53  H    0.021595
    54  H    0.024543
    55  H    0.065245
    56  H    0.071815
    57  H    0.043787
    58  H    0.040998
    59  H    0.041552
    60  H    0.037787
    61  H    0.075221
    62  H    0.054645
    63  H    0.039229
    64  H    0.033346
    65  H    0.015951
    66  H    0.046721
    67  H    0.047928
    68  H    0.025326
    69  H    0.022990
    70  H    0.043256
    71  H    0.039871
    72  H    0.045436
    73  H    0.060010
    74  H    0.054192
    75  H    0.037939
    76  H    0.081402
    77  H    0.047573
    78  H    0.063800
    79  H    0.058070
    80  Mg   0.984733
    81  C   -0.043383
    82  C   -0.132052
    83  C   -0.102546
    84  C   -0.063489
    85  N   -0.377705
    86  C    0.011416
    87  C   -0.047407
    88  C   -0.123557
    89  C    0.121264
    90  C    0.014126
    91  C    0.012316
    92  C   -0.135777
    93  H    0.034064
    94  N   -0.504947
    95  C    0.212587
    96  C   -0.172229
    97  C   -0.054864
    98  C    0.150085
    99  C    0.105977
   100  C    0.008126
   101  O   -0.195396
   102  C   -0.027679
   103  N   -0.393448
   104  C    0.110630
   105  C   -0.081202
   106  C   -0.082600
   107  C    0.108021
   108  C    0.029361
   109  C   -0.045276
   110  C   -0.025562
   111  N   -0.385880
   112  C    0.093658
   113  C   -0.223045
   114  C    0.000668
   115  C    0.116365
   116  C    0.079609
   117  C    0.129009
   118  O   -0.222305
   119  C   -0.072417
   120  C    0.292438
   121  O   -0.279987
   122  O   -0.349444
   123  C    0.124666
   124  H   -0.016801
   125  H   -0.040352
   126  H   -0.012789
   127  H    0.028381
   128  H    0.045419
   129  H    0.027599
   130  H    0.042855
   131  H    0.043030
   132  H    0.041060
   133  H    0.048446
   134  H    0.069505
   135  H    0.032988
   136  H    0.061703
   137  H    0.011466
   138  H    0.062540
   139  H    0.058066
   140  H    0.066175
   141  H    0.068496
   142  H    0.046802
   143  H    0.038424
   144  H    0.041338
   145  H    0.031625
   146  H    0.038528
   147  H    0.030403
   148  H    0.021514
   149  H    0.036074
   150  H    0.030060
   151  H    0.032970
   152  H    0.030649
   153  H    0.066850
   154  H    0.060841
   155  H    0.055796
   156  H    0.061804
   157  H    0.085141
   158  H    0.056475
 Sum of Mulliken charges =  -0.00000

 Dipole moment (field-independent basis, Debye):
    X=              0.4946    Y=              5.6267    Z=              1.7633  Tot=              5.9172
 Quadrupole moment (field-independent basis, Debye-Ang):
   XX=           -515.9419   YY=           -539.4385   ZZ=           -501.2613
   XY=            -13.9502   XZ=             -2.0681   YZ=              7.1426

 Normal termination of Gaussian 16 at Sun Sep 19 13:07:55 2021.
