 Gaussian 16, Revision A.03,
 Gaussian 16:  ES64L-G16RevA.03 25-Dec-2016

 --------------------------------
 #p wB97XD/Def2SVP td=(nstates=5)
 --------------------------------

 --------------------------------
 TDDFT excited states in gaussian
 --------------------------------
 Symbolic Z-matrix:
 Charge =  0 Multiplicity = 1

                         Standard orientation:
 ---------------------------------------------------------------------
 Center     Atomic      Atomic             Coordinates (Angstroms)
 Number     Number       Type             X           Y           Z
 ---------------------------------------------------------------------
      1         12           0      -13.335737   -0.609731    0.385403
      2          6           0      -13.515560    2.739392   -0.807542
      3          6           0      -11.914418    0.587398    3.278381
      4          6           0      -13.191692   -3.782380    1.297780
      5          6           0      -14.352777   -1.757105   -2.865517
      6          7           0      -12.691993    1.488546    1.158503
      7          6           0      -12.990250    2.663662    0.493329
      8          6           0      -12.540437    3.826548    1.442766
      9          6           0      -11.967256    3.120313    2.784289
     10          6           0      -12.188177    1.659101    2.380133
     11          6           0      -10.533916    3.512455    3.199315
     12          6           0      -13.578887    4.997449    1.690558
     13          6           0      -13.111751    6.372429    1.310475
     14          1           0      -11.665959    6.793713    1.313139
     15          7           0      -12.734917   -1.505349    2.188004
     16          6           0      -12.176591   -0.834809    3.230330
     17          6           0      -12.062945   -1.793395    4.299325
     18          6           0      -12.321385   -3.060226    3.732783
     19          6           0      -12.759056   -2.868392    2.311874
     20          6           0      -11.552137   -1.349110    5.680320
     21          6           0      -12.078099   -4.398751    4.361544
     22          8           0      -12.234007   -5.463862    3.718520
     23          6           0      -11.586044   -4.467124    5.759631
     24          7           0      -13.677844   -2.502526   -0.727451
     25          6           0      -13.623985   -3.622262   -0.094265
     26          6           0      -14.059586   -4.951407   -0.913285
     27          6           0      -14.407783   -4.278430   -2.249703
     28          6           0      -14.152969   -2.817359   -1.970915
     29          6           0      -12.853907   -5.959990   -0.960596
     30          6           0      -15.852959   -4.521808   -2.810516
     31          6           0      -17.010045   -3.802868   -2.077028
     32          7           0      -13.696173    0.260021   -1.429704
     33          6           0      -14.071511   -0.357144   -2.646193
     34          6           0      -14.356535    0.705935   -3.619512
     35          6           0      -14.159704    1.930943   -2.937991
     36          6           0      -13.797288    1.608122   -1.586637
     37          6           0      -14.825583    0.484512   -5.088720
     38          6           0      -14.236237    3.282797   -3.120117
     39          8           0      -14.479714    3.963208   -4.095795
     40          6           0      -13.886511    3.924111   -1.748226
     41          6           0      -12.817843    4.875631   -1.947437
     42          8           0      -11.612981    4.601291   -1.912513
     43          8           0      -13.344747    6.085366   -2.415157
     44          6           0      -12.322060    7.075210   -2.835164
     45          1           0      -11.242708    0.800572    4.112996
     46          1           0      -12.983303   -4.822424    1.557588
     47          1           0      -14.668415   -2.051212   -3.868629
     48          1           0      -11.799689    4.279950    0.785386
     49          1           0      -12.567360    3.443775    3.633625
     50          1           0      -10.518921    3.890740    4.222259
     51          1           0      -10.014954    4.225810    2.559301
     52          1           0       -9.982313    2.573962    3.143903
     53          1           0      -13.889022    5.005864    2.735657
     54          1           0      -14.422820    4.773206    1.038138
     55          1           0      -13.410419    7.032215    2.125856
     56          1           0      -13.562105    6.622764    0.350598
     57          1           0      -11.608517   -0.268180    5.810860
     58          1           0      -10.521493   -1.675847    5.812490
     59          1           0      -12.212928   -1.850720    6.386587
     60          1           0      -12.317099   -3.945144    6.377072
     61          1           0      -10.638091   -3.940020    5.874171
     62          1           0      -11.403436   -5.500206    6.052680
     63          1           0      -14.940379   -5.418673   -0.472176
     64          1           0      -13.631451   -4.501461   -2.981954
     65          1           0      -11.933192   -5.377658   -0.926012
     66          1           0      -12.880145   -6.473656   -1.922264
     67          1           0      -12.792818   -6.721888   -0.183071
     68          1           0      -16.017317   -5.589043   -2.955767
     69          1           0      -15.858525   -4.187727   -3.847570
     70          1           0      -16.890863   -3.647530   -1.005278
     71          1           0      -17.938032   -4.321359   -2.320727
     72          1           0      -17.095893   -2.835784   -2.572242
     73          1           0      -15.699461    1.079614   -5.354047
     74          1           0      -15.013806   -0.561449   -5.328237
     75          1           0      -14.127563    0.984131   -5.760943
     76          1           0      -14.819055    4.430951   -1.502266
     77          1           0      -11.819605    6.744857   -3.743931
     78          1           0      -11.521660    7.231453   -2.112853
     79          1           0      -12.821184    8.044318   -2.845133
     80         12           0       12.774518   -0.731085   -0.491482
     81          6           0       14.933952    1.979355    0.409489
     82          6           0       10.090857    1.098986    0.623287
     83          6           0       10.727076   -3.390230   -0.871935
     84          6           0       15.655616   -2.759298   -0.655751
     85          7           0       12.570555    1.299304    0.393218
     86          6           0       13.551455    2.278449    0.616117
     87          6           0       12.886515    3.540843    1.101820
     88          6           0       11.484880    3.007619    1.620631
     89          6           0       11.379944    1.650331    0.864986
     90          6           0       11.582306    2.830529    3.177874
     91          6           0       12.864314    4.702733    0.046901
     92          6           0       13.215480    5.958565    0.670486
     93          1           0       13.574624    7.149332   -0.353142
     94          7           0       10.659976   -0.954714   -0.306203
     95          6           0        9.744667   -0.079558    0.126934
     96          6           0        8.439579   -0.645060   -0.027218
     97          6           0        8.580776   -1.953100   -0.440701
     98          6           0       10.088745   -2.174882   -0.627190
     99          6           0        7.150365    0.097233    0.448210
    100          6           0        7.488686   -2.986967   -0.784012
    101          8           0        7.817420   -4.102665   -1.098833
    102          6           0        6.031568   -2.590245   -0.817413
    103          7           0       13.172496   -2.834781   -0.457703
    104          6           0       12.128548   -3.697719   -0.772526
    105          6           0       12.649875   -5.048467   -1.141478
    106          6           0       14.242998   -4.848809   -1.095902
    107          6           0       14.388903   -3.379015   -0.779342
    108          6           0       12.105406   -6.141366   -0.285093
    109          6           0       15.092041   -5.288501   -2.411514
    110          6           0       16.108197   -6.350694   -2.261462
    111          7           0       14.885154   -0.497088   -0.246762
    112          6           0       15.888940   -1.433731   -0.348489
    113          6           0       17.221039   -0.710757   -0.159653
    114          6           0       16.901961    0.649312    0.026449
    115          6           0       15.464696    0.718290    0.017594
    116          6           0       18.592203   -1.400275   -0.156675
    117          6           0       17.495701    1.906678    0.366999
    118          8           0       18.698406    2.224140    0.506728
    119          6           0       16.254335    2.790534    0.798379
    120          6           0       16.480213    4.176014    0.121821
    121          8           0       15.868574    4.483816   -0.917602
    122          8           0       17.317068    4.926939    0.879154
    123          6           0       17.679276    6.167354    0.110861
    124          1           0        9.218638    1.741904    0.761416
    125          1           0       10.084373   -4.261581   -1.018473
    126          1           0       16.606451   -3.280762   -0.782956
    127          1           0       13.437781    3.839516    1.993161
    128          1           0       10.678953    3.705405    1.396093
    129          1           0       12.170542    1.965302    3.482579
    130          1           0       10.574613    2.794006    3.589599
    131          1           0       12.046539    3.720923    3.602523
    132          1           0       11.818088    4.846471   -0.224062
    133          1           0       13.449193    4.460456   -0.840726
    134          1           0       14.161499    5.880421    1.206519
    135          1           0       12.378320    6.253368    1.303703
    136          1           0        6.531836    0.105363   -0.449217
    137          1           0        7.303002    1.131285    0.756935
    138          1           0        6.713368   -0.427459    1.297714
    139          1           0        5.401566   -3.462053   -0.994257
    140          1           0        6.109348   -1.915484   -1.669853
    141          1           0        5.793184   -2.099069    0.125952
    142          1           0       12.313648   -5.156500   -2.172851
    143          1           0       14.606812   -5.456664   -0.267873
    144          1           0       11.445182   -6.699238   -0.947950
    145          1           0       11.449588   -5.776889    0.505431
    146          1           0       12.848690   -6.788398    0.181281
    147          1           0       15.647157   -4.377228   -2.633899
    148          1           0       14.381627   -5.465380   -3.217955
    149          1           0       17.108707   -5.970881   -2.466763
    150          1           0       15.795667   -6.940344   -3.122608
    151          1           0       15.982042   -6.943255   -1.354313
    152          1           0       18.810467   -1.612811    0.889288
    153          1           0       19.378169   -0.769507   -0.571885
    154          1           0       18.542809   -2.288176   -0.787031
    155          1           0       16.352372    2.836789    1.882115
    156          1           0       18.379531    6.010953   -0.709514
    157          1           0       18.074386    6.981071    0.718148
    158          1           0       16.734018    6.565626   -0.258427
 ---------------------------------------------------------------------

 SCF Done:  E(RwB97XD) =  -4070.57687166     A.U. after   19 cycles

 Excitation energies and oscillator strengths:

 Excited State   1:      Singlet-A      1.6771 eV  739.28 nm  f=0.3600  <S**2>=0.000
     309 -> 315        0.19180
     312 -> 314        0.67994
     309 <- 315        0.11541
 This state for optimization and/or second-order correction.
 Total Energy, E(TD-HF/TD-DFT) =  -4070.51523989
 Copying the excited state density for this state as the 1-particle RhoCI density.

 Excited State   2:      Singlet-A      1.7175 eV  721.89 nm  f=0.3684  <S**2>=0.000
     310 -> 316        0.19145
     311 -> 313        0.67973
     310 <- 316        0.11529

 Excited State   3:      Singlet-A      2.1592 eV  574.22 nm  f=0.1050  <S**2>=0.000
     310 -> 313        0.63944
     311 -> 316       -0.28268

 Excited State   4:      Singlet-A      2.2165 eV  559.37 nm  f=0.0063  <S**2>=0.000
     309 -> 314        0.55053
     312 -> 315       -0.43366

 Excited State   5:      Singlet-A      3.5494 eV  349.31 nm  f=0.0000  <S**2>=0.000
     312 -> 313        0.70707

 The electronic state is 1-A.
 Alpha  occ. eigenvalues --  -46.96232 -46.95744 -19.31343 -19.29517 -19.24680
 Alpha  occ. eigenvalues --  -19.24508 -19.24253 -19.23958 -19.23754 -19.22572
 Alpha  occ. eigenvalues --  -14.47345 -14.46857 -14.46537 -14.46459 -14.44458
 Alpha  occ. eigenvalues --  -14.44315 -14.43956 -14.43701 -10.43546 -10.42482
 Alpha  occ. eigenvalues --  -10.39638 -10.39169 -10.38874 -10.37281 -10.36065
 Alpha  occ. eigenvalues --  -10.35893 -10.35666 -10.35423 -10.35377 -10.35329
 Alpha  occ. eigenvalues --  -10.35257 -10.35185 -10.35134 -10.34918 -10.34571
 Alpha  occ. eigenvalues --  -10.34416 -10.34228 -10.33877 -10.33683 -10.33098
 Alpha  occ. eigenvalues --  -10.33030 -10.32986 -10.32958 -10.32946 -10.32794
 Alpha  occ. eigenvalues --  -10.32752 -10.32577 -10.32525 -10.32262 -10.32203
 Alpha  occ. eigenvalues --  -10.32198 -10.32187 -10.32156 -10.32145 -10.32052
 Alpha  occ. eigenvalues --  -10.32025 -10.32015 -10.31987 -10.31943 -10.31756
 Alpha  occ. eigenvalues --  -10.31553 -10.31515 -10.31412 -10.31372 -10.31268
 Alpha  occ. eigenvalues --  -10.31231 -10.31218 -10.31017 -10.30803 -10.30591
 Alpha  occ. eigenvalues --  -10.30478 -10.30359 -10.30345 -10.30327 -10.30289
 Alpha  occ. eigenvalues --  -10.30104 -10.29969 -10.29871 -10.29765 -10.29759
 Alpha  occ. eigenvalues --  -10.29739 -10.29197 -10.28987 -10.28898 -10.28790
 Alpha  occ. eigenvalues --  -10.27908  -3.22037  -3.21547  -1.95635  -1.95189
 Alpha  occ. eigenvalues --   -1.95127  -1.94958  -1.94652  -1.94513  -1.18188
 Alpha  occ. eigenvalues --   -1.16527  -1.13957  -1.11478  -1.10812  -1.10024
 Alpha  occ. eigenvalues --   -1.09279  -1.08528  -1.08204  -1.06105  -1.05852
 Alpha  occ. eigenvalues --   -1.05151  -1.05042  -1.04660  -1.03752  -1.03401
 Alpha  occ. eigenvalues --   -0.94295  -0.93140  -0.91667  -0.90831  -0.90574
 Alpha  occ. eigenvalues --   -0.90351  -0.90017  -0.89750  -0.89468  -0.89311
 Alpha  occ. eigenvalues --   -0.89134  -0.88781  -0.87482  -0.87353  -0.86300
 Alpha  occ. eigenvalues --   -0.86259  -0.85641  -0.85295  -0.84523  -0.84516
 Alpha  occ. eigenvalues --   -0.84438  -0.84270  -0.82672  -0.82604  -0.82354
 Alpha  occ. eigenvalues --   -0.82106  -0.80410  -0.80181  -0.79538  -0.79440
 Alpha  occ. eigenvalues --   -0.78422  -0.78418  -0.77693  -0.77360  -0.77020
 Alpha  occ. eigenvalues --   -0.76853  -0.74570  -0.74126  -0.73615  -0.73387
 Alpha  occ. eigenvalues --   -0.72421  -0.71100  -0.70774  -0.69886  -0.69756
 Alpha  occ. eigenvalues --   -0.69385  -0.69012  -0.68290  -0.67319  -0.66989
 Alpha  occ. eigenvalues --   -0.66964  -0.66865  -0.66664  -0.66403  -0.66288
 Alpha  occ. eigenvalues --   -0.66260  -0.64013  -0.63458  -0.62346  -0.61927
 Alpha  occ. eigenvalues --   -0.61561  -0.61045  -0.60681  -0.60407  -0.60187
 Alpha  occ. eigenvalues --   -0.60172  -0.59948  -0.59591  -0.59357  -0.59004
 Alpha  occ. eigenvalues --   -0.58288  -0.58062  -0.57967  -0.57423  -0.57277
 Alpha  occ. eigenvalues --   -0.57009  -0.56983  -0.56228  -0.55925  -0.55879
 Alpha  occ. eigenvalues --   -0.55557  -0.55449  -0.55298  -0.55013  -0.54869
 Alpha  occ. eigenvalues --   -0.54845  -0.54590  -0.54564  -0.54523  -0.54367
 Alpha  occ. eigenvalues --   -0.54048  -0.53825  -0.53537  -0.53302  -0.53216
 Alpha  occ. eigenvalues --   -0.52788  -0.52525  -0.52458  -0.52278  -0.52141
 Alpha  occ. eigenvalues --   -0.52047  -0.51814  -0.51548  -0.51439  -0.51261
 Alpha  occ. eigenvalues --   -0.51205  -0.51028  -0.51019  -0.50863  -0.50848
 Alpha  occ. eigenvalues --   -0.50591  -0.50529  -0.50129  -0.50040  -0.49952
 Alpha  occ. eigenvalues --   -0.49926  -0.49753  -0.49505  -0.49330  -0.49305
 Alpha  occ. eigenvalues --   -0.48720  -0.48618  -0.48512  -0.48502  -0.48436
 Alpha  occ. eigenvalues --   -0.48167  -0.48118  -0.47972  -0.47802  -0.47731
 Alpha  occ. eigenvalues --   -0.47499  -0.47263  -0.46907  -0.46561  -0.46498
 Alpha  occ. eigenvalues --   -0.46424  -0.46260  -0.46189  -0.45990  -0.45804
 Alpha  occ. eigenvalues --   -0.45731  -0.45710  -0.45472  -0.45366  -0.45208
 Alpha  occ. eigenvalues --   -0.45166  -0.44965  -0.44747  -0.44747  -0.44449
 Alpha  occ. eigenvalues --   -0.44338  -0.44249  -0.43931  -0.43860  -0.43812
 Alpha  occ. eigenvalues --   -0.43807  -0.43622  -0.43449  -0.43368  -0.43260
 Alpha  occ. eigenvalues --   -0.43093  -0.43000  -0.42663  -0.42567  -0.42089
 Alpha  occ. eigenvalues --   -0.42057  -0.41761  -0.41680  -0.41082  -0.40735
 Alpha  occ. eigenvalues --   -0.40422  -0.39749  -0.39200  -0.39144  -0.38960
 Alpha  occ. eigenvalues --   -0.38953  -0.38724  -0.38508  -0.38107  -0.38050
 Alpha  occ. eigenvalues --   -0.37533  -0.36750  -0.36017  -0.35984  -0.35800
 Alpha  occ. eigenvalues --   -0.35627  -0.35386  -0.35170  -0.33911  -0.33614
 Alpha  occ. eigenvalues --   -0.33352  -0.33266  -0.32611  -0.32591  -0.32212
 Alpha  occ. eigenvalues --   -0.32007  -0.31730  -0.31439  -0.26179  -0.25814
 Alpha  occ. eigenvalues --   -0.23140  -0.21991
 Alpha virt. eigenvalues --   -0.06961  -0.05868  -0.00583   0.00056   0.02104
 Alpha virt. eigenvalues --    0.02125   0.04359   0.04493   0.05096   0.05622
 Alpha virt. eigenvalues --    0.07154   0.07291   0.07796   0.08037   0.08462

 Mulliken charges:
               1
     1  Mg   0.949094
     2  C    0.012701
     3  C   -0.090555
     4  C   -0.048165
     5  C   -0.087640
     6  N   -0.314544
     7  C   -0.013238
     8  C   -0.056074
     9  C   -0.105023
    10  C    0.077616
    11  C    0.018461
    12  C    0.000192
    13  C   -0.139632
    14  H    0.031430
    15  N   -0.486227
    16  C    0.140236
    17  C   -0.180279
    18  C   -0.072239
    19  C    0.161081
    20  C    0.072744
    21  C    0.036387
    22  O   -0.261831
    23  C    0.006634
    24  N   -0.272071
    25  C    0.015806
    26  C   -0.109944
    27  C    0.029165
    28  C   -0.040209
    29  C   -0.003644
    30  C   -0.032836
    31  C   -0.036106
    32  N   -0.476732
    33  C    0.148372
    34  C   -0.175981
    35  C    0.006739
    36  C    0.138765
    37  C    0.087100
    38  C    0.031630
    39  O   -0.201356
    40  C   -0.063214
    41  C    0.267156
    42  O   -0.263464
    43  O   -0.378977
    44  C    0.150054
    45  H    0.007695
    46  H    0.029059
    47  H   -0.008987
    48  H    0.057142
    49  H    0.044979
    50  H    0.035048
    51  H    0.051648
    52  H    0.033279
    53  H    0.031667
    54  H    0.036363
    55  H    0.048544
    56  H    0.062327
    57  H    0.047838
    58  H    0.064031
    59  H    0.046423
    60  H    0.050975
    61  H    0.050210
    62  H    0.058573
    63  H    0.052487
    64  H    0.036466
    65  H    0.045422
    66  H    0.037134
    67  H    0.064111
    68  H    0.030990
    69  H    0.025129
    70  H    0.049776
    71  H    0.041333
    72  H    0.038632
    73  H    0.043861
    74  H    0.031613
    75  H    0.051154
    76  H    0.073629
    77  H    0.064629
    78  H    0.041596
    79  H    0.053842
    80  Mg   0.943104
    81  C    0.041762
    82  C   -0.129128
    83  C   -0.076178
    84  C   -0.077302
    85  N   -0.336065
    86  C   -0.017829
    87  C   -0.079372
    88  C   -0.155311
    89  C    0.135867
    90  C    0.022058
    91  C    0.093358
    92  C   -0.136477
    93  H    0.009107
    94  N   -0.446429
    95  C    0.165818
    96  C   -0.153390
    97  C   -0.107877
    98  C    0.165138
    99  C    0.056921
   100  C    0.032457
   101  O   -0.217399
   102  C    0.006327
   103  N   -0.392571
   104  C    0.060520
   105  C   -0.103401
   106  C   -0.058541
   107  C    0.088869
   108  C    0.029687
   109  C   -0.034559
   110  C   -0.028623
   111  N   -0.416728
   112  C    0.095722
   113  C   -0.195821
   114  C   -0.011678
   115  C    0.105065
   116  C    0.075070
   117  C    0.122533
   118  O   -0.234952
   119  C   -0.139134
   120  C    0.281324
   121  O   -0.275118
   122  O   -0.340484
   123  C    0.131706
   124  H   -0.010019
   125  H    0.029211
   126  H   -0.008310
   127  H    0.017136
   128  H    0.025423
   129  H    0.050695
   130  H    0.035059
   131  H    0.035594
   132  H    0.016251
   133  H    0.073664
   134  H    0.051789
   135  H    0.043220
   136  H    0.051836
   137  H    0.037583
   138  H    0.072472
   139  H    0.062167
   140  H    0.066402
   141  H    0.055462
   142  H    0.043100
   143  H    0.031443
   144  H    0.039748
   145  H    0.045816
   146  H    0.038518
   147  H    0.026825
   148  H    0.028227
   149  H    0.044927
   150  H    0.030327
   151  H    0.041808
   152  H    0.063048
   153  H    0.057590
   154  H    0.033403
   155  H    0.089964
   156  H    0.070072
   157  H    0.052392
   158  H    0.059111
 Sum of Mulliken charges =  -0.00000

 Dipole moment (field-independent basis, Debye):
    X=             -5.2988    Y=             -1.9240    Z=              5.0871  Tot=              7.5933
 Quadrupole moment (field-independent basis, Debye-Ang):
   XX=           -610.6967   YY=           -496.7871   ZZ=           -492.0537
   XY=              2.4943   XZ=            -49.4781   YZ=             41.0227

 Normal termination of Gaussian 16 at Sun Sep 19 05:06:35 2021.
