 Gaussian 16, Revision A.03,
 Gaussian 16:  ES64L-G16RevA.03 25-Dec-2016

 --------------------------------
 #p wB97XD/Def2SVP td=(nstates=5)
 --------------------------------

 --------------------------------
 TDDFT excited states in gaussian
 --------------------------------
 Symbolic Z-matrix:
 Charge =  0 Multiplicity = 1

                         Standard orientation:
 ---------------------------------------------------------------------
 Center     Atomic      Atomic             Coordinates (Angstroms)
 Number     Number       Type             X           Y           Z
 ---------------------------------------------------------------------
      1         12           0       27.739964    0.397508    0.032000
      2          6           0       24.333920    0.871790   -0.691963
      3          6           0       27.139518    1.506916    3.230566
      4          6           0       30.727755   -0.780602    0.826172
      5          6           0       28.166959   -0.972477   -3.217410
      6          7           0       25.913353    0.855218    1.186858
      7          6           0       24.592590    0.999034    0.688856
      8          6           0       23.709825    1.732701    1.612156
      9          6           0       24.674026    2.017861    2.843335
     10          6           0       26.015010    1.459913    2.393293
     11          6           0       24.643238    3.499103    3.291658
     12          6           0       22.547531    0.941125    2.129268
     13          6           0       22.799031   -0.545594    2.421803
     14          1           0       22.093866   -1.276945    3.629718
     15          7           0       28.847973    0.383060    1.789704
     16          6           0       28.459546    0.994491    2.925018
     17          6           0       29.553662    0.951188    3.862566
     18          6           0       30.641921    0.359282    3.175261
     19          6           0       30.127053   -0.026001    1.851434
     20          6           0       29.510124    1.417781    5.292833
     21          6           0       32.051183    0.167203    3.734806
     22          8           0       32.330915    0.519603    4.863978
     23          6           0       33.201940   -0.541141    3.083545
     24          7           0       29.128939   -0.931289   -0.942728
     25          6           0       30.353370   -1.235314   -0.410098
     26          6           0       31.307180   -1.854628   -1.483964
     27          6           0       30.322879   -2.165864   -2.651834
     28          6           0       29.144194   -1.297984   -2.268833
     29          6           0       32.455129   -0.934386   -1.964673
     30          6           0       29.730398   -3.652973   -2.695197
     31          6           0       29.735771   -4.339105   -4.013090
     32          7           0       26.618028    0.106134   -1.625408
     33          6           0       26.976705   -0.263607   -2.862284
     34          6           0       25.921030    0.161084   -3.857304
     35          6           0       24.890538    0.661774   -2.999494
     36          6           0       25.304469    0.470600   -1.650870
     37          6           0       25.892653    0.055955   -5.375332
     38          6           0       23.527998    1.110173   -3.011053
     39          8           0       22.750359    1.266737   -3.939121
     40          6           0       23.127207    1.293530   -1.491701
     41          6           0       22.067096    0.255415   -1.187396
     42          8           0       22.199201   -0.922630   -1.134967
     43          8           0       20.904936    0.920808   -0.859739
     44          6           0       19.878928    0.057499   -0.266164
     45          1           0       26.986991    2.040405    4.170886
     46          1           0       31.776285   -1.019025    1.012237
     47          1           0       28.417721   -1.282705   -4.233926
     48          1           0       23.341198    2.613075    1.085710
     49          1           0       24.519918    1.396874    3.725731
     50          1           0       24.517970    3.375296    4.367482
     51          1           0       23.791678    3.963440    2.794198
     52          1           0       25.586768    4.017135    3.118763
     53          1           0       21.622825    1.098784    1.573509
     54          1           0       22.159296    1.276415    3.091266
     55          1           0       23.881780   -0.629333    2.521265
     56          1           0       22.541746   -1.008871    1.469129
     57          1           0       29.958907    0.680319    5.959124
     58          1           0       28.486990    1.674786    5.566872
     59          1           0       30.121505    2.320492    5.293161
     60          1           0       33.070953   -1.612948    2.938156
     61          1           0       33.953926   -0.480538    3.870419
     62          1           0       33.644548    0.023325    2.262132
     63          1           0       31.757177   -2.747670   -1.050472
     64          1           0       30.708189   -1.880681   -3.631107
     65          1           0       32.270881   -0.666305   -3.004847
     66          1           0       33.432587   -1.324752   -1.681790
     67          1           0       32.402589    0.001002   -1.408697
     68          1           0       28.724394   -3.685780   -2.277525
     69          1           0       30.370700   -4.205195   -2.007115
     70          1           0       30.259937   -5.294390   -3.994294
     71          1           0       30.144988   -3.730190   -4.819562
     72          1           0       28.728546   -4.599685   -4.337072
     73          1           0       25.015678   -0.541310   -5.624969
     74          1           0       26.877648   -0.278660   -5.703112
     75          1           0       25.664510    1.060802   -5.730535
     76          1           0       22.778662    2.302953   -1.274489
     77          1           0       20.297110   -0.782805    0.287843
     78          1           0       19.318261   -0.298123   -1.130678
     79          1           0       19.198395    0.727332    0.258779
     80         12           0      -26.678848   -0.784320    0.316778
     81          6           0      -27.703986    2.565708   -0.423352
     82          6           0      -24.170127   -0.479795   -2.008623
     83          6           0      -25.931834   -4.065569    0.605213
     84          6           0      -29.808844   -1.224250    1.882327
     85          7           0      -26.033814    0.865002   -1.028748
     86          6           0      -26.528296    2.174401   -1.136152
     87          6           0      -25.659578    2.952720   -2.090739
     88          6           0      -24.932376    1.800237   -2.903779
     89          6           0      -25.100024    0.594336   -1.933245
     90          6           0      -25.704274    1.603386   -4.257028
     91          6           0      -24.747011    4.026638   -1.399900
     92          6           0      -24.770549    5.264930   -2.145130
     93          1           0      -24.171906    6.540281   -1.364213
     94          7           0      -25.106837   -1.977121   -0.496630
     95          6           0      -24.169722   -1.654526   -1.396099
     96          6           0      -23.267293   -2.753440   -1.553649
     97          6           0      -23.753140   -3.820046   -0.826891
     98          6           0      -25.008333   -3.303119   -0.109106
     99          6           0      -22.094120   -2.724702   -2.584154
    100          6           0      -23.141767   -5.222934   -0.633155
    101          8           0      -23.742351   -6.037747    0.020556
    102          6           0      -21.769404   -5.549554   -1.173189
    103          7           0      -27.878610   -2.458630    0.901864
    104          6           0      -27.248292   -3.689707    1.045920
    105          6           0      -28.081575   -4.619395    1.866739
    106          6           0      -29.326879   -3.703402    2.302806
    107          6           0      -28.972246   -2.354851    1.721911
    108          6           0      -28.421460   -5.885432    1.155475
    109          6           0      -29.680589   -3.623645    3.888230
    110          6           0      -31.008967   -4.096587    4.329909
    111          7           0      -28.414482    0.392112    0.732719
    112          6           0      -29.581244    0.038166    1.371954
    113          6           0      -30.455331    1.286820    1.470307
    114          6           0      -29.711642    2.329041    0.881294
    115          6           0      -28.499241    1.720874    0.400894
    116          6           0      -31.864592    1.316495    2.077462
    117          6           0      -29.821224    3.697296    0.474676
    118          8           0      -30.735136    4.530255    0.668972
    119          6           0      -28.612003    3.875773   -0.532404
    120          6           0      -27.962417    5.241866   -0.158059
    121          8           0      -26.920705    5.286054    0.521741
    122          8           0      -28.644413    6.253148   -0.749630
    123          6           0      -28.129585    7.559697   -0.212991
    124          1           0      -23.245919   -0.325961   -2.570194
    125          1           0      -25.701521   -5.126426    0.729031
    126          1           0      -30.752365   -1.234801    2.431736
    127          1           0      -26.345029    3.424169   -2.794643
    128          1           0      -23.895931    2.053401   -3.124076
    129          1           0      -26.662183    1.096514   -4.143113
    130          1           0      -25.055181    1.078985   -4.957012
    131          1           0      -25.890838    2.582587   -4.698617
    132          1           0      -23.721031    3.681115   -1.528920
    133          1           0      -24.973332    4.134080   -0.338816
    134          1           0      -25.792868    5.607086   -2.306938
    135          1           0      -24.214313    5.100371   -3.068293
    136          1           0      -21.225657   -2.956202   -1.967549
    137          1           0      -21.919905   -1.757403   -3.055169
    138          1           0      -22.287433   -3.438488   -3.384818
    139          1           0      -21.537656   -6.603227   -1.017335
    140          1           0      -21.218524   -4.870421   -0.522562
    141          1           0      -21.748223   -5.278836   -2.228784
    142          1           0      -27.439188   -4.814585    2.725628
    143          1           0      -30.203482   -4.116378    1.804310
    144          1           0      -27.843285   -6.649145    1.674082
    145          1           0      -28.048313   -5.912650    0.131810
    146          1           0      -29.481920   -6.136289    1.121995
    147          1           0      -29.675872   -2.547999    4.064264
    148          1           0      -28.848420   -4.066356    4.433963
    149          1           0      -31.594043   -3.283740    4.759318
    150          1           0      -30.650515   -4.715455    5.151766
    151          1           0      -31.508293   -4.728678    3.594315
    152          1           0      -32.546834    1.172819    1.240353
    153          1           0      -32.087394    2.262593    2.570685
    154          1           0      -31.935959    0.544094    2.843270
    155          1           0      -29.104788    3.902552   -1.503321
    156          1           0      -28.442359    7.793022    0.804637
    157          1           0      -28.363348    8.428912   -0.826885
    158          1           0      -27.043452    7.491420   -0.277466
 ---------------------------------------------------------------------

 SCF Done:  E(RwB97XD) =  -4070.56946304     A.U. after   19 cycles

 Excitation energies and oscillator strengths:

 Excited State   1:      Singlet-A      1.6067 eV  771.68 nm  f=0.3736  <S**2>=0.000
     309 -> 316       -0.17854
     311 -> 313        0.68544
     309 <- 316       -0.11726
 This state for optimization and/or second-order correction.
 Total Energy, E(TD-HF/TD-DFT) =  -4070.51041888
 Copying the excited state density for this state as the 1-particle RhoCI density.

 Excited State   2:      Singlet-A      1.6768 eV  739.39 nm  f=0.3533  <S**2>=0.000
     310 -> 315       -0.19189
     312 -> 314        0.68018
     310 <- 315       -0.11547

 Excited State   3:      Singlet-A      2.2111 eV  560.74 nm  f=0.0984  <S**2>=0.000
     309 -> 313        0.62751
     311 -> 316        0.31207

 Excited State   4:      Singlet-A      2.2164 eV  559.40 nm  f=0.0062  <S**2>=0.000
     310 -> 314        0.55056
     312 -> 315        0.43362

 Excited State   5:      Singlet-A      3.7840 eV  327.65 nm  f=0.0000  <S**2>=0.000
     312 -> 313        0.70710

 The electronic state is 1-A.
 Alpha  occ. eigenvalues --  -46.95759 -46.94953 -19.31353 -19.29862 -19.25353
 Alpha  occ. eigenvalues --  -19.24692 -19.24526 -19.24199 -19.23763 -19.23266
 Alpha  occ. eigenvalues --  -14.47007 -14.46865 -14.46505 -14.46470 -14.44195
 Alpha  occ. eigenvalues --  -14.44126 -14.43968 -14.43711 -10.43557 -10.43100
 Alpha  occ. eigenvalues --  -10.39656 -10.39024 -10.38883 -10.38578 -10.35432
 Alpha  occ. eigenvalues --  -10.35388 -10.35341 -10.35266 -10.35259 -10.35221
 Alpha  occ. eigenvalues --  -10.34988 -10.34928 -10.34852 -10.34670 -10.34616
 Alpha  occ. eigenvalues --  -10.34524 -10.34427 -10.34010 -10.33340 -10.33110
 Alpha  occ. eigenvalues --  -10.33041 -10.32995 -10.32960 -10.32879 -10.32762
 Alpha  occ. eigenvalues --  -10.32588 -10.32576 -10.32571 -10.32472 -10.32310
 Alpha  occ. eigenvalues --  -10.32214 -10.32194 -10.32165 -10.32120 -10.32035
 Alpha  occ. eigenvalues --  -10.32032 -10.31957 -10.31897 -10.31893 -10.31537
 Alpha  occ. eigenvalues --  -10.31421 -10.31383 -10.31083 -10.31028 -10.30872
 Alpha  occ. eigenvalues --  -10.30825 -10.30555 -10.30508 -10.30490 -10.30435
 Alpha  occ. eigenvalues --  -10.30381 -10.30370 -10.30339 -10.30317 -10.30108
 Alpha  occ. eigenvalues --  -10.29974 -10.29776 -10.29767 -10.29449 -10.29378
 Alpha  occ. eigenvalues --  -10.29206 -10.29198 -10.29171 -10.28997 -10.28909
 Alpha  occ. eigenvalues --  -10.28800  -3.21561  -3.21022  -1.95140  -1.94666
 Alpha  occ. eigenvalues --   -1.94575  -1.94527  -1.94153  -1.94011  -1.19426
 Alpha  occ. eigenvalues --   -1.18198  -1.13975  -1.12624  -1.12209  -1.11177
 Alpha  occ. eigenvalues --   -1.10034  -1.09289  -1.06607  -1.06117  -1.06049
 Alpha  occ. eigenvalues --   -1.05345  -1.05053  -1.04671  -1.04666  -1.03411
 Alpha  occ. eigenvalues --   -0.95175  -0.93151  -0.91759  -0.91326  -0.90842
 Alpha  occ. eigenvalues --   -0.90584  -0.90312  -0.90028  -0.89483  -0.89465
 Alpha  occ. eigenvalues --   -0.89145  -0.88299  -0.87770  -0.87364  -0.86662
 Alpha  occ. eigenvalues --   -0.86268  -0.86067  -0.85651  -0.84647  -0.84540
 Alpha  occ. eigenvalues --   -0.84451  -0.83615  -0.82833  -0.82615  -0.82482
 Alpha  occ. eigenvalues --   -0.82364  -0.80196  -0.79899  -0.79456  -0.79451
 Alpha  occ. eigenvalues --   -0.78794  -0.78428  -0.77996  -0.77369  -0.77108
 Alpha  occ. eigenvalues --   -0.76862  -0.74707  -0.74136  -0.73669  -0.73398
 Alpha  occ. eigenvalues --   -0.71572  -0.70826  -0.70787  -0.70586  -0.69767
 Alpha  occ. eigenvalues --   -0.69397  -0.69105  -0.68301  -0.67805  -0.67089
 Alpha  occ. eigenvalues --   -0.66999  -0.66876  -0.66537  -0.66414  -0.66383
 Alpha  occ. eigenvalues --   -0.66270  -0.64115  -0.64023  -0.61992  -0.61941
 Alpha  occ. eigenvalues --   -0.61441  -0.61055  -0.61024  -0.60940  -0.60419
 Alpha  occ. eigenvalues --   -0.60198  -0.60121  -0.59412  -0.59369  -0.59015
 Alpha  occ. eigenvalues --   -0.58551  -0.58033  -0.57980  -0.57434  -0.57378
 Alpha  occ. eigenvalues --   -0.57071  -0.57021  -0.56576  -0.56239  -0.56040
 Alpha  occ. eigenvalues --   -0.55943  -0.55890  -0.55461  -0.55008  -0.54856
 Alpha  occ. eigenvalues --   -0.54819  -0.54601  -0.54533  -0.54377  -0.54312
 Alpha  occ. eigenvalues --   -0.54225  -0.54033  -0.53836  -0.53546  -0.53357
 Alpha  occ. eigenvalues --   -0.53233  -0.53091  -0.52888  -0.52469  -0.52288
 Alpha  occ. eigenvalues --   -0.52155  -0.52113  -0.52062  -0.51567  -0.51454
 Alpha  occ. eigenvalues --   -0.51354  -0.51228  -0.51029  -0.50861  -0.50858
 Alpha  occ. eigenvalues --   -0.50703  -0.50564  -0.50540  -0.50299  -0.50140
 Alpha  occ. eigenvalues --   -0.49937  -0.49762  -0.49478  -0.49341  -0.49145
 Alpha  occ. eigenvalues --   -0.49058  -0.48838  -0.48751  -0.48513  -0.48447
 Alpha  occ. eigenvalues --   -0.48326  -0.48129  -0.47982  -0.47962  -0.47839
 Alpha  occ. eigenvalues --   -0.47741  -0.47439  -0.47273  -0.47184  -0.46616
 Alpha  occ. eigenvalues --   -0.46507  -0.46434  -0.46310  -0.46272  -0.46039
 Alpha  occ. eigenvalues --   -0.46003  -0.45851  -0.45723  -0.45551  -0.45375
 Alpha  occ. eigenvalues --   -0.45181  -0.45165  -0.44979  -0.44757  -0.44712
 Alpha  occ. eigenvalues --   -0.44536  -0.44396  -0.44258  -0.44127  -0.44094
 Alpha  occ. eigenvalues --   -0.43940  -0.43816  -0.43803  -0.43377  -0.43072
 Alpha  occ. eigenvalues --   -0.43010  -0.42687  -0.42674  -0.42311  -0.42099
 Alpha  occ. eigenvalues --   -0.41777  -0.41690  -0.41046  -0.40745  -0.40432
 Alpha  occ. eigenvalues --   -0.40424  -0.39825  -0.39760  -0.39331  -0.39210
 Alpha  occ. eigenvalues --   -0.39155  -0.39089  -0.38964  -0.38490  -0.38061
 Alpha  occ. eigenvalues --   -0.37726  -0.37065  -0.36761  -0.36230  -0.36028
 Alpha  occ. eigenvalues --   -0.35811  -0.35311  -0.35181  -0.33925  -0.33592
 Alpha  occ. eigenvalues --   -0.33370  -0.33135  -0.32621  -0.32479  -0.32223
 Alpha  occ. eigenvalues --   -0.32085  -0.31839  -0.31450  -0.26241  -0.26190
 Alpha  occ. eigenvalues --   -0.22865  -0.22002
 Alpha virt. eigenvalues --   -0.07134  -0.05880  -0.00594   0.00114   0.02092
 Alpha virt. eigenvalues --    0.02284   0.04479   0.04480   0.04639   0.05081
 Alpha virt. eigenvalues --    0.07280   0.07562   0.07758   0.07785   0.08140

 Mulliken charges:
               1
     1  Mg   0.971174
     2  C   -0.073519
     3  C   -0.088751
     4  C   -0.070259
     5  C   -0.087671
     6  N   -0.366530
     7  C    0.021436
     8  C   -0.041478
     9  C   -0.131864
    10  C    0.060087
    11  C    0.036718
    12  C   -0.025913
    13  C   -0.106327
    14  H    0.042075
    15  N   -0.438642
    16  C    0.155115
    17  C   -0.199071
    18  C   -0.050539
    19  C    0.165478
    20  C    0.110824
    21  C    0.017573
    22  O   -0.237356
    23  C   -0.009515
    24  N   -0.356937
    25  C    0.045720
    26  C   -0.080057
    27  C   -0.111586
    28  C    0.037652
    29  C    0.042918
    30  C    0.014735
    31  C   -0.045856
    32  N   -0.434596
    33  C    0.147844
    34  C   -0.205202
    35  C   -0.044355
    36  C    0.163175
    37  C    0.102111
    38  C    0.124254
    39  O   -0.206604
    40  C   -0.072891
    41  C    0.257770
    42  O   -0.210083
    43  O   -0.374928
    44  C    0.128956
    45  H   -0.001800
    46  H   -0.030273
    47  H    0.001572
    48  H    0.040540
    49  H    0.052529
    50  H    0.037920
    51  H    0.045539
    52  H    0.046150
    53  H    0.018048
    54  H    0.023436
    55  H    0.051765
    56  H    0.057196
    57  H    0.065754
    58  H    0.021440
    59  H    0.056288
    60  H    0.066104
    61  H    0.044704
    62  H    0.054458
    63  H    0.033937
    64  H    0.029538
    65  H    0.040567
    66  H    0.046118
    67  H    0.027748
    68  H    0.057232
    69  H    0.024521
    70  H    0.038669
    71  H    0.024910
    72  H    0.035840
    73  H    0.069361
    74  H    0.037736
    75  H    0.057397
    76  H    0.064957
    77  H    0.073170
    78  H    0.055913
    79  H    0.055929
    80  Mg   0.943097
    81  C    0.041550
    82  C   -0.129215
    83  C   -0.076216
    84  C   -0.077228
    85  N   -0.336200
    86  C   -0.017586
    87  C   -0.079500
    88  C   -0.155274
    89  C    0.135798
    90  C    0.022044
    91  C    0.093440
    92  C   -0.136500
    93  H    0.009042
    94  N   -0.446298
    95  C    0.165867
    96  C   -0.153263
    97  C   -0.107894
    98  C    0.164995
    99  C    0.056645
   100  C    0.032416
   101  O   -0.217401
   102  C    0.006375
   103  N   -0.392295
   104  C    0.060480
   105  C   -0.103438
   106  C   -0.058571
   107  C    0.088766
   108  C    0.029699
   109  C   -0.034559
   110  C   -0.028622
   111  N   -0.416786
   112  C    0.095709
   113  C   -0.195810
   114  C   -0.011641
   115  C    0.105186
   116  C    0.075077
   117  C    0.122560
   118  O   -0.234924
   119  C   -0.139063
   120  C    0.281260
   121  O   -0.275151
   122  O   -0.340450
   123  C    0.131687
   124  H   -0.010031
   125  H    0.029199
   126  H   -0.008265
   127  H    0.017195
   128  H    0.025382
   129  H    0.050735
   130  H    0.035137
   131  H    0.035638
   132  H    0.016167
   133  H    0.073632
   134  H    0.051833
   135  H    0.043262
   136  H    0.051708
   137  H    0.037616
   138  H    0.072640
   139  H    0.062082
   140  H    0.066212
   141  H    0.055549
   142  H    0.043042
   143  H    0.031500
   144  H    0.039716
   145  H    0.045865
   146  H    0.038562
   147  H    0.026809
   148  H    0.028189
   149  H    0.044938
   150  H    0.030314
   151  H    0.041850
   152  H    0.063101
   153  H    0.057591
   154  H    0.033403
   155  H    0.090025
   156  H    0.070064
   157  H    0.052424
   158  H    0.059108
 Sum of Mulliken charges =  -0.00000

 Dipole moment (field-independent basis, Debye):
    X=              5.2556    Y=             -1.9266    Z=             -2.5594  Tot=              6.1549
 Quadrupole moment (field-independent basis, Debye-Ang):
   XX=           -572.4258   YY=           -511.3589   ZZ=           -509.1398
   XY=             87.3312   XZ=            -21.2117   YZ=              1.0312

 Normal termination of Gaussian 16 at Sat Sep 18 15:30:15 2021.
