 Gaussian 16, Revision A.03,
 Gaussian 16:  ES64L-G16RevA.03 25-Dec-2016

 --------------------------------
 #p wB97XD/Def2SVP td=(nstates=5)
 --------------------------------

 --------------------------------
 TDDFT excited states in gaussian
 --------------------------------
 Symbolic Z-matrix:
 Charge =  0 Multiplicity = 1

                         Standard orientation:
 ---------------------------------------------------------------------
 Center     Atomic      Atomic             Coordinates (Angstroms)
 Number     Number       Type             X           Y           Z
 ---------------------------------------------------------------------
      1         12           0      -17.806490   -0.818915    0.066593
      2          6           0      -17.487004    2.661887   -0.562819
      3          6           0      -16.739313   -0.073153    3.355512
      4          6           0      -17.704844   -4.019947    0.689006
      5          6           0      -18.550486   -1.304368   -3.296054
      6          7           0      -17.162034    1.117376    1.282737
      7          6           0      -17.235841    2.391678    0.775983
      8          6           0      -16.966579    3.465605    1.816418
      9          6           0      -16.600674    2.527913    3.045683
     10          6           0      -16.882672    1.097296    2.561446
     11          6           0      -15.198562    2.830558    3.565974
     12          6           0      -18.226592    4.327109    2.052431
     13          6           0      -18.044237    5.865175    2.345045
     14          1           0      -16.665241    6.352512    2.848715
     15          7           0      -17.367851   -1.912128    1.809080
     16          6           0      -16.874553   -1.418070    3.017000
     17          6           0      -16.694136   -2.554155    3.934645
     18          6           0      -17.074410   -3.713704    3.183286
     19          6           0      -17.441593   -3.202641    1.848741
     20          6           0      -16.155001   -2.420973    5.257552
     21          6           0      -17.086076   -5.172461    3.628985
     22          8           0      -17.349779   -6.083875    2.828651
     23          6           0      -16.957831   -5.526981    5.058386
     24          7           0      -17.987213   -2.443163   -1.161612
     25          6           0      -18.007594   -3.672884   -0.640782
     26          6           0      -18.198472   -4.752260   -1.755409
     27          6           0      -18.655529   -3.872424   -2.962025
     28          6           0      -18.383784   -2.474510   -2.501921
     29          6           0      -16.939835   -5.660520   -1.999039
     30          6           0      -20.202954   -4.138396   -3.103266
     31          6           0      -21.235797   -3.195391   -2.395210
     32          7           0      -18.093008    0.384774   -1.586450
     33          6           0      -18.382729    0.021061   -2.914034
     34          6           0      -18.387176    1.252383   -3.742406
     35          6           0      -17.990581    2.257743   -2.868345
     36          6           0      -17.847758    1.760008   -1.590434
     37          6           0      -18.458966    1.162166   -5.190553
     38          6           0      -17.586586    3.661596   -2.862814
     39          8           0      -17.517227    4.429276   -3.815996
     40          6           0      -17.207474    3.997110   -1.344418
     41          6           0      -15.810341    4.482594   -1.234627
     42          8           0      -14.822896    3.798158   -0.982395
     43          8           0      -15.790797    5.873909   -1.448034
     44          6           0      -14.552581    6.619567   -1.459793
     45          1           0      -16.658959    0.086390    4.433165
     46          1           0      -17.708929   -5.102626    0.833919
     47          1           0      -18.835984   -1.579118   -4.313341
     48          1           0      -16.134992    4.115866    1.543667
     49          1           0      -17.241123    2.851186    3.865850
     50          1           0      -15.144650    3.076092    4.626010
     51          1           0      -14.653215    3.619121    3.047397
     52          1           0      -14.636288    1.898814    3.491332
     53          1           0      -18.827721    3.919830    2.865280
     54          1           0      -18.761280    4.150662    1.118470
     55          1           0      -18.705322    6.177160    3.152892
     56          1           0      -18.490776    6.369541    1.488134
     57          1           0      -16.864293   -2.910457    5.925257
     58          1           0      -15.826749   -1.398914    5.444144
     59          1           0      -15.212935   -2.955854    5.133003
     60          1           0      -15.950191   -5.391005    5.452324
     61          1           0      -17.185009   -6.584789    5.189410
     62          1           0      -17.560359   -4.819886    5.627812
     63          1           0      -18.980766   -5.334861   -1.268842
     64          1           0      -18.174376   -4.176416   -3.891979
     65          1           0      -17.040639   -6.593809   -1.444887
     66          1           0      -16.067212   -5.056590   -1.752348
     67          1           0      -16.925692   -5.866767   -3.069125
     68          1           0      -20.398075   -5.202029   -2.964998
     69          1           0      -20.408667   -3.823823   -4.126844
     70          1           0      -21.959472   -3.891851   -1.972721
     71          1           0      -21.763344   -2.541245   -3.090588
     72          1           0      -20.852270   -2.595580   -1.570549
     73          1           0      -17.736951    0.419160   -5.526874
     74          1           0      -18.149129    2.134441   -5.575017
     75          1           0      -19.491305    1.067203   -5.526149
     76          1           0      -17.890478    4.808797   -1.091968
     77          1           0      -14.155380    6.783061   -2.461296
     78          1           0      -13.869193    6.267884   -0.686728
     79          1           0      -14.879505    7.556110   -1.007107
     80         12           0       17.717049   -0.676646    0.231483
     81          6           0       15.756342    2.208176    0.467214
     82          6           0       20.510364    1.345561    0.353135
     83          6           0       19.641503   -3.339393   -0.694432
     84          6           0       14.854214   -2.469334   -0.532343
     85          7           0       18.026147    1.475049    0.479463
     86          6           0       17.101648    2.400178    0.767129
     87          6           0       17.666900    3.741702    1.256203
     88          6           0       19.213501    3.524551    1.038769
     89          6           0       19.316336    1.940495    0.670915
     90          6           0       19.910262    4.410792   -0.016122
     91          6           0       17.280436    4.112461    2.688164
     92          6           0       17.276597    5.630641    2.943492
     93          1           0       17.666108    6.584657    1.805497
     94          7           0       19.782493   -1.008712   -0.017075
     95          6           0       20.804161   -0.044591    0.144274
     96          6           0       22.082325   -0.699825   -0.048056
     97          6           0       21.847002   -2.074548   -0.424988
     98          6           0       20.392800   -2.210931   -0.359113
     99          6           0       23.372446    0.022464    0.227186
    100          6           0       22.872827   -3.268684   -0.678110
    101          8           0       22.538768   -4.415744   -0.850593
    102          6           0       24.339214   -2.896444   -0.712793
    103          7           0       17.314476   -2.574278   -0.590219
    104          6           0       18.256802   -3.524113   -0.856536
    105          6           0       17.618246   -4.881707   -1.329696
    106          6           0       16.128289   -4.572444   -1.193483
    107          6           0       16.105809   -3.120948   -0.752726
    108          6           0       18.040903   -5.563543   -2.693026
    109          6           0       15.453387   -5.509233   -0.164285
    110          6           0       15.560310   -5.167786    1.338508
    111          7           0       15.653431   -0.329426    0.137919
    112          6           0       14.602260   -1.148341   -0.183929
    113          6           0       13.362950   -0.449224   -0.115558
    114          6           0       13.763037    0.938401    0.142567
    115          6           0       15.098948    0.929233    0.252750
    116          6           0       11.980187   -0.898892   -0.290516
    117          6           0       13.306011    2.318855    0.222912
    118          8           0       12.158028    2.775610    0.240885
    119          6           0       14.555841    3.220836    0.444184
    120          6           0       14.676595    4.234133   -0.599019
    121          8           0       15.098858    4.053111   -1.736193
    122          8           0       14.033943    5.376550   -0.192572
    123          6           0       13.644715    6.391498   -1.190800
    124          1           0       21.332741    2.063929    0.375796
    125          1           0       20.245622   -4.241394   -0.812032
    126          1           0       13.941723   -3.051357   -0.677207
    127          1           0       17.421095    4.553735    0.572266
    128          1           0       19.787813    3.546752    1.964241
    129          1           0       20.727470    4.815213    0.580871
    130          1           0       19.243703    5.203844   -0.354206
    131          1           0       20.226934    3.811536   -0.869854
    132          1           0       17.920794    3.627318    3.423841
    133          1           0       16.278259    3.746592    2.913108
    134          1           0       17.984914    5.693968    3.769812
    135          1           0       16.338920    5.966028    3.388939
    136          1           0       23.095515    1.067528    0.366417
    137          1           0       24.042793   -0.111758   -0.622033
    138          1           0       23.894633   -0.356294    1.107082
    139          1           0       24.701915   -2.387734   -1.606561
    140          1           0       24.914357   -3.801431   -0.517093
    141          1           0       24.421315   -2.240040    0.153448
    142          1           0       17.976662   -5.554210   -0.550683
    143          1           0       15.695971   -4.709125   -2.184047
    144          1           0       17.208862   -5.878809   -3.321537
    145          1           0       18.583546   -6.478496   -2.457459
    146          1           0       18.728627   -4.886561   -3.200686
    147          1           0       15.872576   -6.495834   -0.358020
    148          1           0       14.406725   -5.541723   -0.468273
    149          1           0       15.739502   -6.127689    1.822168
    150          1           0       14.636331   -4.770513    1.758044
    151          1           0       16.307013   -4.410787    1.575670
    152          1           0       11.376919   -0.413677    0.475980
    153          1           0       11.825052   -1.976712   -0.241213
    154          1           0       11.563643   -0.470796   -1.202466
    155          1           0       14.396110    3.651961    1.432361
    156          1           0       13.981730    6.132078   -2.195007
    157          1           0       14.129419    7.328444   -0.915302
    158          1           0       12.560525    6.375814   -1.085212
 ---------------------------------------------------------------------

 SCF Done:  E(RwB97XD) =  -4070.62243067     A.U. after   19 cycles

 Excitation energies and oscillator strengths:

 Excited State   1:      Singlet-A      1.6570 eV  748.26 nm  f=0.4129  <S**2>=0.000
     310 -> 316        0.18732
     311 -> 313        0.68178
     310 <- 316        0.11633
 This state for optimization and/or second-order correction.
 Total Energy, E(TD-HF/TD-DFT) =  -4070.56153802
 Copying the excited state density for this state as the 1-particle RhoCI density.

 Excited State   2:      Singlet-A      1.6997 eV  729.45 nm  f=0.3701  <S**2>=0.000
     309 -> 315       -0.19453
     312 -> 314        0.67891
     309 <- 315       -0.11677

 Excited State   3:      Singlet-A      2.0777 eV  596.72 nm  f=0.1507  <S**2>=0.000
     310 -> 313        0.65641
     311 -> 316       -0.23990

 Excited State   4:      Singlet-A      2.2204 eV  558.39 nm  f=0.0705  <S**2>=0.000
     309 -> 314        0.62144
     312 -> 315        0.32313

 Excited State   5:      Singlet-A      3.1035 eV  399.50 nm  f=0.0053  <S**2>=0.000
     306 -> 313       -0.12838
     308 -> 313        0.67540

 The electronic state is 1-A.
 Alpha  occ. eigenvalues --  -46.94793 -46.94584 -19.29174 -19.29102 -19.24951
 Alpha  occ. eigenvalues --  -19.24761 -19.24295 -19.23913 -19.23781 -19.23754
 Alpha  occ. eigenvalues --  -14.46870 -14.46702 -14.46455 -14.45805 -14.44251
 Alpha  occ. eigenvalues --  -14.44049 -14.43481 -14.42764 -10.43278 -10.42496
 Alpha  occ. eigenvalues --  -10.40153 -10.39333 -10.39262 -10.39097 -10.35018
 Alpha  occ. eigenvalues --  -10.34911 -10.34900 -10.34874 -10.34848 -10.34719
 Alpha  occ. eigenvalues --  -10.34704 -10.34649 -10.34501 -10.34417 -10.34403
 Alpha  occ. eigenvalues --  -10.34370 -10.34170 -10.33888 -10.33195 -10.33179
 Alpha  occ. eigenvalues --  -10.33123 -10.32874 -10.32834 -10.32820 -10.32705
 Alpha  occ. eigenvalues --  -10.32284 -10.32258 -10.32168 -10.32139 -10.32129
 Alpha  occ. eigenvalues --  -10.31799 -10.31700 -10.31686 -10.31682 -10.31662
 Alpha  occ. eigenvalues --  -10.31549 -10.31448 -10.31408 -10.31386 -10.31378
 Alpha  occ. eigenvalues --  -10.31315 -10.31158 -10.31147 -10.31029 -10.30921
 Alpha  occ. eigenvalues --  -10.30916 -10.30869 -10.30727 -10.30632 -10.30373
 Alpha  occ. eigenvalues --  -10.30363 -10.30273 -10.30268 -10.30181 -10.29961
 Alpha  occ. eigenvalues --  -10.29824 -10.29687 -10.29649 -10.29577 -10.29336
 Alpha  occ. eigenvalues --  -10.29285 -10.29164 -10.29061 -10.28877 -10.28787
 Alpha  occ. eigenvalues --  -10.28643  -3.20783  -3.20546  -1.94379  -1.94135
 Alpha  occ. eigenvalues --   -1.93917  -1.93740  -1.93665  -1.93524  -1.17241
 Alpha  occ. eigenvalues --   -1.16761  -1.13793  -1.11827  -1.11420  -1.11091
 Alpha  occ. eigenvalues --   -1.09387  -1.08820  -1.06766  -1.06435  -1.06055
 Alpha  occ. eigenvalues --   -1.05316  -1.05043  -1.04466  -1.03326  -1.03048
 Alpha  occ. eigenvalues --   -0.94042  -0.93891  -0.91833  -0.91022  -0.90636
 Alpha  occ. eigenvalues --   -0.90493  -0.90210  -0.90063  -0.89264  -0.89008
 Alpha  occ. eigenvalues --   -0.88600  -0.88381  -0.88057  -0.88017  -0.86113
 Alpha  occ. eigenvalues --   -0.86023  -0.85315  -0.85164  -0.84547  -0.84212
 Alpha  occ. eigenvalues --   -0.83863  -0.83824  -0.82939  -0.82719  -0.82370
 Alpha  occ. eigenvalues --   -0.82121  -0.80923  -0.80082  -0.79033  -0.78974
 Alpha  occ. eigenvalues --   -0.78739  -0.78731  -0.77813  -0.77658  -0.76951
 Alpha  occ. eigenvalues --   -0.76696  -0.74409  -0.74057  -0.73245  -0.73059
 Alpha  occ. eigenvalues --   -0.71719  -0.71098  -0.70827  -0.70403  -0.69794
 Alpha  occ. eigenvalues --   -0.69641  -0.68706  -0.68056  -0.66893  -0.66700
 Alpha  occ. eigenvalues --   -0.66614  -0.66598  -0.66431  -0.66389  -0.66137
 Alpha  occ. eigenvalues --   -0.65719  -0.63477  -0.63381  -0.62328  -0.61767
 Alpha  occ. eigenvalues --   -0.61272  -0.61065  -0.61022  -0.61010  -0.60267
 Alpha  occ. eigenvalues --   -0.59976  -0.59801  -0.59647  -0.59388  -0.59104
 Alpha  occ. eigenvalues --   -0.58239  -0.57806  -0.57428  -0.57369  -0.57157
 Alpha  occ. eigenvalues --   -0.57104  -0.56599  -0.56138  -0.55903  -0.55709
 Alpha  occ. eigenvalues --   -0.55607  -0.55262  -0.55254  -0.55062  -0.54778
 Alpha  occ. eigenvalues --   -0.54665  -0.54604  -0.54236  -0.54151  -0.54044
 Alpha  occ. eigenvalues --   -0.53882  -0.53670  -0.53534  -0.53401  -0.53187
 Alpha  occ. eigenvalues --   -0.52730  -0.52722  -0.52568  -0.52456  -0.52164
 Alpha  occ. eigenvalues --   -0.51860  -0.51667  -0.51609  -0.51505  -0.51503
 Alpha  occ. eigenvalues --   -0.51298  -0.50957  -0.50899  -0.50863  -0.50792
 Alpha  occ. eigenvalues --   -0.50434  -0.50399  -0.50286  -0.50134  -0.50017
 Alpha  occ. eigenvalues --   -0.49986  -0.49538  -0.49509  -0.49260  -0.49037
 Alpha  occ. eigenvalues --   -0.48815  -0.48663  -0.48581  -0.48177  -0.48025
 Alpha  occ. eigenvalues --   -0.47986  -0.47896  -0.47770  -0.47548  -0.47253
 Alpha  occ. eigenvalues --   -0.47181  -0.46925  -0.46893  -0.46553  -0.46460
 Alpha  occ. eigenvalues --   -0.46227  -0.46169  -0.46114  -0.45950  -0.45871
 Alpha  occ. eigenvalues --   -0.45783  -0.45580  -0.45516  -0.45335  -0.45311
 Alpha  occ. eigenvalues --   -0.45246  -0.45138  -0.44970  -0.44865  -0.44729
 Alpha  occ. eigenvalues --   -0.44648  -0.44398  -0.44259  -0.43909  -0.43813
 Alpha  occ. eigenvalues --   -0.43649  -0.43397  -0.43311  -0.43000  -0.42849
 Alpha  occ. eigenvalues --   -0.42783  -0.42545  -0.42503  -0.42170  -0.42143
 Alpha  occ. eigenvalues --   -0.41807  -0.41721  -0.41239  -0.40465  -0.40421
 Alpha  occ. eigenvalues --   -0.40293  -0.39737  -0.39668  -0.39586  -0.39322
 Alpha  occ. eigenvalues --   -0.39063  -0.38763  -0.38581  -0.38071  -0.38036
 Alpha  occ. eigenvalues --   -0.37676  -0.37599  -0.36300  -0.36077  -0.35967
 Alpha  occ. eigenvalues --   -0.35729  -0.35493  -0.35482  -0.33552  -0.33150
 Alpha  occ. eigenvalues --   -0.33112  -0.33089  -0.32783  -0.32741  -0.32349
 Alpha  occ. eigenvalues --   -0.31780  -0.31431  -0.30825  -0.25771  -0.25410
 Alpha  occ. eigenvalues --   -0.23096  -0.22549
 Alpha virt. eigenvalues --   -0.07262  -0.06446   0.00246   0.00631   0.02336
 Alpha virt. eigenvalues --    0.02660   0.04320   0.04606   0.05693   0.06411
 Alpha virt. eigenvalues --    0.07126   0.07459   0.07710   0.07786   0.08345

 Mulliken charges:
               1
     1  Mg   0.959054
     2  C    0.014424
     3  C   -0.115939
     4  C   -0.071715
     5  C   -0.091869
     6  N   -0.268531
     7  C   -0.050301
     8  C   -0.080573
     9  C   -0.081100
    10  C    0.061340
    11  C    0.017826
    12  C   -0.000835
    13  C   -0.101172
    14  H    0.041939
    15  N   -0.420539
    16  C    0.160524
    17  C   -0.187178
    18  C   -0.089566
    19  C    0.146047
    20  C    0.087375
    21  C    0.060871
    22  O   -0.251556
    23  C   -0.004538
    24  N   -0.411545
    25  C    0.041774
    26  C   -0.106397
    27  C   -0.056748
    28  C    0.053128
    29  C    0.041990
    30  C   -0.057152
    31  C   -0.040213
    32  N   -0.481876
    33  C    0.164307
    34  C   -0.192723
    35  C   -0.021534
    36  C    0.159950
    37  C    0.078007
    38  C    0.119470
    39  O   -0.196970
    40  C   -0.104559
    41  C    0.296062
    42  O   -0.245613
    43  O   -0.393152
    44  C    0.148804
    45  H    0.010764
    46  H    0.016597
    47  H   -0.005085
    48  H    0.046021
    49  H    0.028841
    50  H    0.025208
    51  H    0.045360
    52  H    0.027110
    53  H    0.030822
    54  H    0.034356
    55  H    0.044084
    56  H    0.052212
    57  H    0.062330
    58  H    0.037762
    59  H    0.061597
    60  H    0.050618
    61  H    0.063417
    62  H    0.049863
    63  H    0.039280
    64  H    0.036132
    65  H    0.056236
    66  H    0.049540
    67  H    0.029619
    68  H    0.044623
    69  H    0.027414
    70  H    0.033370
    71  H    0.043521
    72  H    0.047337
    73  H    0.057833
    74  H    0.044360
    75  H    0.045794
    76  H    0.074968
    77  H    0.071728
    78  H    0.047397
    79  H    0.039973
    80  Mg   0.960084
    81  C   -0.000664
    82  C   -0.090221
    83  C   -0.074010
    84  C   -0.087024
    85  N   -0.357169
    86  C   -0.011452
    87  C   -0.047852
    88  C   -0.148964
    89  C    0.067819
    90  C    0.032196
    91  C    0.017160
    92  C   -0.110768
    93  H    0.046870
    94  N   -0.477765
    95  C    0.165619
    96  C   -0.178538
    97  C   -0.089928
    98  C    0.129275
    99  C    0.057166
   100  C    0.082247
   101  O   -0.208417
   102  C   -0.022495
   103  N   -0.338028
   104  C    0.039884
   105  C   -0.081604
   106  C   -0.049275
   107  C    0.051198
   108  C    0.022589
   109  C   -0.042521
   110  C   -0.033349
   111  N   -0.450000
   112  C    0.142125
   113  C   -0.165025
   114  C   -0.034686
   115  C    0.132257
   116  C    0.085486
   117  C    0.094078
   118  O   -0.220650
   119  C   -0.059021
   120  C    0.274361
   121  O   -0.254745
   122  O   -0.379431
   123  C    0.128363
   124  H    0.001352
   125  H    0.020126
   126  H   -0.015890
   127  H    0.038865
   128  H    0.031162
   129  H    0.040081
   130  H    0.043115
   131  H    0.055446
   132  H    0.031035
   133  H    0.031042
   134  H    0.040469
   135  H    0.054351
   136  H    0.029106
   137  H    0.047895
   138  H    0.067757
   139  H    0.082047
   140  H    0.053778
   141  H    0.031778
   142  H    0.039734
   143  H    0.036146
   144  H    0.039845
   145  H    0.035646
   146  H    0.050987
   147  H    0.030130
   148  H    0.031131
   149  H    0.040335
   150  H    0.037206
   151  H    0.046594
   152  H    0.052930
   153  H    0.034600
   154  H    0.057919
   155  H    0.073234
   156  H    0.066907
   157  H    0.054412
   158  H    0.073552
 Sum of Mulliken charges =  -0.00000

 Dipole moment (field-independent basis, Debye):
    X=              2.1477    Y=             -0.7082    Z=              6.8907  Tot=              7.2523
 Quadrupole moment (field-independent basis, Debye-Ang):
   XX=           -372.0476   YY=           -494.6756   ZZ=           -485.1912
   XY=             36.6935   XZ=            -24.6691   YZ=             27.9489

 Normal termination of Gaussian 16 at Sun Sep 19 05:20:29 2021.
