 Gaussian 16, Revision A.03,
 Gaussian 16:  ES64L-G16RevA.03 25-Dec-2016

 --------------------------------
 #p wB97XD/Def2SVP td=(nstates=5)
 --------------------------------

 --------------------------------
 TDDFT excited states in gaussian
 --------------------------------
 Symbolic Z-matrix:
 Charge =  0 Multiplicity = 1

                         Standard orientation:
 ---------------------------------------------------------------------
 Center     Atomic      Atomic             Coordinates (Angstroms)
 Number     Number       Type             X           Y           Z
 ---------------------------------------------------------------------
      1         12           0      -28.125584    0.203110    0.027539
      2          6           0      -25.255222   -1.690046   -0.076616
      3          6           0      -26.342904    3.113741   -0.251172
      4          6           0      -31.073569    2.093339   -0.060934
      5          6           0      -30.032625   -2.618738   -0.543934
      6          7           0      -26.023124    0.565497   -0.359270
      7          6           0      -24.954804   -0.319352   -0.189496
      8          6           0      -23.609956    0.378265   -0.408558
      9          6           0      -24.064498    1.853468   -0.270053
     10          6           0      -25.602417    1.890287   -0.382193
     11          6           0      -23.472881    2.555931    0.971567
     12          6           0      -22.992652    0.038839   -1.779721
     13          6           0      -21.449391   -0.235050   -1.812462
     14          1           0      -20.746174    0.140058   -3.058136
     15          7           0      -28.605444    2.267455   -0.076921
     16          6           0      -27.739928    3.306889   -0.093672
     17          6           0      -28.379603    4.570312    0.120778
     18          6           0      -29.743961    4.300696    0.317372
     19          6           0      -29.869195    2.802281    0.084993
     20          6           0      -27.638030    5.899895    0.273430
     21          6           0      -30.880936    5.339821    0.630032
     22          8           0      -30.587803    6.562830    0.634796
     23          6           0      -32.365476    4.932095    1.024406
     24          7           0      -30.231765   -0.175923   -0.561634
     25          6           0      -31.227265    0.722778   -0.366630
     26          6           0      -32.600244    0.107969   -0.458737
     27          6           0      -32.299108   -1.392582   -0.662312
     28          6           0      -30.773013   -1.424756   -0.546620
     29          6           0      -33.547455    0.440830    0.741444
     30          6           0      -32.936645   -1.989871   -2.005986
     31          6           0      -34.170094   -2.874492   -1.790630
     32          7           0      -27.771056   -1.769404   -0.200909
     33          6           0      -28.639111   -2.865207   -0.401552
     34          6           0      -27.885259   -4.115581   -0.240883
     35          6           0      -26.584344   -3.675742   -0.039629
     36          6           0      -26.579766   -2.275788   -0.153614
     37          6           0      -28.345657   -5.527929   -0.303710
     38          6           0      -25.206768   -4.140656    0.176307
     39          8           0      -24.748216   -5.251634    0.489529
     40          6           0      -24.283205   -2.857446    0.206278
     41          6           0      -23.579253   -2.711418    1.548676
     42          8           0      -24.069721   -2.837062    2.675193
     43          8           0      -22.280728   -2.482163    1.202613
     44          6           0      -21.312556   -2.471635    2.286436
     45          1           0      -25.785425    4.048993   -0.333598
     46          1           0      -32.059438    2.560344   -0.010589
     47          1           0      -30.576876   -3.550262   -0.711763
     48          1           0      -22.904049    0.059441    0.359069
     49          1           0      -23.632801    2.329981   -1.150155
     50          1           0      -22.572151    2.155750    1.436966
     51          1           0      -24.234343    2.465995    1.746139
     52          1           0      -23.250622    3.606145    0.783945
     53          1           0      -23.240898    0.770045   -2.548534
     54          1           0      -23.568858   -0.813184   -2.141282
     55          1           0      -21.275042   -1.295164   -1.628652
     56          1           0      -20.976563    0.368334   -1.036307
     57          1           0      -27.940165    6.292224    1.244193
     58          1           0      -27.768268    6.498796   -0.628016
     59          1           0      -26.591314    5.613820    0.376239
     60          1           0      -32.894640    4.778898    0.084596
     61          1           0      -32.784243    5.789379    1.550957
     62          1           0      -32.275777    4.142938    1.771411
     63          1           0      -33.087282    0.508996   -1.347690
     64          1           0      -32.552415   -2.054596    0.165413
     65          1           0      -34.062658   -0.448147    1.104256
     66          1           0      -34.305856    1.180216    0.484726
     67          1           0      -32.969458    0.930362    1.524180
     68          1           0      -32.246276   -2.642439   -2.540290
     69          1           0      -33.143750   -1.184401   -2.710476
     70          1           0      -34.899299   -2.685499   -2.578637
     71          1           0      -34.621405   -2.647125   -0.825094
     72          1           0      -33.953085   -3.942501   -1.785571
     73          1           0      -29.431921   -5.512354   -0.392755
     74          1           0      -27.863865   -6.111487    0.481038
     75          1           0      -28.015650   -5.905013   -1.272294
     76          1           0      -23.554210   -2.850898   -0.604482
     77          1           0      -21.637014   -1.910888    3.163935
     78          1           0      -20.307961   -2.120456    2.050797
     79          1           0      -21.122816   -3.492799    2.618066
     80         12           0       28.277927    0.053557    0.242204
     81          6           0       24.769533   -0.204359    0.023718
     82          6           0       28.397223   -3.274176   -0.153527
     83          6           0       31.505388    0.476775   -0.049338
     84          6           0       27.813346    3.582867   -0.071810
     85          7           0       26.736004   -1.533678   -0.077814
     86          6           0       25.383836   -1.463103   -0.057772
     87          6           0       24.702202   -2.810739   -0.181263
     88          6           0       25.940842   -3.767277    0.046187
     89          6           0       27.134459   -2.842745   -0.075242
     90          6           0       25.937148   -4.547731    1.425034
     91          6           0       23.872015   -3.215493   -1.476583
     92          6           0       23.999477   -2.420754   -2.803329
     93          1           0       23.858577   -3.215029   -4.155380
     94          7           0       29.756229   -1.306472    0.067912
     95          6           0       29.627250   -2.601207   -0.189075
     96          6           0       30.976519   -3.181989   -0.428510
     97          6           0       31.928984   -2.054181   -0.223536
     98          6           0       31.056484   -0.889569   -0.070721
     99          6           0       31.241337   -4.652374   -0.609436
    100          6           0       33.430042   -2.141911   -0.313916
    101          8           0       33.946043   -3.241649   -0.497302
    102          6           0       34.420772   -0.921133   -0.256581
    103          7           0       29.543527    1.840566   -0.145055
    104          6           0       30.812002    1.645114   -0.036015
    105          6           0       31.516969    3.074107   -0.047667
    106          6           0       30.313299    3.983652   -0.302771
    107          6           0       29.105192    3.074457   -0.185444
    108          6           0       32.367738    3.499665    1.160581
    109          6           0       30.254263    4.574495   -1.805478
    110          6           0       30.446887    6.094947   -1.953043
    111          7           0       26.697262    1.444746   -0.041304
    112          6           0       26.637838    2.813231   -0.025661
    113          6           0       25.233027    3.274873    0.120786
    114          6           0       24.420680    2.110371    0.017216
    115          6           0       25.408534    1.032969    0.033840
    116          6           0       24.727406    4.734725    0.138050
    117          6           0       23.106706    1.562543   -0.042644
    118          8           0       21.969665    2.046843   -0.174959
    119          6           0       23.266046    0.022861    0.036208
    120          6           0       22.497691   -0.438633    1.277968
    121          8           0       21.452277   -1.014504    1.423261
    122          8           0       23.336237   -0.264186    2.384280
    123          6           0       22.847016   -0.755446    3.709866
    124          1           0       28.406146   -4.357519   -0.291818
    125          1           0       32.592984    0.563858   -0.108973
    126          1           0       27.698207    4.655367    0.096173
    127          1           0       24.069309   -2.878468    0.703402
    128          1           0       25.947866   -4.535008   -0.727669
    129          1           0       25.086257   -4.251729    2.037688
    130          1           0       26.803142   -4.110813    1.921076
    131          1           0       25.995903   -5.620395    1.239619
    132          1           0       22.822176   -3.225806   -1.183322
    133          1           0       24.083522   -4.257965   -1.716929
    134          1           0       24.989320   -1.965074   -2.776537
    135          1           0       23.189722   -1.711315   -2.971109
    136          1           0       32.293250   -4.916591   -0.502989
    137          1           0       30.767737   -4.934120   -1.550620
    138          1           0       30.605845   -5.120827    0.142820
    139          1           0       34.379102   -0.199353    0.560009
    140          1           0       34.231913   -0.295026   -1.128610
    141          1           0       35.462878   -1.239388   -0.255129
    142          1           0       32.250446    3.149151   -0.849753
    143          1           0       30.183450    4.871747    0.316697
    144          1           0       32.412967    2.719155    1.920261
    145          1           0       32.022588    4.443263    1.584514
    146          1           0       33.416663    3.666749    0.915736
    147          1           0       29.294317    4.374979   -2.279742
    148          1           0       31.028620    4.040670   -2.356814
    149          1           0       29.895060    6.561484   -2.769465
    150          1           0       31.502651    6.225195   -2.190578
    151          1           0       30.117395    6.482000   -0.988744
    152          1           0       25.457267    5.479920   -0.176619
    153          1           0       24.472959    4.911338    1.182830
    154          1           0       23.794173    4.776586   -0.423033
    155          1           0       22.828791   -0.430683   -0.852676
    156          1           0       21.774598   -0.752291    3.903593
    157          1           0       23.265802   -0.032652    4.409819
    158          1           0       23.207215   -1.718113    4.073244
 ---------------------------------------------------------------------

 SCF Done:  E(RwB97XD) =  -4070.61037663     A.U. after   19 cycles

 Excitation energies and oscillator strengths:

 Excited State   1:      Singlet-A      1.6649 eV  744.69 nm  f=0.3607  <S**2>=0.000
     310 -> 316        0.17865
     312 -> 314        0.68383
     310 <- 316        0.11335
 This state for optimization and/or second-order correction.
 Total Energy, E(TD-HF/TD-DFT) =  -4070.54919229
 Copying the excited state density for this state as the 1-particle RhoCI density.

 Excited State   2:      Singlet-A      1.7163 eV  722.40 nm  f=0.4084  <S**2>=0.000
     309 -> 315       -0.19063
     311 -> 313        0.68130
     309 <- 315       -0.11531

 Excited State   3:      Singlet-A      2.1965 eV  564.47 nm  f=0.0914  <S**2>=0.000
     310 -> 314        0.62321
     312 -> 316       -0.31715

 Excited State   4:      Singlet-A      2.2310 eV  555.73 nm  f=0.0955  <S**2>=0.000
     309 -> 313        0.63459
     311 -> 315        0.29965

 Excited State   5:      Singlet-A      3.3957 eV  365.12 nm  f=0.0214  <S**2>=0.000
     299 -> 313        0.19174
     299 -> 317       -0.14723
     301 -> 313        0.46759
     301 -> 317       -0.33198
     301 -> 319        0.12876
     303 -> 313       -0.15149
     311 -> 315       -0.15209

 The electronic state is 1-A.
 Alpha  occ. eigenvalues --  -46.96421 -46.95515 -19.31561 -19.29880 -19.25402
 Alpha  occ. eigenvalues --  -19.25194 -19.24782 -19.24615 -19.23587 -19.23459
 Alpha  occ. eigenvalues --  -14.47015 -14.46923 -14.46750 -14.46384 -14.45075
 Alpha  occ. eigenvalues --  -14.44861 -14.44726 -14.43658 -10.43793 -10.43791
 Alpha  occ. eigenvalues --  -10.40753 -10.39786 -10.39561 -10.38741 -10.36312
 Alpha  occ. eigenvalues --  -10.35766 -10.35731 -10.35656 -10.35585 -10.35228
 Alpha  occ. eigenvalues --  -10.35153 -10.35133 -10.35100 -10.34770 -10.34700
 Alpha  occ. eigenvalues --  -10.34512 -10.34434 -10.34420 -10.34184 -10.34078
 Alpha  occ. eigenvalues --  -10.33831 -10.33628 -10.33383 -10.33075 -10.32884
 Alpha  occ. eigenvalues --  -10.32871 -10.32750 -10.32699 -10.32544 -10.32388
 Alpha  occ. eigenvalues --  -10.32191 -10.32125 -10.32073 -10.32053 -10.31984
 Alpha  occ. eigenvalues --  -10.31970 -10.31965 -10.31950 -10.31776 -10.31757
 Alpha  occ. eigenvalues --  -10.31700 -10.31692 -10.31533 -10.31433 -10.31397
 Alpha  occ. eigenvalues --  -10.31381 -10.31325 -10.31131 -10.31130 -10.30988
 Alpha  occ. eigenvalues --  -10.30981 -10.30825 -10.30622 -10.30497 -10.30458
 Alpha  occ. eigenvalues --  -10.30427 -10.30350 -10.30332 -10.30251 -10.30025
 Alpha  occ. eigenvalues --  -10.29924 -10.29781 -10.29615 -10.29550 -10.29263
 Alpha  occ. eigenvalues --  -10.28556  -3.22350  -3.21492  -1.95926  -1.95471
 Alpha  occ. eigenvalues --   -1.95318  -1.95046  -1.94601  -1.94489  -1.19002
 Alpha  occ. eigenvalues --   -1.18264  -1.11749  -1.11643  -1.10898  -1.10529
 Alpha  occ. eigenvalues --   -1.09935  -1.09538  -1.08748  -1.06852  -1.06661
 Alpha  occ. eigenvalues --   -1.06069  -1.06015  -1.05579  -1.05337  -1.04159
 Alpha  occ. eigenvalues --   -0.95627  -0.93346  -0.91738  -0.90804  -0.90737
 Alpha  occ. eigenvalues --   -0.90706  -0.90552  -0.90488  -0.90215  -0.89176
 Alpha  occ. eigenvalues --   -0.88948  -0.88912  -0.88379  -0.87330  -0.86843
 Alpha  occ. eigenvalues --   -0.86223  -0.85843  -0.85759  -0.84793  -0.84394
 Alpha  occ. eigenvalues --   -0.83719  -0.83561  -0.83075  -0.82786  -0.82483
 Alpha  occ. eigenvalues --   -0.82125  -0.80484  -0.79855  -0.79651  -0.79423
 Alpha  occ. eigenvalues --   -0.78956  -0.78679  -0.78630  -0.77796  -0.77319
 Alpha  occ. eigenvalues --   -0.77232  -0.75346  -0.74682  -0.74390  -0.73706
 Alpha  occ. eigenvalues --   -0.71613  -0.71209  -0.71111  -0.70903  -0.70608
 Alpha  occ. eigenvalues --   -0.69819  -0.69514  -0.69271  -0.68791  -0.68036
 Alpha  occ. eigenvalues --   -0.67654  -0.67518  -0.67062  -0.66962  -0.66889
 Alpha  occ. eigenvalues --   -0.66558  -0.65197  -0.64652  -0.62603  -0.62220
 Alpha  occ. eigenvalues --   -0.61899  -0.61597  -0.61459  -0.60931  -0.60590
 Alpha  occ. eigenvalues --   -0.60544  -0.60101  -0.59684  -0.59268  -0.59206
 Alpha  occ. eigenvalues --   -0.58359  -0.57982  -0.57875  -0.57717  -0.57663
 Alpha  occ. eigenvalues --   -0.57224  -0.57042  -0.56949  -0.56521  -0.55924
 Alpha  occ. eigenvalues --   -0.55704  -0.55601  -0.55311  -0.55098  -0.54910
 Alpha  occ. eigenvalues --   -0.54756  -0.54728  -0.54527  -0.53976  -0.53901
 Alpha  occ. eigenvalues --   -0.53676  -0.53542  -0.53517  -0.53277  -0.53229
 Alpha  occ. eigenvalues --   -0.53159  -0.53035  -0.53027  -0.52771  -0.52537
 Alpha  occ. eigenvalues --   -0.51966  -0.51852  -0.51759  -0.51470  -0.51366
 Alpha  occ. eigenvalues --   -0.51230  -0.51012  -0.51002  -0.50810  -0.50485
 Alpha  occ. eigenvalues --   -0.50462  -0.50418  -0.50247  -0.50233  -0.50074
 Alpha  occ. eigenvalues --   -0.49808  -0.49738  -0.49677  -0.49540  -0.49387
 Alpha  occ. eigenvalues --   -0.49384  -0.49217  -0.49107  -0.48886  -0.48808
 Alpha  occ. eigenvalues --   -0.48589  -0.48499  -0.48278  -0.48243  -0.48058
 Alpha  occ. eigenvalues --   -0.47966  -0.47808  -0.47501  -0.47440  -0.47306
 Alpha  occ. eigenvalues --   -0.47138  -0.46795  -0.46723  -0.46339  -0.46132
 Alpha  occ. eigenvalues --   -0.46061  -0.45920  -0.45690  -0.45644  -0.45529
 Alpha  occ. eigenvalues --   -0.45444  -0.45266  -0.45194  -0.45096  -0.44920
 Alpha  occ. eigenvalues --   -0.44590  -0.44500  -0.44361  -0.44265  -0.44086
 Alpha  occ. eigenvalues --   -0.44054  -0.44010  -0.43882  -0.43477  -0.43374
 Alpha  occ. eigenvalues --   -0.43122  -0.43065  -0.42862  -0.42707  -0.42606
 Alpha  occ. eigenvalues --   -0.42492  -0.41891  -0.41598  -0.41261  -0.41155
 Alpha  occ. eigenvalues --   -0.40773  -0.40669  -0.40278  -0.40143  -0.40059
 Alpha  occ. eigenvalues --   -0.39733  -0.39405  -0.38903  -0.38902  -0.38728
 Alpha  occ. eigenvalues --   -0.38375  -0.38285  -0.37074  -0.36838  -0.36765
 Alpha  occ. eigenvalues --   -0.36270  -0.35874  -0.35267  -0.34103  -0.33736
 Alpha  occ. eigenvalues --   -0.33499  -0.33297  -0.33281  -0.32878  -0.32683
 Alpha  occ. eigenvalues --   -0.32394  -0.31930  -0.31433  -0.26431  -0.26123
 Alpha  occ. eigenvalues --   -0.23355  -0.22891
 Alpha virt. eigenvalues --   -0.07274  -0.06905  -0.00138  -0.00112   0.01404
 Alpha virt. eigenvalues --    0.02251   0.03841   0.04073   0.04510   0.04825
 Alpha virt. eigenvalues --    0.06803   0.07167   0.07180   0.07425   0.07960

 Mulliken charges:
               1
     1  Mg   0.973238
     2  C   -0.080454
     3  C   -0.110099
     4  C   -0.086185
     5  C   -0.082954
     6  N   -0.403979
     7  C   -0.008497
     8  C   -0.052779
     9  C   -0.092103
    10  C    0.125907
    11  C    0.013996
    12  C    0.023123
    13  C   -0.127702
    14  H    0.043637
    15  N   -0.430219
    16  C    0.153002
    17  C   -0.190587
    18  C   -0.078462
    19  C    0.194585
    20  C    0.116235
    21  C    0.044346
    22  O   -0.256234
    23  C   -0.009173
    24  N   -0.324977
    25  C    0.022797
    26  C   -0.076392
    27  C   -0.052217
    28  C    0.038578
    29  C    0.010486
    30  C   -0.007610
    31  C   -0.058072
    32  N   -0.440717
    33  C    0.101266
    34  C   -0.206420
    35  C   -0.044036
    36  C    0.153186
    37  C    0.107369
    38  C    0.155545
    39  O   -0.229693
    40  C   -0.059910
    41  C    0.289181
    42  O   -0.247453
    43  O   -0.356431
    44  C    0.133462
    45  H    0.007819
    46  H   -0.019773
    47  H   -0.011107
    48  H    0.025036
    49  H    0.032704
    50  H    0.036848
    51  H    0.034822
    52  H    0.038409
    53  H    0.030658
    54  H    0.030144
    55  H    0.066456
    56  H    0.049614
    57  H    0.065633
    58  H    0.072149
    59  H    0.012172
    60  H    0.080668
    61  H    0.058266
    62  H    0.060666
    63  H    0.046728
    64  H    0.034039
    65  H    0.046863
    66  H    0.033548
    67  H    0.037735
    68  H    0.032991
    69  H    0.028776
    70  H    0.039088
    71  H    0.028602
    72  H    0.041136
    73  H    0.021199
    74  H    0.075387
    75  H    0.050514
    76  H    0.064464
    77  H    0.055250
    78  H    0.052230
    79  H    0.053680
    80  Mg   0.957763
    81  C   -0.036591
    82  C   -0.091673
    83  C   -0.036387
    84  C   -0.103706
    85  N   -0.341109
    86  C   -0.037718
    87  C    0.005181
    88  C   -0.158233
    89  C    0.057844
    90  C    0.033624
    91  C    0.002419
    92  C   -0.149987
    93  H    0.026860
    94  N   -0.476250
    95  C    0.164586
    96  C   -0.173368
    97  C   -0.081346
    98  C    0.167451
    99  C    0.085903
   100  C    0.055536
   101  O   -0.240351
   102  C   -0.027097
   103  N   -0.273875
   104  C    0.045745
   105  C   -0.055760
   106  C   -0.125977
   107  C    0.077390
   108  C    0.014290
   109  C   -0.041891
   110  C   -0.039887
   111  N   -0.402108
   112  C    0.127024
   113  C   -0.186180
   114  C   -0.008826
   115  C    0.161048
   116  C    0.075234
   117  C    0.093742
   118  O   -0.218102
   119  C   -0.083327
   120  C    0.279659
   121  O   -0.209537
   122  O   -0.398033
   123  C    0.134900
   124  H   -0.010878
   125  H   -0.053779
   126  H    0.002659
   127  H    0.040924
   128  H    0.037052
   129  H    0.035426
   130  H    0.038119
   131  H    0.054861
   132  H    0.045325
   133  H    0.044642
   134  H    0.072944
   135  H    0.074354
   136  H    0.077706
   137  H    0.041050
   138  H    0.036952
   139  H    0.056534
   140  H    0.057166
   141  H    0.052412
   142  H    0.035502
   143  H    0.023175
   144  H    0.033247
   145  H    0.036001
   146  H    0.027115
   147  H    0.043325
   148  H    0.025248
   149  H    0.043758
   150  H    0.037813
   151  H    0.028134
   152  H    0.042827
   153  H    0.054950
   154  H    0.069746
   155  H    0.068852
   156  H    0.065905
   157  H    0.044839
   158  H    0.047214
 Sum of Mulliken charges =  -0.00000

 Dipole moment (field-independent basis, Debye):
    X=              0.9917    Y=              4.0711    Z=              1.7290  Tot=              4.5328
 Quadrupole moment (field-independent basis, Debye-Ang):
   XX=           -256.4495   YY=           -536.1632   ZZ=           -506.2534
   XY=             73.7734   XZ=             81.9354   YZ=              6.0400

 Normal termination of Gaussian 16 at Mon Sep 20 18:04:08 2021.
