 Gaussian 16, Revision A.03,
 Gaussian 16:  ES64L-G16RevA.03 25-Dec-2016

 --------------------------------
 #p wB97XD/Def2SVP td=(nstates=5)
 --------------------------------

 --------------------------------
 TDDFT excited states in gaussian
 --------------------------------
 Symbolic Z-matrix:
 Charge =  0 Multiplicity = 1

                         Standard orientation:
 ---------------------------------------------------------------------
 Center     Atomic      Atomic             Coordinates (Angstroms)
 Number     Number       Type             X           Y           Z
 ---------------------------------------------------------------------
      1         12           0       -9.391737    0.219897    0.877165
      2          6           0       -9.171203   -2.253969   -1.674010
      3          6           0       -7.247415   -1.620879    2.812668
      4          6           0       -8.792650    3.061732    2.829631
      5          6           0      -11.094955    2.302470   -1.383456
      6          7           0       -8.126874   -1.680816    0.387992
      7          6           0       -8.375788   -2.604050   -0.555103
      8          6           0       -7.831114   -3.945882   -0.100810
      9          6           0       -7.136291   -3.745565    1.330982
     10          6           0       -7.684482   -2.249338    1.574624
     11          6           0       -7.712743   -4.788971    2.314234
     12          6           0       -6.867610   -4.515581   -1.129493
     13          6           0       -5.934624   -3.509826   -1.844884
     14          1           0       -4.436450   -3.530372   -1.435820
     15          7           0       -8.233829    0.653650    2.672981
     16          6           0       -7.416245   -0.285964    3.262364
     17          6           0       -6.972030    0.300886    4.487621
     18          6           0       -7.308169    1.707944    4.516517
     19          6           0       -8.191707    1.884930    3.336342
     20          6           0       -6.051218   -0.416584    5.447335
     21          6           0       -6.757198    2.786691    5.450396
     22          8           0       -5.908337    2.503222    6.273556
     23          6           0       -7.175896    4.155758    5.408803
     24          7           0       -9.780787    2.395963    0.702987
     25          6           0       -9.569541    3.265197    1.680232
     26          6           0      -10.025449    4.675283    1.342107
     27          6           0      -10.431763    4.464288   -0.179734
     28          6           0      -10.510855    2.985505   -0.304786
     29          6           0      -11.237120    5.203344    2.254945
     30          6           0       -9.389648    5.197784   -1.143679
     31          6           0       -9.806713    6.397469   -1.946380
     32          7           0      -10.204104    0.016253   -0.949855
     33          6           0      -10.986003    0.915376   -1.703318
     34          6           0      -11.493141    0.265120   -2.926027
     35          6           0      -10.813348   -0.952380   -2.895496
     36          6           0       -9.934037   -1.057451   -1.761670
     37          6           0      -12.593156    0.748932   -3.932930
     38          6           0      -10.639901   -2.186661   -3.668054
     39          8           0      -11.140020   -2.604114   -4.725654
     40          6           0       -9.599250   -3.084611   -2.921101
     41          6           0       -8.526165   -3.135919   -3.953227
     42          8           0       -7.959576   -2.179365   -4.416232
     43          8           0       -8.370375   -4.383358   -4.387213
     44          6           0       -7.277457   -4.690309   -5.374757
     45          1           0       -6.823423   -2.311391    3.544502
     46          1           0       -8.747588    4.006412    3.375176
     47          1           0      -11.517549    3.059889   -2.047720
     48          1           0       -8.769053   -4.501217   -0.095550
     49          1           0       -6.048550   -3.800344    1.279714
     50          1           0       -6.888985   -5.403054    2.677586
     51          1           0       -8.430486   -5.480148    1.871644
     52          1           0       -8.124715   -4.216850    3.145099
     53          1           0       -7.429669   -5.032441   -1.907388
     54          1           0       -6.181266   -5.221342   -0.660682
     55          1           0       -6.103872   -2.447564   -1.669207
     56          1           0       -6.043620   -3.746953   -2.903243
     57          1           0       -5.751926   -1.394087    5.068302
     58          1           0       -6.539482   -0.431162    6.422355
     59          1           0       -5.194941    0.234461    5.619973
     60          1           0       -6.937265    4.690500    4.489200
     61          1           0       -6.698954    4.702332    6.222142
     62          1           0       -8.259842    4.076206    5.498289
     63          1           0       -9.220550    5.409580    1.322019
     64          1           0      -11.332367    5.075474   -0.241275
     65          1           0      -11.471169    4.457447    3.015086
     66          1           0      -12.108431    5.299618    1.606864
     67          1           0      -11.100092    6.184653    2.711823
     68          1           0       -9.079843    4.544719   -1.959621
     69          1           0       -8.498964    5.502643   -0.595989
     70          1           0      -10.017576    6.177043   -2.992857
     71          1           0       -8.897788    6.993815   -1.860288
     72          1           0      -10.537827    7.043391   -1.459932
     73          1           0      -12.149881    1.523349   -4.558341
     74          1           0      -13.447462    1.075291   -3.339616
     75          1           0      -12.835965   -0.079082   -4.598669
     76          1           0      -10.114104   -4.021210   -2.703940
     77          1           0       -7.577320   -4.509103   -6.407165
     78          1           0       -6.960212   -5.731239   -5.300083
     79          1           0       -6.449460   -4.046555   -5.077989
     80         12           0        9.145661    0.612928   -0.122516
     81          6           0        7.638635   -2.310580    1.140366
     82          6           0        6.057553    1.898834   -0.706243
     83          6           0       10.644850    3.347300   -1.432322
     84          6           0       12.232803   -0.961963    0.096137
     85          7           0        7.117767   -0.141805    0.083269
     86          6           0        6.731717   -1.319182    0.729734
     87          6           0        5.243298   -1.322776    0.909096
     88          6           0        4.783360   -0.244561   -0.100697
     89          6           0        6.089786    0.575689   -0.256990
     90          6           0        4.297771   -0.729840   -1.503015
     91          6           0        4.726435   -1.056059    2.372882
     92          6           0        3.673728   -2.009685    2.841082
     93          1           0        2.459776   -1.394520    3.562108
     94          7           0        8.446798    2.368811   -0.833305
     95          6           0        7.105692    2.778187   -0.919272
     96          6           0        7.034313    4.099891   -1.400890
     97          6           0        8.405998    4.587633   -1.630920
     98          6           0        9.217418    3.453455   -1.292122
     99          6           0        5.777209    4.835112   -1.763469
    100          6           0        8.980042    5.951614   -2.213087
    101          8           0       10.170826    6.139851   -2.292464
    102          6           0        8.049904    7.095955   -2.589775
    103          7           0       11.150753    1.071896   -0.700803
    104          6           0       11.487885    2.273345   -1.236865
    105          6           0       13.056009    2.309943   -1.568538
    106          6           0       13.611927    1.035548   -0.794597
    107          6           0       12.246077    0.310419   -0.433702
    108          6           0       13.442640    2.286849   -3.073231
    109          6           0       14.470146    1.375508    0.475654
    110          6           0       15.777830    0.703179    0.435289
    111          7           0        9.820973   -1.260626    0.439920
    112          6           0       11.128254   -1.723863    0.580657
    113          6           0       11.119085   -3.051239    1.132604
    114          6           0        9.782330   -3.325806    1.337716
    115          6           0        9.047112   -2.250373    0.949814
    116          6           0       12.421224   -3.827679    1.459913
    117          6           0        8.842321   -4.334700    1.790530
    118          8           0        9.072553   -5.482467    2.101815
    119          6           0        7.368068   -3.704977    1.654561
    120          6           0        6.570584   -4.547135    0.744258
    121          8           0        6.884734   -4.805199   -0.447301
    122          8           0        5.485630   -5.011580    1.428352
    123          6           0        4.799981   -6.161589    0.781526
    124          1           0        5.035544    2.228356   -0.904464
    125          1           0       11.206829    4.180705   -1.858625
    126          1           0       13.200134   -1.467630    0.091774
    127          1           0        4.755074   -2.229104    0.548857
    128          1           0        3.963785    0.373712    0.265954
    129          1           0        3.785611   -1.692741   -1.484909
    130          1           0        5.177130   -0.765889   -2.146598
    131          1           0        3.669828   -0.030883   -2.054918
    132          1           0        4.381152   -0.022402    2.364389
    133          1           0        5.546251   -1.043913    3.091705
    134          1           0        4.259911   -2.664043    3.486493
    135          1           0        3.230111   -2.513893    1.982648
    136          1           0        5.477528    5.626454   -1.076042
    137          1           0        4.935718    4.144868   -1.719499
    138          1           0        5.715335    5.301358   -2.746407
    139          1           0        8.701378    7.939517   -2.814692
    140          1           0        7.286190    7.260645   -1.829135
    141          1           0        7.381772    6.777937   -3.390663
    142          1           0       13.482072    3.258000   -1.239869
    143          1           0       14.186094    0.431862   -1.499024
    144          1           0       12.623662    2.170132   -3.783747
    145          1           0       14.142062    1.488599   -3.322885
    146          1           0       13.942405    3.233494   -3.280374
    147          1           0       13.953133    0.990995    1.355617
    148          1           0       14.691559    2.434829    0.604077
    149          1           0       16.525633    1.420898    0.096963
    150          1           0       15.878132   -0.230018   -0.117824
    151          1           0       16.028747    0.343697    1.433304
    152          1           0       13.253935   -3.124458    1.487130
    153          1           0       12.545902   -4.693449    0.807920
    154          1           0       12.274034   -4.169380    2.483774
    155          1           0        6.871398   -3.631966    2.622410
    156          1           0        4.033105   -6.564786    1.442707
    157          1           0        5.556599   -6.944814    0.729932
    158          1           0        4.461079   -5.815287   -0.195257
 ---------------------------------------------------------------------

 SCF Done:  E(RwB97XD) =  -4070.59099519     A.U. after   20 cycles

 Excitation energies and oscillator strengths:

 Excited State   1:      Singlet-A      1.6283 eV  761.44 nm  f=0.3497  <S**2>=0.000
     309 -> 315       -0.20685
     311 -> 314        0.67854
     309 <- 315       -0.12523
 This state for optimization and/or second-order correction.
 Total Energy, E(TD-HF/TD-DFT) =  -4070.53115668
 Copying the excited state density for this state as the 1-particle RhoCI density.

 Excited State   2:      Singlet-A      1.6895 eV  733.87 nm  f=0.3864  <S**2>=0.000
     310 -> 316       -0.18329
     312 -> 313        0.68256
     310 <- 316       -0.11549

 Excited State   3:      Singlet-A      2.1412 eV  579.05 nm  f=0.0809  <S**2>=0.000
     309 -> 314        0.54668
     310 -> 313       -0.30278
     311 -> 315        0.29310
     312 -> 316       -0.11627

 Excited State   4:      Singlet-A      2.1436 eV  578.39 nm  f=0.1456  <S**2>=0.000
     309 -> 314        0.28584
     310 -> 313        0.57697
     311 -> 315        0.15532
     312 -> 316        0.22381

 Excited State   5:      Singlet-A      3.1993 eV  387.54 nm  f=0.0021  <S**2>=0.000
     306 -> 313        0.29656
     307 -> 313        0.62292

 The electronic state is 1-A.
 Alpha  occ. eigenvalues --  -46.96696 -46.93461 -19.30814 -19.30433 -19.24861
 Alpha  occ. eigenvalues --  -19.24410 -19.24047 -19.23996 -19.23939 -19.23240
 Alpha  occ. eigenvalues --  -14.47170 -14.46711 -14.46585 -14.46009 -14.44897
 Alpha  occ. eigenvalues --  -14.44303 -14.43885 -14.43070 -10.43214 -10.42713
 Alpha  occ. eigenvalues --  -10.40284 -10.39140 -10.38964 -10.38416 -10.36360
 Alpha  occ. eigenvalues --  -10.36265 -10.35868 -10.35552 -10.35163 -10.35158
 Alpha  occ. eigenvalues --  -10.34979 -10.34880 -10.34865 -10.34658 -10.34614
 Alpha  occ. eigenvalues --  -10.34559 -10.34341 -10.34116 -10.34060 -10.33924
 Alpha  occ. eigenvalues --  -10.33152 -10.33092 -10.33073 -10.32998 -10.32963
 Alpha  occ. eigenvalues --  -10.32580 -10.32578 -10.32475 -10.32372 -10.32364
 Alpha  occ. eigenvalues --  -10.32347 -10.32099 -10.32075 -10.32055 -10.31957
 Alpha  occ. eigenvalues --  -10.31874 -10.31764 -10.31716 -10.31701 -10.31630
 Alpha  occ. eigenvalues --  -10.31618 -10.31603 -10.31396 -10.31294 -10.31140
 Alpha  occ. eigenvalues --  -10.31105 -10.30994 -10.30939 -10.30815 -10.30714
 Alpha  occ. eigenvalues --  -10.30556 -10.30500 -10.30293 -10.30268 -10.30218
 Alpha  occ. eigenvalues --  -10.29970 -10.29906 -10.29834 -10.29771 -10.29655
 Alpha  occ. eigenvalues --  -10.29542 -10.29473 -10.29136 -10.29121 -10.28383
 Alpha  occ. eigenvalues --  -10.28259  -3.22490  -3.19595  -1.96035  -1.95637
 Alpha  occ. eigenvalues --   -1.95424  -1.93196  -1.92713  -1.92596  -1.19376
 Alpha  occ. eigenvalues --   -1.17872  -1.13885  -1.12580  -1.12474  -1.11177
 Alpha  occ. eigenvalues --   -1.10045  -1.08451  -1.06859  -1.06747  -1.05828
 Alpha  occ. eigenvalues --   -1.05267  -1.04578  -1.04490  -1.03810  -1.03427
 Alpha  occ. eigenvalues --   -0.94462  -0.94068  -0.90984  -0.90959  -0.90837
 Alpha  occ. eigenvalues --   -0.90477  -0.90314  -0.89861  -0.89173  -0.88878
 Alpha  occ. eigenvalues --   -0.88301  -0.88216  -0.87688  -0.87484  -0.86749
 Alpha  occ. eigenvalues --   -0.86115  -0.86069  -0.85634  -0.84930  -0.84729
 Alpha  occ. eigenvalues --   -0.84680  -0.83973  -0.83201  -0.83064  -0.82557
 Alpha  occ. eigenvalues --   -0.82362  -0.80148  -0.79983  -0.79436  -0.79158
 Alpha  occ. eigenvalues --   -0.78611  -0.78483  -0.78365  -0.77567  -0.77061
 Alpha  occ. eigenvalues --   -0.76749  -0.74996  -0.74784  -0.73865  -0.72833
 Alpha  occ. eigenvalues --   -0.71007  -0.70600  -0.70514  -0.70251  -0.69958
 Alpha  occ. eigenvalues --   -0.69416  -0.68841  -0.68439  -0.67643  -0.67370
 Alpha  occ. eigenvalues --   -0.67312  -0.67027  -0.66922  -0.66498  -0.66181
 Alpha  occ. eigenvalues --   -0.65974  -0.64560  -0.63866  -0.62396  -0.62254
 Alpha  occ. eigenvalues --   -0.62007  -0.61403  -0.61171  -0.61154  -0.60781
 Alpha  occ. eigenvalues --   -0.60080  -0.59963  -0.59611  -0.59518  -0.59406
 Alpha  occ. eigenvalues --   -0.58370  -0.58107  -0.57968  -0.57566  -0.57353
 Alpha  occ. eigenvalues --   -0.57122  -0.57018  -0.56828  -0.56627  -0.55962
 Alpha  occ. eigenvalues --   -0.55656  -0.55549  -0.55452  -0.55279  -0.55166
 Alpha  occ. eigenvalues --   -0.54728  -0.54604  -0.54498  -0.54396  -0.54119
 Alpha  occ. eigenvalues --   -0.53835  -0.53750  -0.53670  -0.53598  -0.53435
 Alpha  occ. eigenvalues --   -0.52895  -0.52746  -0.52742  -0.52370  -0.52216
 Alpha  occ. eigenvalues --   -0.51959  -0.51882  -0.51766  -0.51661  -0.51529
 Alpha  occ. eigenvalues --   -0.51311  -0.51293  -0.51278  -0.51072  -0.51025
 Alpha  occ. eigenvalues --   -0.50625  -0.50576  -0.50331  -0.49853  -0.49812
 Alpha  occ. eigenvalues --   -0.49510  -0.49378  -0.49084  -0.49053  -0.48982
 Alpha  occ. eigenvalues --   -0.48683  -0.48675  -0.48495  -0.48346  -0.48302
 Alpha  occ. eigenvalues --   -0.47976  -0.47887  -0.47699  -0.47693  -0.47567
 Alpha  occ. eigenvalues --   -0.47393  -0.47235  -0.47234  -0.47176  -0.46960
 Alpha  occ. eigenvalues --   -0.46911  -0.46618  -0.46511  -0.46415  -0.46328
 Alpha  occ. eigenvalues --   -0.46202  -0.46068  -0.45745  -0.45647  -0.45281
 Alpha  occ. eigenvalues --   -0.45273  -0.45194  -0.45008  -0.44792  -0.44708
 Alpha  occ. eigenvalues --   -0.44491  -0.44487  -0.44227  -0.44115  -0.43797
 Alpha  occ. eigenvalues --   -0.43712  -0.43604  -0.43497  -0.43401  -0.43061
 Alpha  occ. eigenvalues --   -0.42919  -0.42796  -0.42283  -0.42148  -0.42117
 Alpha  occ. eigenvalues --   -0.41878  -0.41856  -0.40962  -0.40693  -0.40636
 Alpha  occ. eigenvalues --   -0.40198  -0.40057  -0.39800  -0.39669  -0.39533
 Alpha  occ. eigenvalues --   -0.39289  -0.39004  -0.38695  -0.38492  -0.38324
 Alpha  occ. eigenvalues --   -0.37854  -0.37828  -0.36339  -0.36237  -0.36155
 Alpha  occ. eigenvalues --   -0.36037  -0.35762  -0.35300  -0.33740  -0.33673
 Alpha  occ. eigenvalues --   -0.33402  -0.32897  -0.32761  -0.32756  -0.32525
 Alpha  occ. eigenvalues --   -0.32084  -0.31672  -0.31268  -0.26349  -0.25803
 Alpha  occ. eigenvalues --   -0.23267  -0.23260
 Alpha virt. eigenvalues --   -0.07291  -0.07268  -0.00812   0.00721   0.02202
 Alpha virt. eigenvalues --    0.02858   0.04005   0.04432   0.04945   0.06555
 Alpha virt. eigenvalues --    0.06768   0.07028   0.07413   0.08193   0.08752

 Mulliken charges:
               1
     1  Mg   0.942205
     2  C   -0.038331
     3  C   -0.073641
     4  C   -0.078509
     5  C   -0.055534
     6  N   -0.320238
     7  C   -0.052999
     8  C   -0.003060
     9  C   -0.147482
    10  C    0.056740
    11  C    0.022587
    12  C   -0.011620
    13  C   -0.137445
    14  H    0.012284
    15  N   -0.462110
    16  C    0.167622
    17  C   -0.174999
    18  C   -0.086760
    19  C    0.201757
    20  C    0.084749
    21  C    0.035693
    22  O   -0.236020
    23  C    0.005355
    24  N   -0.322877
    25  C    0.047378
    26  C   -0.151717
    27  C   -0.062397
    28  C    0.046702
    29  C    0.017204
    30  C   -0.028896
    31  C   -0.050412
    32  N   -0.501417
    33  C    0.150885
    34  C   -0.184690
    35  C   -0.035024
    36  C    0.186940
    37  C    0.087934
    38  C    0.097899
    39  O   -0.230716
    40  C   -0.050524
    41  C    0.238170
    42  O   -0.236144
    43  O   -0.346681
    44  C    0.130831
    45  H    0.013741
    46  H   -0.019908
    47  H    0.003483
    48  H    0.035570
    49  H    0.061067
    50  H    0.033365
    51  H    0.044758
    52  H    0.040606
    53  H    0.041530
    54  H    0.041286
    55  H    0.087031
    56  H    0.047754
    57  H    0.029720
    58  H    0.048941
    59  H    0.061768
    60  H    0.065990
    61  H    0.056794
    62  H    0.054987
    63  H    0.040182
    64  H    0.018313
    65  H    0.043743
    66  H    0.031395
    67  H    0.046424
    68  H    0.037292
    69  H    0.031758
    70  H    0.053324
    71  H    0.027793
    72  H    0.026924
    73  H    0.054298
    74  H    0.056829
    75  H    0.063226
    76  H    0.068206
    77  H    0.073049
    78  H    0.059376
    79  H    0.066696
    80  Mg   0.978612
    81  C   -0.032789
    82  C   -0.099572
    83  C   -0.063694
    84  C   -0.089728
    85  N   -0.322110
    86  C    0.015279
    87  C   -0.082589
    88  C   -0.128457
    89  C    0.030627
    90  C    0.020641
    91  C    0.044973
    92  C   -0.121809
    93  H    0.032440
    94  N   -0.522931
    95  C    0.242006
    96  C   -0.149052
    97  C   -0.081361
    98  C    0.154371
    99  C    0.041594
   100  C    0.076081
   101  O   -0.213881
   102  C   -0.007388
   103  N   -0.359300
   104  C    0.071841
   105  C   -0.108379
   106  C   -0.079699
   107  C    0.063579
   108  C    0.008374
   109  C    0.027509
   110  C   -0.074012
   111  N   -0.443943
   112  C    0.130199
   113  C   -0.214933
   114  C    0.007890
   115  C    0.121504
   116  C    0.094256
   117  C    0.108309
   118  O   -0.191155
   119  C   -0.041871
   120  C    0.275590
   121  O   -0.282048
   122  O   -0.371919
   123  C    0.141629
   124  H   -0.010557
   125  H    0.021542
   126  H   -0.003810
   127  H    0.026522
   128  H    0.026444
   129  H    0.045046
   130  H    0.042912
   131  H    0.033726
   132  H    0.030607
   133  H    0.029962
   134  H    0.064826
   135  H    0.053790
   136  H    0.051233
   137  H    0.023517
   138  H    0.045382
   139  H    0.070659
   140  H    0.046613
   141  H    0.048648
   142  H    0.037758
   143  H    0.037654
   144  H    0.044164
   145  H    0.029621
   146  H    0.036907
   147  H    0.035402
   148  H    0.037467
   149  H    0.038788
   150  H    0.028135
   151  H    0.026605
   152  H    0.030752
   153  H    0.066259
   154  H    0.049284
   155  H    0.057714
   156  H    0.060056
   157  H    0.063998
   158  H    0.067688
 Sum of Mulliken charges =  -0.00000

 Dipole moment (field-independent basis, Debye):
    X=             -4.9248    Y=              4.0229    Z=              1.0467  Tot=              6.4446
 Quadrupole moment (field-independent basis, Debye-Ang):
   XX=           -495.6927   YY=           -480.0345   ZZ=           -545.0962
   XY=             -0.7545   XZ=            -27.7561   YZ=             -8.4784

 Normal termination of Gaussian 16 at Sat Sep 18 14:05:59 2021.
