 Gaussian 16, Revision A.03,
 Gaussian 16:  ES64L-G16RevA.03 25-Dec-2016

 --------------------------------
 #p wB97XD/Def2SVP td=(nstates=5)
 --------------------------------

 --------------------------------
 TDDFT excited states in gaussian
 --------------------------------
 Symbolic Z-matrix:
 Charge =  0 Multiplicity = 1

                         Standard orientation:
 ---------------------------------------------------------------------
 Center     Atomic      Atomic             Coordinates (Angstroms)
 Number     Number       Type             X           Y           Z
 ---------------------------------------------------------------------
      1         12           0       -8.934691    0.328867    0.494854
      2          6           0       -8.581843   -2.268215   -1.696157
      3          6           0       -6.414115   -1.207343    2.482158
      4          6           0       -8.965549    3.061065    2.474767
      5          6           0      -10.651567    2.119575   -1.951130
      6          7           0       -7.332395   -1.421776    0.180649
      7          6           0       -7.598929   -2.442244   -0.682092
      8          6           0       -6.584243   -3.537666   -0.504855
      9          6           0       -5.844697   -3.175023    0.855699
     10          6           0       -6.552191   -1.844004    1.263167
     11          6           0       -5.560093   -4.305399    1.775901
     12          6           0       -5.611750   -3.927301   -1.716393
     13          6           0       -5.200518   -2.845909   -2.671092
     14          1           0       -3.717636   -2.739028   -2.998094
     15          7           0       -8.019096    0.729760    2.344293
     16          6           0       -7.070913    0.001277    2.993151
     17          6           0       -6.649713    0.627238    4.211505
     18          6           0       -7.493611    1.852628    4.286079
     19          6           0       -8.219305    1.924685    2.999061
     20          6           0       -5.670549    0.162714    5.180749
     21          6           0       -7.616079    2.859250    5.421010
     22          8           0       -6.883695    2.813787    6.344724
     23          6           0       -8.548903    4.037307    5.474302
     24          7           0       -9.574176    2.309176    0.235365
     25          6           0       -9.628828    3.160815    1.270776
     26          6           0      -10.145497    4.615663    0.787598
     27          6           0      -11.006087    4.147625   -0.485108
     28          6           0      -10.334127    2.824499   -0.765085
     29          6           0      -10.956549    5.410595    1.814712
     30          6           0      -11.034077    5.201209   -1.607077
     31          6           0      -12.354530    5.598019   -2.277733
     32          7           0       -9.418366    0.052679   -1.482035
     33          6           0      -10.154680    0.827638   -2.369477
     34          6           0      -10.435211    0.126935   -3.561913
     35          6           0       -9.895393   -1.133240   -3.364135
     36          6           0       -9.272317   -1.147011   -2.066099
     37          6           0      -11.219551    0.603671   -4.745137
     38          6           0       -9.708825   -2.442647   -3.833738
     39          8           0      -10.077162   -2.905134   -4.911565
     40          6           0       -8.721278   -3.184401   -2.888535
     41          6           0       -9.438397   -4.495309   -2.601187
     42          8           0       -8.921837   -5.623527   -2.746318
     43          8           0      -10.653402   -4.185606   -2.036887
     44          6           0      -11.514388   -5.215666   -1.405891
     45          1           0       -5.553930   -1.662218    2.977638
     46          1           0       -8.807231    3.998164    3.012349
     47          1           0      -11.251343    2.662632   -2.683997
     48          1           0       -7.115953   -4.484482   -0.403532
     49          1           0       -4.861311   -2.803514    0.568994
     50          1           0       -5.855989   -4.110822    2.806699
     51          1           0       -4.533794   -4.661645    1.686880
     52          1           0       -6.181220   -5.157601    1.499960
     53          1           0       -6.014331   -4.682698   -2.391329
     54          1           0       -4.644890   -4.236272   -1.317901
     55          1           0       -5.654669   -1.873583   -2.483158
     56          1           0       -5.560396   -3.144283   -3.656307
     57          1           0       -5.667075   -0.926832    5.178986
     58          1           0       -5.848433    0.513420    6.196644
     59          1           0       -4.700839    0.532679    4.845799
     60          1           0       -9.342298    3.556106    4.901905
     61          1           0       -8.161740    4.909953    4.949211
     62          1           0       -8.879032    4.367488    6.459374
     63          1           0       -9.258778    5.135954    0.424212
     64          1           0      -12.049055    3.868946   -0.336623
     65          1           0      -11.998059    5.368573    1.494812
     66          1           0      -10.495247    6.381506    1.992999
     67          1           0      -10.940613    4.966617    2.809622
     68          1           0      -10.364687    4.839008   -2.387808
     69          1           0      -10.516132    6.088377   -1.242396
     70          1           0      -12.591221    6.657299   -2.378895
     71          1           0      -13.215285    5.065592   -1.870992
     72          1           0      -12.271725    5.097365   -3.241876
     73          1           0      -11.800070   -0.169433   -5.249112
     74          1           0      -10.526176    1.041976   -5.463300
     75          1           0      -11.973277    1.349855   -4.490351
     76          1           0       -7.834015   -3.296030   -3.510566
     77          1           0      -12.005714   -4.854884   -0.502435
     78          1           0      -10.888021   -6.071690   -1.154396
     79          1           0      -12.336682   -5.668208   -1.958679
     80         12           0        9.041850    0.728207   -0.033799
     81          6           0        7.710294   -2.467077    0.664302
     82          6           0        5.891729    2.050109    0.052633
     83          6           0       10.286404    3.488270   -1.338875
     84          6           0       12.177950   -0.838934   -0.576751
     85          7           0        7.047379   -0.129650    0.438524
     86          6           0        6.784525   -1.397024    0.689202
     87          6           0        5.389979   -1.485286    1.282370
     88          6           0        4.669501   -0.209192    0.699044
     89          6           0        5.938638    0.655677    0.353399
     90          6           0        3.700655   -0.586765   -0.485238
     91          6           0        5.396432   -1.403366    2.830502
     92          6           0        4.103887   -1.981529    3.557799
     93          1           0        2.917484   -2.547311    2.772626
     94          7           0        8.261090    2.548041   -0.367412
     95          6           0        6.917783    2.975663   -0.209937
     96          6           0        6.857092    4.427331   -0.499921
     97          6           0        8.150199    4.828494   -0.993649
     98          6           0        9.009006    3.625953   -0.930886
     99          6           0        5.642407    5.262612   -0.297536
    100          6           0        8.726088    6.209833   -1.494826
    101          8           0        9.910942    6.397489   -1.802937
    102          6           0        7.761659    7.332267   -1.747326
    103          7           0       10.957811    1.232584   -0.962972
    104          6           0       11.234217    2.443393   -1.368798
    105          6           0       12.639754    2.650670   -1.859323
    106          6           0       13.279326    1.236858   -1.626106
    107          6           0       12.100163    0.493975   -0.921226
    108          6           0       12.668600    3.250402   -3.268222
    109          6           0       14.528920    1.238217   -0.754523
    110          6           0       15.692274    0.276058   -1.188191
    111          7           0        9.901304   -1.260863    0.082836
    112          6           0       11.215415   -1.721363   -0.130250
    113          6           0       11.291306   -3.084308    0.269968
    114          6           0        9.929333   -3.496621    0.424324
    115          6           0        9.149956   -2.369878    0.352930
    116          6           0       12.555825   -3.858610    0.508486
    117          6           0        8.961808   -4.556010    0.798533
    118          8           0        9.145219   -5.732190    1.033951
    119          6           0        7.489653   -3.931147    0.698092
    120          6           0        6.570212   -4.585520    1.676621
    121          8           0        6.678920   -4.588976    2.867352
    122          8           0        5.562385   -5.317358    1.021222
    123          6           0        5.053369   -6.515481    1.721832
    124          1           0        4.913039    2.500486   -0.128021
    125          1           0       10.830954    4.382979   -1.645800
    126          1           0       13.174478   -1.273480   -0.680219
    127          1           0        5.074931   -2.492324    1.009222
    128          1           0        4.081048    0.302737    1.461203
    129          1           0        3.736738   -1.658996   -0.674974
    130          1           0        4.183419   -0.143447   -1.356190
    131          1           0        2.653638   -0.334270   -0.317132
    132          1           0        5.464749   -0.335101    3.040059
    133          1           0        6.302701   -1.902921    3.172695
    134          1           0        3.759194   -1.160996    4.188935
    135          1           0        4.488316   -2.743032    4.236782
    136          1           0        4.793771    4.844414    0.242587
    137          1           0        5.186213    5.564678   -1.239852
    138          1           0        6.006919    6.107763    0.286907
    139          1           0        7.549283    7.941885   -0.869183
    140          1           0        6.910721    6.752030   -2.106273
    141          1           0        8.187890    7.913499   -2.564544
    142          1           0       13.022437    3.369592   -1.135005
    143          1           0       13.544418    0.714210   -2.544340
    144          1           0       11.776378    3.037064   -3.857694
    145          1           0       13.500787    2.757324   -3.769101
    146          1           0       12.809323    4.331492   -3.262918
    147          1           0       14.289751    0.973282    0.275245
    148          1           0       14.779152    2.294763   -0.659817
    149          1           0       15.384513   -0.381403   -2.001111
    150          1           0       15.883386   -0.330572   -0.303238
    151          1           0       16.649679    0.707184   -1.482620
    152          1           0       13.167235   -3.670901   -0.374281
    153          1           0       12.417256   -4.935300    0.608347
    154          1           0       13.090549   -3.441864    1.362598
    155          1           0        7.042825   -4.252133   -0.242329
    156          1           0        4.003951   -6.340666    1.959495
    157          1           0        5.627056   -6.745416    2.620345
    158          1           0        5.150621   -7.328147    1.002004
 ---------------------------------------------------------------------

 SCF Done:  E(RwB97XD) =  -4070.54762204     A.U. after   19 cycles

 Excitation energies and oscillator strengths:

 Excited State   1:      Singlet-A      1.5772 eV  786.12 nm  f=0.3848  <S**2>=0.000
     309 -> 315        0.17481
     311 -> 313        0.68653
     309 <- 315        0.11851
 This state for optimization and/or second-order correction.
 Total Energy, E(TD-HF/TD-DFT) =  -4070.48966193
 Copying the excited state density for this state as the 1-particle RhoCI density.

 Excited State   2:      Singlet-A      1.7669 eV  701.71 nm  f=0.3630  <S**2>=0.000
     310 -> 316        0.19117
     312 -> 314        0.67831
     310 <- 316        0.11012

 Excited State   3:      Singlet-A      2.0922 eV  592.61 nm  f=0.1436  <S**2>=0.000
     309 -> 313        0.64863
     311 -> 315       -0.25820

 Excited State   4:      Singlet-A      2.1198 eV  584.89 nm  f=0.0990  <S**2>=0.000
     310 -> 314        0.63856
     312 -> 316       -0.27437

 Excited State   5:      Singlet-A      3.2782 eV  378.21 nm  f=0.0000  <S**2>=0.000
     312 -> 313        0.70650

 The electronic state is 1-A.
 Alpha  occ. eigenvalues --  -46.96426 -46.94826 -19.31565 -19.28446 -19.25416
 Alpha  occ. eigenvalues --  -19.25381 -19.24421 -19.23720 -19.23283 -19.22307
 Alpha  occ. eigenvalues --  -14.47300 -14.46771 -14.46479 -14.46270 -14.44732
 Alpha  occ. eigenvalues --  -14.44409 -14.44394 -14.42518 -10.44488 -10.42335
 Alpha  occ. eigenvalues --  -10.40817 -10.38720 -10.38463 -10.37590 -10.36643
 Alpha  occ. eigenvalues --  -10.36294 -10.36266 -10.35786 -10.35682 -10.35128
 Alpha  occ. eigenvalues --  -10.35047 -10.34984 -10.34911 -10.34855 -10.34816
 Alpha  occ. eigenvalues --  -10.34606 -10.34572 -10.34268 -10.34017 -10.33618
 Alpha  occ. eigenvalues --  -10.33567 -10.33387 -10.33163 -10.33086 -10.32684
 Alpha  occ. eigenvalues --  -10.32618 -10.32489 -10.32484 -10.32211 -10.32152
 Alpha  occ. eigenvalues --  -10.32106 -10.32048 -10.31991 -10.31940 -10.31924
 Alpha  occ. eigenvalues --  -10.31907 -10.31765 -10.31714 -10.31695 -10.31680
 Alpha  occ. eigenvalues --  -10.31611 -10.31609 -10.31577 -10.31402 -10.31346
 Alpha  occ. eigenvalues --  -10.30883 -10.30871 -10.30820 -10.30804 -10.30780
 Alpha  occ. eigenvalues --  -10.30707 -10.30332 -10.30186 -10.30099 -10.30081
 Alpha  occ. eigenvalues --  -10.30002 -10.29915 -10.29881 -10.29742 -10.29671
 Alpha  occ. eigenvalues --  -10.29655 -10.29493 -10.29365 -10.29125 -10.29056
 Alpha  occ. eigenvalues --  -10.28327  -3.22360  -3.20736  -1.95901  -1.95517
 Alpha  occ. eigenvalues --   -1.95299  -1.94338  -1.93858  -1.93698  -1.17977
 Alpha  occ. eigenvalues --   -1.17282  -1.13702  -1.12738  -1.11766  -1.11660
 Alpha  occ. eigenvalues --   -1.09577  -1.09144  -1.07335  -1.07060  -1.06555
 Alpha  occ. eigenvalues --   -1.06467  -1.05055  -1.04283  -1.03611  -1.03032
 Alpha  occ. eigenvalues --   -0.95861  -0.93689  -0.91846  -0.91113  -0.90806
 Alpha  occ. eigenvalues --   -0.90743  -0.90434  -0.90035  -0.89624  -0.89496
 Alpha  occ. eigenvalues --   -0.89307  -0.89134  -0.87909  -0.87271  -0.86574
 Alpha  occ. eigenvalues --   -0.86031  -0.85865  -0.85538  -0.85122  -0.84800
 Alpha  occ. eigenvalues --   -0.84213  -0.83558  -0.83051  -0.82674  -0.82535
 Alpha  occ. eigenvalues --   -0.81765  -0.80587  -0.80571  -0.79867  -0.79042
 Alpha  occ. eigenvalues --   -0.79031  -0.78766  -0.78247  -0.77553  -0.77256
 Alpha  occ. eigenvalues --   -0.77045  -0.75711  -0.74412  -0.73865  -0.73643
 Alpha  occ. eigenvalues --   -0.72097  -0.71705  -0.71503  -0.70561  -0.70473
 Alpha  occ. eigenvalues --   -0.69188  -0.68686  -0.68596  -0.68329  -0.67905
 Alpha  occ. eigenvalues --   -0.67621  -0.67067  -0.66808  -0.66506  -0.66502
 Alpha  occ. eigenvalues --   -0.65717  -0.65397  -0.62986  -0.62407  -0.62221
 Alpha  occ. eigenvalues --   -0.61577  -0.61042  -0.60981  -0.60531  -0.60168
 Alpha  occ. eigenvalues --   -0.59973  -0.59683  -0.59491  -0.59332  -0.58731
 Alpha  occ. eigenvalues --   -0.58624  -0.58423  -0.57913  -0.57378  -0.57361
 Alpha  occ. eigenvalues --   -0.57181  -0.56973  -0.56515  -0.56114  -0.56062
 Alpha  occ. eigenvalues --   -0.55629  -0.55395  -0.55213  -0.55092  -0.55022
 Alpha  occ. eigenvalues --   -0.54712  -0.54544  -0.54162  -0.54093  -0.53886
 Alpha  occ. eigenvalues --   -0.53880  -0.53850  -0.53627  -0.53443  -0.53232
 Alpha  occ. eigenvalues --   -0.53158  -0.53119  -0.52817  -0.52767  -0.52662
 Alpha  occ. eigenvalues --   -0.52408  -0.52031  -0.52029  -0.51897  -0.51736
 Alpha  occ. eigenvalues --   -0.51567  -0.51234  -0.51137  -0.51063  -0.50796
 Alpha  occ. eigenvalues --   -0.50592  -0.50258  -0.50200  -0.49928  -0.49899
 Alpha  occ. eigenvalues --   -0.49707  -0.49600  -0.49432  -0.49406  -0.49272
 Alpha  occ. eigenvalues --   -0.49186  -0.49160  -0.48934  -0.48890  -0.48505
 Alpha  occ. eigenvalues --   -0.48496  -0.48392  -0.48182  -0.48038  -0.47692
 Alpha  occ. eigenvalues --   -0.47580  -0.47451  -0.47378  -0.47303  -0.47082
 Alpha  occ. eigenvalues --   -0.46936  -0.46912  -0.46720  -0.46241  -0.46118
 Alpha  occ. eigenvalues --   -0.46063  -0.45840  -0.45601  -0.45425  -0.45280
 Alpha  occ. eigenvalues --   -0.45104  -0.44968  -0.44776  -0.44675  -0.44668
 Alpha  occ. eigenvalues --   -0.44491  -0.44488  -0.44165  -0.44146  -0.44054
 Alpha  occ. eigenvalues --   -0.43896  -0.43762  -0.43578  -0.43540  -0.43418
 Alpha  occ. eigenvalues --   -0.43327  -0.43226  -0.43021  -0.42855  -0.42578
 Alpha  occ. eigenvalues --   -0.42293  -0.41978  -0.41847  -0.41063  -0.40926
 Alpha  occ. eigenvalues --   -0.40747  -0.40657  -0.40066  -0.39672  -0.39551
 Alpha  occ. eigenvalues --   -0.39546  -0.39078  -0.38337  -0.38280  -0.37661
 Alpha  occ. eigenvalues --   -0.37630  -0.37322  -0.36906  -0.36178  -0.35968
 Alpha  occ. eigenvalues --   -0.35736  -0.35438  -0.35170  -0.33919  -0.33876
 Alpha  occ. eigenvalues --   -0.33362  -0.33186  -0.32691  -0.32466  -0.31984
 Alpha  occ. eigenvalues --   -0.31652  -0.30521  -0.30343  -0.26508  -0.25618
 Alpha  occ. eigenvalues --   -0.23644  -0.23108
 Alpha virt. eigenvalues --   -0.08159  -0.06768  -0.00144  -0.00048   0.01934
 Alpha virt. eigenvalues --    0.02220   0.03969   0.04711   0.04929   0.06085
 Alpha virt. eigenvalues --    0.06559   0.07022   0.07233   0.08154   0.08371

 Mulliken charges:
               1
     1  Mg   0.958380
     2  C    0.008543
     3  C   -0.083350
     4  C   -0.084005
     5  C   -0.096648
     6  N   -0.330874
     7  C   -0.005374
     8  C   -0.018959
     9  C   -0.091629
    10  C    0.035287
    11  C    0.041512
    12  C   -0.010770
    13  C   -0.168667
    14  H    0.029512
    15  N   -0.448479
    16  C    0.171512
    17  C   -0.182017
    18  C   -0.096757
    19  C    0.137161
    20  C    0.086384
    21  C    0.013367
    22  O   -0.209834
    23  C   -0.014920
    24  N   -0.361583
    25  C    0.084146
    26  C   -0.139139
    27  C   -0.084130
    28  C    0.074730
    29  C    0.050139
    30  C   -0.015306
    31  C   -0.044782
    32  N   -0.442148
    33  C    0.139245
    34  C   -0.188116
    35  C    0.058776
    36  C    0.109979
    37  C    0.078461
    38  C    0.062572
    39  O   -0.216130
    40  C   -0.121570
    41  C    0.312985
    42  O   -0.256377
    43  O   -0.379324
    44  C    0.144886
    45  H    0.008426
    46  H    0.003499
    47  H   -0.014171
    48  H    0.042478
    49  H    0.049199
    50  H    0.035746
    51  H    0.041578
    52  H    0.027271
    53  H    0.059532
    54  H    0.045243
    55  H    0.064149
    56  H    0.056127
    57  H    0.032150
    58  H    0.063435
    59  H    0.053105
    60  H    0.032589
    61  H    0.070531
    62  H    0.058171
    63  H    0.055634
    64  H    0.040830
    65  H    0.039088
    66  H    0.039371
    67  H    0.032479
    68  H    0.030049
    69  H    0.027498
    70  H    0.056441
    71  H    0.026041
    72  H    0.030928
    73  H    0.061182
    74  H    0.060797
    75  H    0.032041
    76  H    0.065634
    77  H    0.053634
    78  H    0.054105
    79  H    0.058496
    80  Mg   0.949719
    81  C    0.045659
    82  C   -0.094929
    83  C   -0.065574
    84  C   -0.086105
    85  N   -0.314287
    86  C    0.001321
    87  C   -0.120861
    88  C   -0.103180
    89  C    0.089378
    90  C    0.035013
    91  C   -0.006396
    92  C   -0.094515
    93  H    0.040239
    94  N   -0.554552
    95  C    0.175975
    96  C   -0.150997
    97  C   -0.082906
    98  C    0.208183
    99  C    0.035300
   100  C    0.082136
   101  O   -0.237372
   102  C   -0.013289
   103  N   -0.304406
   104  C   -0.029782
   105  C   -0.047685
   106  C   -0.103725
   107  C    0.058331
   108  C    0.030163
   109  C   -0.003879
   110  C   -0.057117
   111  N   -0.438325
   112  C    0.134244
   113  C   -0.193283
   114  C   -0.035327
   115  C    0.077344
   116  C    0.080530
   117  C    0.135359
   118  O   -0.202715
   119  C   -0.093181
   120  C    0.220857
   121  O   -0.208153
   122  O   -0.410359
   123  C    0.136885
   124  H    0.001729
   125  H    0.012895
   126  H   -0.022086
   127  H    0.031864
   128  H    0.036434
   129  H    0.038166
   130  H    0.033151
   131  H    0.048474
   132  H    0.023697
   133  H    0.054591
   134  H    0.042279
   135  H    0.065383
   136  H    0.043282
   137  H    0.065221
   138  H    0.060713
   139  H    0.080031
   140  H    0.041634
   141  H    0.065099
   142  H    0.042209
   143  H    0.040182
   144  H    0.046709
   145  H    0.033085
   146  H    0.056249
   147  H    0.030819
   148  H    0.022330
   149  H    0.035982
   150  H    0.038507
   151  H    0.045629
   152  H    0.035928
   153  H    0.058376
   154  H    0.050902
   155  H    0.080280
   156  H    0.051397
   157  H    0.069299
   158  H    0.055826
 Sum of Mulliken charges =  -0.00000

 Dipole moment (field-independent basis, Debye):
    X=             -5.0778    Y=              8.0568    Z=             -0.6895  Tot=              9.5484
 Quadrupole moment (field-independent basis, Debye-Ang):
   XX=           -434.6345   YY=           -507.9517   ZZ=           -560.2129
   XY=              5.9627   XZ=            -32.9517   YZ=            -24.7773

 Normal termination of Gaussian 16 at Sat Sep 18 21:18:52 2021.
