 Gaussian 16, Revision A.03,
 Gaussian 16:  ES64L-G16RevA.03 25-Dec-2016

 --------------------------------
 #p wB97XD/Def2SVP td=(nstates=5)
 --------------------------------

 --------------------------------
 TDDFT excited states in gaussian
 --------------------------------
 Symbolic Z-matrix:
 Charge =  0 Multiplicity = 1

                         Standard orientation:
 ---------------------------------------------------------------------
 Center     Atomic      Atomic             Coordinates (Angstroms)
 Number     Number       Type             X           Y           Z
 ---------------------------------------------------------------------
      1         12           0       13.298491    0.490037   -0.104322
      2          6           0       11.423923   -1.839609    1.509445
      3          6           0       14.944075   -1.852123   -2.030305
      4          6           0       15.210344    2.992810   -1.447568
      5          6           0       11.969674    2.985061    2.153993
      6          7           0       13.327816   -1.603212   -0.077884
      7          6           0       12.269528   -2.383870    0.496994
      8          6           0       12.261983   -3.752343   -0.057052
      9          6           0       13.645195   -3.776880   -0.849724
     10          6           0       14.042816   -2.327662   -1.020768
     11          6           0       14.799029   -4.599444   -0.085364
     12          6           0       10.957599   -4.142093   -0.818138
     13          6           0       10.412396   -5.496476   -0.497405
     14          1           0       11.477185   -6.648913   -0.315754
     15          7           0       14.814785    0.567580   -1.596773
     16          6           0       15.319813   -0.534508   -2.220243
     17          6           0       16.296529   -0.087977   -3.153447
     18          6           0       16.359844    1.358957   -3.093493
     19          6           0       15.364402    1.753634   -2.041264
     20          6           0       17.163793   -1.071035   -3.969820
     21          6           0       17.137912    2.382117   -3.860370
     22          8           0       17.204614    3.601127   -3.666398
     23          6           0       17.931244    1.825905   -5.102818
     24          7           0       13.648929    2.719005    0.366051
     25          6           0       14.389596    3.488318   -0.392289
     26          6           0       14.166123    4.972784   -0.111118
     27          6           0       13.125339    4.948524    1.044554
     28          6           0       12.899707    3.448819    1.226163
     29          6           0       15.513079    5.766431    0.284748
     30          6           0       11.811954    5.711332    0.566676
     31          6           0       10.921718    5.137820   -0.563403
     32          7           0       12.088138    0.554333    1.616757
     33          6           0       11.618372    1.624357    2.354715
     34          6           0       10.599552    1.079243    3.274850
     35          6           0       10.437123   -0.249772    3.022114
     36          6           0       11.394687   -0.521197    1.978537
     37          6           0        9.991092    1.848171    4.396595
     38          6           0        9.730608   -1.482167    3.370748
     39          8           0        8.872925   -1.707227    4.208101
     40          6           0       10.375082   -2.553978    2.386253
     41          6           0       11.054290   -3.561985    3.225455
     42          8           0       11.936332   -3.376471    4.081935
     43          8           0       10.476337   -4.756903    2.847312
     44          6           0       11.119200   -5.949030    3.415472
     45          1           0       15.449148   -2.555727   -2.695138
     46          1           0       15.766732    3.753567   -2.000241
     47          1           0       11.500028    3.735999    2.791745
     48          1           0       12.312446   -4.397708    0.820825
     49          1           0       13.460330   -4.215747   -1.829723
     50          1           0       14.425162   -5.228345    0.722601
     51          1           0       15.398064   -3.856382    0.440866
     52          1           0       15.341103   -5.084017   -0.896366
     53          1           0       11.138460   -4.116611   -1.892765
     54          1           0       10.254497   -3.376187   -0.491127
     55          1           0        9.785340   -5.902375   -1.290249
     56          1           0        9.741553   -5.656868    0.346712
     57          1           0       16.671474   -1.547614   -4.817440
     58          1           0       17.502510   -1.769402   -3.204720
     59          1           0       17.986914   -0.581324   -4.489722
     60          1           0       18.796519    1.266402   -4.747264
     61          1           0       18.075518    2.647816   -5.803828
     62          1           0       17.338604    1.170867   -5.741742
     63          1           0       13.712481    5.426128   -0.992153
     64          1           0       13.474120    5.432430    1.956898
     65          1           0       15.768334    6.370908   -0.586367
     66          1           0       16.322899    5.060987    0.473665
     67          1           0       15.499360    6.474833    1.112064
     68          1           0       11.957031    6.759078    0.303964
     69          1           0       11.198009    5.643183    1.465335
     70          1           0        9.990162    4.920973   -0.040456
     71          1           0       11.363494    4.267102   -1.046326
     72          1           0       10.728436    5.840830   -1.373629
     73          1           0        8.992050    1.418408    4.462714
     74          1           0        9.964967    2.921977    4.210303
     75          1           0       10.445151    1.486812    5.318356
     76          1           0        9.461539   -2.982869    1.975287
     77          1           0       10.448018   -6.744635    3.090714
     78          1           0       11.029054   -5.847927    4.497027
     79          1           0       12.181974   -6.062869    3.200811
     80         12           0      -13.592216    0.481817    0.235352
     81          6           0      -11.112941   -1.809846   -0.821001
     82          6           0      -15.805814   -1.881840   -0.299713
     83          6           0      -15.822811    2.922197    0.203522
     84          6           0      -11.045835    2.951780    0.026536
     85          7           0      -13.347794   -1.697238   -0.333378
     86          6           0      -12.326159   -2.418558   -0.620176
     87          6           0      -12.703532   -3.913546   -0.665901
     88          6           0      -14.286120   -3.877516   -0.975170
     89          6           0      -14.523199   -2.359341   -0.585152
     90          6           0      -14.725040   -4.212328   -2.455520
     91          6           0      -12.450671   -4.612803    0.770061
     92          6           0      -12.018828   -6.112525    0.856521
     93          1           0      -12.506467   -7.044472   -0.313323
     94          7           0      -15.569842    0.499118    0.195043
     95          6           0      -16.321428   -0.652719    0.017451
     96          6           0      -17.778301   -0.275932    0.059924
     97          6           0      -17.765423    1.169039    0.249023
     98          6           0      -16.387585    1.667507    0.225872
     99          6           0      -18.865891   -1.315966   -0.132153
    100          6           0      -18.963877    2.071555    0.443756
    101          8           0      -18.906045    3.303750    0.558440
    102          6           0      -20.302128    1.459496    0.543517
    103          7           0      -13.443000    2.711139    0.233437
    104          6           0      -14.546216    3.434814    0.173466
    105          6           0      -14.217600    4.959297    0.499683
    106          6           0      -12.596819    4.924083    0.405255
    107          6           0      -12.338681    3.427971    0.248150
    108          6           0      -14.931803    5.978560   -0.448265
    109          6           0      -11.778383    5.528388    1.593121
    110          6           0      -11.010295    6.796030    1.320067
    111          7           0      -11.432673    0.586219   -0.076124
    112          6           0      -10.591904    1.680518   -0.120909
    113          6           0       -9.304074    1.282277   -0.510870
    114          6           0       -9.478005   -0.076535   -0.835167
    115          6           0      -10.771510   -0.479520   -0.601593
    116          6           0       -8.115056    2.093999   -0.639499
    117          6           0       -8.724621   -1.199431   -1.239753
    118          8           0       -7.506044   -1.441537   -1.455703
    119          6           0       -9.826468   -2.319901   -1.510873
    120          6           0       -9.354051   -3.637554   -1.015941
    121          8           0       -9.098611   -3.962013    0.141902
    122          8           0       -9.353794   -4.530387   -2.133723
    123          6           0       -8.908917   -5.908380   -1.889591
    124          1           0      -16.486708   -2.734174   -0.356431
    125          1           0      -16.573644    3.712654    0.254437
    126          1           0      -10.254800    3.705308    0.042116
    127          1           0      -12.285496   -4.318531   -1.587128
    128          1           0      -14.763168   -4.667066   -0.395549
    129          1           0      -13.878445   -4.210414   -3.141748
    130          1           0      -15.403123   -3.457791   -2.853855
    131          1           0      -15.175466   -5.203902   -2.412211
    132          1           0      -13.311742   -4.477555    1.424744
    133          1           0      -11.698714   -4.027108    1.299226
    134          1           0      -12.346713   -6.611724    1.768895
    135          1           0      -10.943567   -6.135905    0.675105
    136          1           0      -19.673084   -1.205370    0.592832
    137          1           0      -18.495194   -2.339606   -0.078367
    138          1           0      -19.194528   -1.304306   -1.171072
    139          1           0      -20.536154    0.877631   -0.348426
    140          1           0      -21.054085    2.236446    0.681721
    141          1           0      -20.457337    0.801733    1.398715
    142          1           0      -14.448615    5.227609    1.530512
    143          1           0      -12.233391    5.295277   -0.554125
    144          1           0      -15.459944    5.451670   -1.243173
    145          1           0      -14.094508    6.623045   -0.716753
    146          1           0      -15.564984    6.601152    0.182517
    147          1           0      -11.047266    4.778368    1.895655
    148          1           0      -12.439860    5.685889    2.445263
    149          1           0      -11.361303    7.091183    0.332129
    150          1           0       -9.955040    6.532772    1.238966
    151          1           0      -11.238548    7.600381    2.018271
    152          1           0       -8.002665    2.634759    0.299829
    153          1           0       -8.190788    2.949901   -1.310230
    154          1           0       -7.248853    1.451966   -0.800538
    155          1           0      -10.003964   -2.366036   -2.585809
    156          1           0       -8.864900   -6.470737   -2.822651
    157          1           0       -9.692727   -6.431457   -1.341433
    158          1           0       -7.904222   -5.890353   -1.468580
 ---------------------------------------------------------------------

 SCF Done:  E(RwB97XD) =  -4070.57309285     A.U. after   19 cycles

 Excitation energies and oscillator strengths:

 Excited State   1:      Singlet-A      1.6455 eV  753.46 nm  f=0.3951  <S**2>=0.000
     309 -> 316        0.19180
     312 -> 314        0.68149
     309 <- 316        0.11822
 This state for optimization and/or second-order correction.
 Total Energy, E(TD-HF/TD-DFT) =  -4070.51262080
 Copying the excited state density for this state as the 1-particle RhoCI density.

 Excited State   2:      Singlet-A      1.7434 eV  711.16 nm  f=0.3550  <S**2>=0.000
     310 -> 315       -0.21772
     311 -> 313        0.67287
     310 <- 315       -0.11922

 Excited State   3:      Singlet-A      2.1694 eV  571.50 nm  f=0.0770  <S**2>=0.000
     310 -> 313        0.62751
     311 -> 315        0.30970

 Excited State   4:      Singlet-A      2.2136 eV  560.11 nm  f=0.0446  <S**2>=0.000
     309 -> 314        0.60812
     312 -> 316       -0.34953

 Excited State   5:      Singlet-A      3.3073 eV  374.88 nm  f=0.0354  <S**2>=0.000
     306 -> 313       -0.13211
     308 -> 313        0.60500
     311 -> 315       -0.28131

 The electronic state is 1-A.
 Alpha  occ. eigenvalues --  -46.95727 -46.95515 -19.30771 -19.29184 -19.25149
 Alpha  occ. eigenvalues --  -19.25111 -19.24507 -19.24492 -19.24030 -19.23531
 Alpha  occ. eigenvalues --  -14.46816 -14.46714 -14.46709 -14.46290 -14.44612
 Alpha  occ. eigenvalues --  -14.44034 -14.43984 -14.43179 -10.43278 -10.43160
 Alpha  occ. eigenvalues --  -10.39666 -10.39329 -10.39087 -10.38525 -10.35982
 Alpha  occ. eigenvalues --  -10.35733 -10.35580 -10.35482 -10.35024 -10.34838
 Alpha  occ. eigenvalues --  -10.34812 -10.34802 -10.34700 -10.34632 -10.34438
 Alpha  occ. eigenvalues --  -10.34347 -10.34282 -10.34067 -10.33883 -10.33486
 Alpha  occ. eigenvalues --  -10.33370 -10.33311 -10.32951 -10.32755 -10.32722
 Alpha  occ. eigenvalues --  -10.32699 -10.32557 -10.32511 -10.32382 -10.32365
 Alpha  occ. eigenvalues --  -10.32361 -10.32309 -10.32078 -10.31967 -10.31930
 Alpha  occ. eigenvalues --  -10.31883 -10.31859 -10.31734 -10.31656 -10.31654
 Alpha  occ. eigenvalues --  -10.31576 -10.31571 -10.31462 -10.31461 -10.31394
 Alpha  occ. eigenvalues --  -10.31346 -10.31334 -10.31321 -10.31007 -10.30404
 Alpha  occ. eigenvalues --  -10.30388 -10.30362 -10.30263 -10.30242 -10.30163
 Alpha  occ. eigenvalues --  -10.30065 -10.29792 -10.29692 -10.29689 -10.29669
 Alpha  occ. eigenvalues --  -10.29655 -10.29333 -10.29225 -10.29214 -10.28670
 Alpha  occ. eigenvalues --  -10.28654  -3.21639  -3.21373  -1.95230  -1.94962
 Alpha  occ. eigenvalues --   -1.94770  -1.94586  -1.94484  -1.94341  -1.18031
 Alpha  occ. eigenvalues --   -1.16111  -1.12325  -1.11795  -1.11632  -1.09559
 Alpha  occ. eigenvalues --   -1.09508  -1.08934  -1.07792  -1.07214  -1.07052
 Alpha  occ. eigenvalues --   -1.05698  -1.05552  -1.04872  -1.03648  -1.03512
 Alpha  occ. eigenvalues --   -0.94954  -0.94244  -0.91424  -0.90953  -0.90578
 Alpha  occ. eigenvalues --   -0.90518  -0.89824  -0.89800  -0.89483  -0.89267
 Alpha  occ. eigenvalues --   -0.89118  -0.88857  -0.88767  -0.88152  -0.86495
 Alpha  occ. eigenvalues --   -0.86217  -0.85870  -0.85194  -0.84646  -0.84212
 Alpha  occ. eigenvalues --   -0.83954  -0.83448  -0.83387  -0.83101  -0.82633
 Alpha  occ. eigenvalues --   -0.81855  -0.80940  -0.79972  -0.79651  -0.79198
 Alpha  occ. eigenvalues --   -0.79053  -0.78891  -0.77830  -0.77642  -0.77172
 Alpha  occ. eigenvalues --   -0.76840  -0.75223  -0.74362  -0.74249  -0.74089
 Alpha  occ. eigenvalues --   -0.71714  -0.71137  -0.70942  -0.70504  -0.70231
 Alpha  occ. eigenvalues --   -0.69892  -0.69366  -0.69206  -0.67889  -0.67580
 Alpha  occ. eigenvalues --   -0.67556  -0.67176  -0.66861  -0.66597  -0.66594
 Alpha  occ. eigenvalues --   -0.66288  -0.64419  -0.63261  -0.62546  -0.62246
 Alpha  occ. eigenvalues --   -0.62124  -0.61299  -0.61299  -0.60826  -0.60687
 Alpha  occ. eigenvalues --   -0.60353  -0.59845  -0.59724  -0.59404  -0.59297
 Alpha  occ. eigenvalues --   -0.58966  -0.57827  -0.57758  -0.57410  -0.57390
 Alpha  occ. eigenvalues --   -0.56857  -0.56826  -0.56311  -0.56285  -0.55740
 Alpha  occ. eigenvalues --   -0.55473  -0.55370  -0.55115  -0.55070  -0.55035
 Alpha  occ. eigenvalues --   -0.54884  -0.54557  -0.54401  -0.54224  -0.54187
 Alpha  occ. eigenvalues --   -0.54120  -0.54012  -0.53832  -0.53458  -0.53368
 Alpha  occ. eigenvalues --   -0.53083  -0.52907  -0.52844  -0.52758  -0.52508
 Alpha  occ. eigenvalues --   -0.52265  -0.51835  -0.51739  -0.51497  -0.51488
 Alpha  occ. eigenvalues --   -0.51137  -0.51110  -0.50815  -0.50740  -0.50618
 Alpha  occ. eigenvalues --   -0.50415  -0.50388  -0.50311  -0.50311  -0.50004
 Alpha  occ. eigenvalues --   -0.49958  -0.49729  -0.49564  -0.49543  -0.49246
 Alpha  occ. eigenvalues --   -0.49229  -0.49094  -0.49006  -0.48727  -0.48727
 Alpha  occ. eigenvalues --   -0.48624  -0.48247  -0.48054  -0.48048  -0.47685
 Alpha  occ. eigenvalues --   -0.47522  -0.47432  -0.47292  -0.47033  -0.46870
 Alpha  occ. eigenvalues --   -0.46620  -0.46400  -0.46189  -0.45900  -0.45851
 Alpha  occ. eigenvalues --   -0.45766  -0.45497  -0.45338  -0.45241  -0.45090
 Alpha  occ. eigenvalues --   -0.44919  -0.44864  -0.44792  -0.44646  -0.44554
 Alpha  occ. eigenvalues --   -0.44230  -0.43984  -0.43928  -0.43889  -0.43790
 Alpha  occ. eigenvalues --   -0.43618  -0.43574  -0.43531  -0.43354  -0.43116
 Alpha  occ. eigenvalues --   -0.42949  -0.42656  -0.42603  -0.42533  -0.42325
 Alpha  occ. eigenvalues --   -0.42236  -0.41977  -0.41607  -0.41318  -0.40952
 Alpha  occ. eigenvalues --   -0.40421  -0.39909  -0.39768  -0.39441  -0.39408
 Alpha  occ. eigenvalues --   -0.39014  -0.38628  -0.38395  -0.38266  -0.38183
 Alpha  occ. eigenvalues --   -0.38098  -0.37611  -0.36582  -0.36536  -0.36121
 Alpha  occ. eigenvalues --   -0.35895  -0.35636  -0.35634  -0.34015  -0.33341
 Alpha  occ. eigenvalues --   -0.33227  -0.33031  -0.32896  -0.32619  -0.32439
 Alpha  occ. eigenvalues --   -0.32310  -0.32007  -0.31466  -0.26268  -0.26091
 Alpha  occ. eigenvalues --   -0.23492  -0.22680
 Alpha virt. eigenvalues --   -0.06965  -0.06752  -0.00735  -0.00383   0.01817
 Alpha virt. eigenvalues --    0.01887   0.04310   0.04357   0.05148   0.05437
 Alpha virt. eigenvalues --    0.06741   0.07029   0.07539   0.07862   0.07892

 Mulliken charges:
               1
     1  Mg   0.932747
     2  C   -0.005032
     3  C   -0.105884
     4  C   -0.037238
     5  C   -0.077780
     6  N   -0.442424
     7  C   -0.001149
     8  C   -0.039736
     9  C   -0.135833
    10  C    0.130574
    11  C    0.033352
    12  C    0.069876
    13  C   -0.138331
    14  H    0.000178
    15  N   -0.460796
    16  C    0.168956
    17  C   -0.150561
    18  C   -0.078215
    19  C    0.134166
    20  C    0.056708
    21  C    0.061874
    22  O   -0.237701
    23  C   -0.054817
    24  N   -0.260593
    25  C    0.017961
    26  C   -0.075211
    27  C   -0.047637
    28  C    0.027283
    29  C   -0.001668
    30  C   -0.063216
    31  C   -0.056313
    32  N   -0.406674
    33  C    0.141186
    34  C   -0.240794
    35  C   -0.006177
    36  C    0.120230
    37  C    0.082589
    38  C    0.139384
    39  O   -0.194365
    40  C   -0.109506
    41  C    0.275634
    42  O   -0.259225
    43  O   -0.369819
    44  C    0.139911
    45  H    0.001401
    46  H    0.024097
    47  H    0.003036
    48  H    0.030657
    49  H    0.027184
    50  H    0.043592
    51  H    0.045564
    52  H    0.050178
    53  H    0.039627
    54  H    0.042021
    55  H    0.044132
    56  H    0.061724
    57  H    0.055312
    58  H    0.062128
    59  H    0.016633
    60  H    0.079204
    61  H    0.051643
    62  H    0.042003
    63  H    0.050123
    64  H    0.038950
    65  H    0.042590
    66  H    0.048574
    67  H    0.040590
    68  H    0.041523
    69  H    0.020596
    70  H    0.044747
    71  H    0.039857
    72  H    0.038643
    73  H    0.047447
    74  H    0.040261
    75  H    0.066162
    76  H    0.068860
    77  H    0.059631
    78  H    0.056188
    79  H    0.059213
    80  Mg   0.950872
    81  C   -0.001393
    82  C   -0.092603
    83  C   -0.057207
    84  C   -0.097649
    85  N   -0.289308
    86  C   -0.079980
    87  C   -0.021963
    88  C   -0.152146
    89  C    0.044795
    90  C    0.020234
    91  C    0.019220
    92  C   -0.121900
    93  H   -0.003319
    94  N   -0.573587
    95  C    0.230484
    96  C   -0.157395
    97  C   -0.064091
    98  C    0.176518
    99  C    0.067601
   100  C    0.057122
   101  O   -0.243293
   102  C   -0.029468
   103  N   -0.281902
   104  C    0.040491
   105  C   -0.118671
   106  C   -0.082451
   107  C    0.022909
   108  C    0.039328
   109  C   -0.018102
   110  C   -0.035001
   111  N   -0.420972
   112  C    0.154740
   113  C   -0.151975
   114  C   -0.029638
   115  C    0.146311
   116  C    0.092490
   117  C    0.133322
   118  O   -0.250627
   119  C   -0.095384
   120  C    0.288682
   121  O   -0.246327
   122  O   -0.409299
   123  C    0.146631
   124  H   -0.006552
   125  H    0.019227
   126  H   -0.015401
   127  H    0.024904
   128  H    0.044111
   129  H    0.036881
   130  H    0.039574
   131  H    0.044078
   132  H    0.028311
   133  H    0.057794
   134  H    0.065817
   135  H    0.078903
   136  H    0.055797
   137  H    0.031554
   138  H    0.060626
   139  H    0.053836
   140  H    0.050847
   141  H    0.060076
   142  H    0.047747
   143  H    0.033857
   144  H    0.061709
   145  H    0.028963
   146  H    0.039262
   147  H    0.034297
   148  H    0.025117
   149  H    0.022610
   150  H    0.040464
   151  H    0.046589
   152  H    0.030029
   153  H    0.045459
   154  H    0.072000
   155  H    0.082373
   156  H    0.043987
   157  H    0.042293
   158  H    0.066759
 Sum of Mulliken charges =  -0.00000

 Dipole moment (field-independent basis, Debye):
    X=             -4.3953    Y=             -2.0716    Z=             -4.1203  Tot=              6.3708
 Quadrupole moment (field-independent basis, Debye-Ang):
   XX=           -415.6416   YY=           -458.7518   ZZ=           -522.6909
   XY=              6.0770   XZ=            -47.3159   YZ=             28.4420

 Normal termination of Gaussian 16 at Fri Sep 17 21:13:11 2021.
