 Gaussian 16, Revision A.03,
 Gaussian 16:  ES64L-G16RevA.03 25-Dec-2016

 --------------------------------
 #p wB97XD/Def2SVP td=(nstates=5)
 --------------------------------

 --------------------------------
 TDDFT excited states in gaussian
 --------------------------------
 Symbolic Z-matrix:
 Charge =  0 Multiplicity = 1

                         Standard orientation:
 ---------------------------------------------------------------------
 Center     Atomic      Atomic             Coordinates (Angstroms)
 Number     Number       Type             X           Y           Z
 ---------------------------------------------------------------------
      1         12           0       16.789226    0.615100   -0.138975
      2          6           0       14.944120   -2.312181    1.217537
      3          6           0       14.260120    2.413156    1.200627
      4          6           0       18.290556    3.003983   -1.583576
      5          6           0       18.684505   -1.749444   -2.007334
      6          7           0       14.831947    0.073616    1.010085
      7          6           0       14.425051   -1.120983    1.579769
      8          6           0       13.279105   -0.989154    2.589447
      9          6           0       12.795773    0.444636    2.210000
     10          6           0       14.014419    1.052871    1.413783
     11          6           0       11.532233    0.500905    1.410496
     12          6           0       13.625549   -1.216718    4.099116
     13          6           0       12.563199   -1.772328    4.987615
     14          1           0       12.539403   -1.210900    6.405728
     15          7           0       16.368239    2.524552   -0.160108
     16          6           0       15.288245    3.134605    0.511657
     17          6           0       15.462871    4.555258    0.416183
     18          6           0       16.743924    4.704151   -0.273310
     19          6           0       17.152501    3.406681   -0.675138
     20          6           0       14.539243    5.628569    1.102303
     21          6           0       17.455479    6.002218   -0.503592
     22          8           0       18.523998    6.069118   -1.158722
     23          6           0       16.991415    7.295678    0.059615
     24          7           0       18.154649    0.685654   -1.694825
     25          6           0       18.671648    1.836580   -2.129602
     26          6           0       19.780239    1.662831   -3.216756
     27          6           0       20.142685    0.154816   -2.947522
     28          6           0       18.889610   -0.373037   -2.196720
     29          6           0       19.228218    1.874110   -4.663281
     30          6           0       21.430189   -0.001978   -2.034034
     31          6           0       22.739169    0.707075   -2.440494
     32          7           0       16.865460   -1.572141   -0.340431
     33          6           0       17.742427   -2.344911   -1.093084
     34          6           0       17.424439   -3.743400   -0.923287
     35          6           0       16.368269   -3.775321   -0.003782
     36          6           0       15.991311   -2.431456    0.268081
     37          6           0       18.172059   -4.906267   -1.483766
     38          6           0       15.490445   -4.670249    0.738801
     39          8           0       15.414508   -5.886686    0.850472
     40          6           0       14.594078   -3.666220    1.633145
     41          6           0       13.215976   -4.066391    1.406400
     42          8           0       12.598097   -4.034583    0.330532
     43          8           0       12.846227   -4.882417    2.436888
     44          6           0       11.546964   -5.474304    2.429967
     45          1           0       13.497241    2.937652    1.780047
     46          1           0       18.836935    3.795826   -2.099848
     47          1           0       19.309516   -2.426136   -2.594421
     48          1           0       12.512770   -1.707875    2.298374
     49          1           0       12.736546    1.075267    3.096579
     50          1           0       11.813802    0.762713    0.390537
     51          1           0       10.901751    1.310784    1.777216
     52          1           0       10.929753   -0.405980    1.362599
     53          1           0       13.866404   -0.239383    4.516362
     54          1           0       14.535755   -1.814736    4.134911
     55          1           0       12.799318   -2.835413    5.029994
     56          1           0       11.588973   -1.814782    4.500409
     57          1           0       14.962455    6.123353    1.975976
     58          1           0       13.557122    5.217485    1.334323
     59          1           0       14.399477    6.338481    0.286132
     60          1           0       16.133223    7.632734   -0.522325
     61          1           0       17.828792    7.983781   -0.059372
     62          1           0       16.804535    7.121619    1.118754
     63          1           0       20.551832    2.393719   -2.972451
     64          1           0       20.278262   -0.463911   -3.834075
     65          1           0       19.693519    2.785737   -5.038986
     66          1           0       18.143360    1.902370   -4.759891
     67          1           0       19.644040    1.008790   -5.181384
     68          1           0       21.707010   -1.055672   -2.008863
     69          1           0       21.112242    0.248660   -1.022166
     70          1           0       22.974789    1.353628   -1.595315
     71          1           0       22.454250    1.316051   -3.298919
     72          1           0       23.558162    0.009203   -2.613992
     73          1           0       19.106848   -4.475692   -1.843492
     74          1           0       17.570514   -5.277763   -2.313318
     75          1           0       18.303795   -5.730691   -0.783023
     76          1           0       14.863059   -3.775824    2.683576
     77          1           0       10.962429   -5.157288    1.566020
     78          1           0       11.056929   -5.087645    3.323621
     79          1           0       11.602835   -6.553309    2.566719
     80         12           0      -16.351715    0.504080    0.415119
     81          6           0      -15.621859   -2.603200   -0.759584
     82          6           0      -12.978187    0.825706    1.427224
     83          6           0      -16.805852    3.810097    0.550017
     84          6           0      -19.609431    0.298012   -1.130015
     85          7           0      -14.585061   -0.763031    0.344876
     86          6           0      -14.452244   -1.947356   -0.153577
     87          6           0      -13.090572   -2.631510    0.224462
     88          6           0      -12.379739   -1.600799    1.181814
     89          6           0      -13.373412   -0.396912    1.038525
     90          6           0      -12.005394   -2.111841    2.573768
     91          6           0      -12.232640   -3.080236   -1.102002
     92          6           0      -12.505271   -2.374513   -2.420482
     93          1           0      -11.478498   -2.417537   -3.552187
     94          7           0      -15.054222    2.090486    0.913258
     95          6           0      -13.756296    2.029900    1.360589
     96          6           0      -13.271957    3.323815    1.576436
     97          6           0      -14.349133    4.249446    1.292981
     98          6           0      -15.483224    3.395202    0.852124
     99          6           0      -11.905034    3.550444    2.195765
    100          6           0      -14.234050    5.778402    1.430346
    101          8           0      -13.137662    6.248462    1.808993
    102          6           0      -15.277784    6.724143    1.158982
    103          7           0      -17.970811    1.928036   -0.368645
    104          6           0      -17.918607    3.166728    0.031563
    105          6           0      -19.233735    3.950493   -0.242163
    106          6           0      -20.160481    2.817285   -0.734059
    107          6           0      -19.237857    1.532146   -0.754770
    108          6           0      -19.799867    4.641321    0.945675
    109          6           0      -20.844413    3.141863   -2.144856
    110          6           0      -22.407794    3.395541   -2.120489
    111          7           0      -17.503295   -0.859080   -0.617066
    112          6           0      -18.796182   -0.857759   -1.155431
    113          6           0      -19.072662   -2.209029   -1.735090
    114          6           0      -17.840087   -2.868029   -1.623822
    115          6           0      -16.902791   -2.011862   -0.973172
    116          6           0      -20.289190   -2.716183   -2.340873
    117          6           0      -17.229494   -4.065105   -1.982214
    118          8           0      -17.627147   -5.097623   -2.541514
    119          6           0      -15.803660   -3.996817   -1.365104
    120          6           0      -15.628504   -5.211848   -0.423350
    121          8           0      -14.737861   -6.044260   -0.443140
    122          8           0      -16.630975   -5.288425    0.519247
    123          6           0      -16.602309   -6.421308    1.451985
    124          1           0      -11.911636    0.845691    1.660052
    125          1           0      -17.067340    4.855740    0.724094
    126          1           0      -20.651611    0.193612   -1.438555
    127          1           0      -13.342952   -3.463296    0.882678
    128          1           0      -11.459532   -1.205995    0.750054
    129          1           0      -12.588014   -1.582154    3.327232
    130          1           0      -10.954553   -1.937908    2.808124
    131          1           0      -12.106823   -3.186360    2.726420
    132          1           0      -12.426602   -4.152879   -1.123796
    133          1           0      -11.156723   -2.916658   -1.037143
    134          1           0      -12.662085   -1.340647   -2.113967
    135          1           0      -13.473508   -2.752464   -2.749259
    136          1           0      -11.814392    4.133082    3.112877
    137          1           0      -11.238099    3.944904    1.428791
    138          1           0      -11.465490    2.584082    2.442088
    139          1           0      -16.187340    6.664099    1.756384
    140          1           0      -15.696194    6.552086    0.167812
    141          1           0      -14.932017    7.756327    1.112371
    142          1           0      -19.217341    4.760132   -0.971646
    143          1           0      -20.923863    2.539424   -0.007227
    144          1           0      -19.660594    5.722168    0.960846
    145          1           0      -19.243079    4.377026    1.845406
    146          1           0      -20.862281    4.417247    1.040023
    147          1           0      -20.735264    2.261963   -2.780314
    148          1           0      -20.480817    4.050192   -2.623402
    149          1           0      -22.643374    4.280007   -2.711039
    150          1           0      -22.684933    3.670728   -1.102779
    151          1           0      -22.838665    2.524034   -2.613712
    152          1           0      -21.088672   -2.190000   -1.818753
    153          1           0      -20.386775   -3.788598   -2.168276
    154          1           0      -20.184216   -2.555571   -3.413444
    155          1           0      -15.018653   -4.282241   -2.065009
    156          1           0      -17.616405   -6.592030    1.813821
    157          1           0      -16.019477   -6.319957    2.367339
    158          1           0      -16.169744   -7.328701    1.029504
 ---------------------------------------------------------------------

 SCF Done:  E(RwB97XD) =  -4070.57330227     A.U. after   19 cycles

 Excitation energies and oscillator strengths:

 Excited State   1:      Singlet-A      1.6007 eV  774.55 nm  f=0.3723  <S**2>=0.000
     310 -> 316       -0.16165
     311 -> 313        0.68914
     310 <- 316       -0.11296
 This state for optimization and/or second-order correction.
 Total Energy, E(TD-HF/TD-DFT) =  -4070.51447706
 Copying the excited state density for this state as the 1-particle RhoCI density.

 Excited State   2:      Singlet-A      1.6550 eV  749.14 nm  f=0.4456  <S**2>=0.000
     309 -> 315        0.16626
     312 -> 314        0.68645
     309 <- 315        0.11147

 Excited State   3:      Singlet-A      2.1247 eV  583.55 nm  f=0.2122  <S**2>=0.000
     310 -> 313        0.66539
     311 -> 316        0.22057

 Excited State   4:      Singlet-A      2.1981 eV  564.05 nm  f=0.1160  <S**2>=0.000
     309 -> 314        0.64041
     312 -> 315       -0.27523

 Excited State   5:      Singlet-A      3.1836 eV  389.45 nm  f=0.0051  <S**2>=0.000
     304 -> 313        0.18097
     305 -> 313        0.66109

 The electronic state is 1-A.
 Alpha  occ. eigenvalues --  -46.96694 -46.95215 -19.30190 -19.30028 -19.25116
 Alpha  occ. eigenvalues --  -19.24971 -19.24377 -19.24143 -19.22420 -19.22417
 Alpha  occ. eigenvalues --  -14.47833 -14.46908 -14.46522 -14.45977 -14.45206
 Alpha  occ. eigenvalues --  -14.44400 -14.44252 -14.44172 -10.43652 -10.42993
 Alpha  occ. eigenvalues --  -10.40030 -10.38824 -10.38187 -10.37900 -10.37100
 Alpha  occ. eigenvalues --  -10.35941 -10.35433 -10.35356 -10.35300 -10.34827
 Alpha  occ. eigenvalues --  -10.34772 -10.34768 -10.34749 -10.34718 -10.34667
 Alpha  occ. eigenvalues --  -10.34638 -10.34505 -10.34457 -10.34421 -10.33890
 Alpha  occ. eigenvalues --  -10.33819 -10.33546 -10.33388 -10.33183 -10.33092
 Alpha  occ. eigenvalues --  -10.32969 -10.32943 -10.32890 -10.32576 -10.32414
 Alpha  occ. eigenvalues --  -10.32367 -10.32367 -10.32244 -10.32159 -10.32140
 Alpha  occ. eigenvalues --  -10.32036 -10.32015 -10.31974 -10.31756 -10.31679
 Alpha  occ. eigenvalues --  -10.31619 -10.31516 -10.31389 -10.31166 -10.31148
 Alpha  occ. eigenvalues --  -10.31096 -10.31084 -10.30968 -10.30863 -10.30817
 Alpha  occ. eigenvalues --  -10.30764 -10.30746 -10.30302 -10.30283 -10.30065
 Alpha  occ. eigenvalues --  -10.30015 -10.29879 -10.29759 -10.29758 -10.29616
 Alpha  occ. eigenvalues --  -10.29595 -10.29529 -10.29488 -10.29415 -10.29351
 Alpha  occ. eigenvalues --  -10.28800  -3.22567  -3.21317  -1.96128  -1.95717
 Alpha  occ. eigenvalues --   -1.95498  -1.94876  -1.94440  -1.94304  -1.18714
 Alpha  occ. eigenvalues --   -1.18373  -1.12490  -1.11388  -1.09787  -1.09626
 Alpha  occ. eigenvalues --   -1.09612  -1.09204  -1.07083  -1.06903  -1.06539
 Alpha  occ. eigenvalues --   -1.06031  -1.05748  -1.05641  -1.04570  -1.04256
 Alpha  occ. eigenvalues --   -0.95687  -0.95077  -0.91637  -0.91391  -0.91310
 Alpha  occ. eigenvalues --   -0.90936  -0.90656  -0.90354  -0.89932  -0.89711
 Alpha  occ. eigenvalues --   -0.89367  -0.88764  -0.88155  -0.87218  -0.86608
 Alpha  occ. eigenvalues --   -0.86586  -0.86088  -0.85954  -0.85001  -0.84851
 Alpha  occ. eigenvalues --   -0.84433  -0.83995  -0.83470  -0.83009  -0.82756
 Alpha  occ. eigenvalues --   -0.82290  -0.80484  -0.80470  -0.79394  -0.79364
 Alpha  occ. eigenvalues --   -0.79193  -0.78897  -0.78321  -0.78146  -0.77360
 Alpha  occ. eigenvalues --   -0.77244  -0.75433  -0.75338  -0.73968  -0.72875
 Alpha  occ. eigenvalues --   -0.71642  -0.71190  -0.70864  -0.70570  -0.70368
 Alpha  occ. eigenvalues --   -0.70153  -0.68890  -0.68847  -0.67969  -0.67657
 Alpha  occ. eigenvalues --   -0.67630  -0.67062  -0.66874  -0.66853  -0.66567
 Alpha  occ. eigenvalues --   -0.66436  -0.65378  -0.64028  -0.62914  -0.62711
 Alpha  occ. eigenvalues --   -0.62013  -0.61760  -0.61474  -0.60947  -0.60817
 Alpha  occ. eigenvalues --   -0.60551  -0.60366  -0.60036  -0.59675  -0.59253
 Alpha  occ. eigenvalues --   -0.58318  -0.57833  -0.57631  -0.57616  -0.57581
 Alpha  occ. eigenvalues --   -0.56836  -0.56766  -0.56590  -0.56507  -0.56076
 Alpha  occ. eigenvalues --   -0.55864  -0.55638  -0.55453  -0.55223  -0.55160
 Alpha  occ. eigenvalues --   -0.54810  -0.54748  -0.54618  -0.54443  -0.54328
 Alpha  occ. eigenvalues --   -0.54186  -0.53674  -0.53435  -0.53324  -0.53275
 Alpha  occ. eigenvalues --   -0.53161  -0.52912  -0.52864  -0.52628  -0.52276
 Alpha  occ. eigenvalues --   -0.52195  -0.51920  -0.51819  -0.51794  -0.51614
 Alpha  occ. eigenvalues --   -0.51500  -0.51426  -0.51183  -0.51132  -0.50944
 Alpha  occ. eigenvalues --   -0.50773  -0.50627  -0.50499  -0.50274  -0.50229
 Alpha  occ. eigenvalues --   -0.50048  -0.49760  -0.49584  -0.49492  -0.49361
 Alpha  occ. eigenvalues --   -0.49146  -0.49145  -0.48825  -0.48759  -0.48427
 Alpha  occ. eigenvalues --   -0.48330  -0.48130  -0.48119  -0.47873  -0.47870
 Alpha  occ. eigenvalues --   -0.47682  -0.47353  -0.47208  -0.47011  -0.46990
 Alpha  occ. eigenvalues --   -0.46895  -0.46849  -0.46715  -0.46558  -0.46407
 Alpha  occ. eigenvalues --   -0.46272  -0.45894  -0.45766  -0.45645  -0.45594
 Alpha  occ. eigenvalues --   -0.45156  -0.45036  -0.44738  -0.44724  -0.44572
 Alpha  occ. eigenvalues --   -0.44571  -0.44197  -0.44082  -0.44012  -0.43912
 Alpha  occ. eigenvalues --   -0.43889  -0.43577  -0.43437  -0.43214  -0.42892
 Alpha  occ. eigenvalues --   -0.42774  -0.42634  -0.42631  -0.42564  -0.41999
 Alpha  occ. eigenvalues --   -0.41779  -0.41720  -0.41348  -0.41207  -0.40996
 Alpha  occ. eigenvalues --   -0.40689  -0.40453  -0.40139  -0.40126  -0.39820
 Alpha  occ. eigenvalues --   -0.39663  -0.39207  -0.38833  -0.38528  -0.38423
 Alpha  occ. eigenvalues --   -0.38380  -0.37836  -0.36830  -0.36600  -0.36338
 Alpha  occ. eigenvalues --   -0.36265  -0.36249  -0.35372  -0.33813  -0.33757
 Alpha  occ. eigenvalues --   -0.33419  -0.33213  -0.33158  -0.32222  -0.32049
 Alpha  occ. eigenvalues --   -0.32042  -0.31744  -0.31154  -0.26888  -0.26151
 Alpha  occ. eigenvalues --   -0.23524  -0.23496
 Alpha virt. eigenvalues --   -0.08000  -0.07901   0.00011   0.01164   0.01977
 Alpha virt. eigenvalues --    0.02380   0.03790   0.04304   0.04338   0.04966
 Alpha virt. eigenvalues --    0.06125   0.07178   0.07590   0.07668   0.08012

 Mulliken charges:
               1
     1  Mg   0.983615
     2  C   -0.013739
     3  C   -0.065794
     4  C   -0.042922
     5  C   -0.083056
     6  N   -0.296657
     7  C   -0.036645
     8  C   -0.083967
     9  C   -0.102289
    10  C   -0.016720
    11  C    0.047849
    12  C    0.043123
    13  C   -0.116524
    14  H    0.053834
    15  N   -0.496782
    16  C    0.190172
    17  C   -0.170591
    18  C   -0.082130
    19  C    0.148024
    20  C    0.071523
    21  C    0.008564
    22  O   -0.274956
    23  C    0.010102
    24  N   -0.391907
    25  C    0.045257
    26  C   -0.110592
    27  C   -0.102287
    28  C    0.088885
    29  C    0.051780
    30  C   -0.033936
    31  C   -0.032698
    32  N   -0.400036
    33  C    0.123065
    34  C   -0.202607
    35  C   -0.040050
    36  C    0.129489
    37  C    0.087836
    38  C    0.156479
    39  O   -0.192276
    40  C   -0.060103
    41  C    0.245560
    42  O   -0.268733
    43  O   -0.350409
    44  C    0.133705
    45  H   -0.007663
    46  H    0.013659
    47  H    0.004989
    48  H    0.033309
    49  H    0.025416
    50  H    0.044517
    51  H    0.034301
    52  H    0.048422
    53  H    0.032020
    54  H    0.031232
    55  H    0.047993
    56  H    0.042943
    57  H    0.068056
    58  H    0.040363
    59  H    0.043169
    60  H    0.063977
    61  H    0.055050
    62  H    0.045444
    63  H    0.047092
    64  H    0.025417
    65  H    0.046365
    66  H    0.060279
    67  H    0.027955
    68  H    0.024644
    69  H    0.033417
    70  H    0.042538
    71  H    0.036209
    72  H    0.048577
    73  H    0.031154
    74  H    0.060032
    75  H    0.064999
    76  H    0.071923
    77  H    0.066108
    78  H    0.033709
    79  H    0.061927
    80  Mg   0.957277
    81  C    0.004114
    82  C   -0.072007
    83  C   -0.044111
    84  C   -0.099278
    85  N   -0.349502
    86  C    0.011217
    87  C   -0.051014
    88  C   -0.100574
    89  C    0.039686
    90  C    0.023948
    91  C   -0.030503
    92  C   -0.101770
    93  H    0.062474
    94  N   -0.458821
    95  C    0.154319
    96  C   -0.150815
    97  C   -0.094638
    98  C    0.205520
    99  C    0.091822
   100  C    0.063115
   101  O   -0.267922
   102  C    0.000072
   103  N   -0.297957
   104  C    0.011022
   105  C   -0.080664
   106  C   -0.046045
   107  C    0.048422
   108  C    0.002562
   109  C   -0.042821
   110  C   -0.064991
   111  N   -0.464808
   112  C    0.133719
   113  C   -0.171290
   114  C   -0.013184
   115  C    0.155470
   116  C    0.081431
   117  C    0.117958
   118  O   -0.220204
   119  C   -0.107992
   120  C    0.242754
   121  O   -0.244071
   122  O   -0.368887
   123  C    0.139790
   124  H    0.011654
   125  H   -0.042772
   126  H    0.000733
   127  H    0.052497
   128  H    0.038572
   129  H    0.039443
   130  H    0.034685
   131  H    0.041362
   132  H    0.057347
   133  H    0.041168
   134  H    0.052207
   135  H    0.036611
   136  H    0.060513
   137  H    0.046819
   138  H    0.000091
   139  H    0.063448
   140  H    0.040913
   141  H    0.054628
   142  H    0.045312
   143  H    0.032500
   144  H    0.028499
   145  H    0.031358
   146  H    0.039495
   147  H    0.036163
   148  H    0.041024
   149  H    0.033315
   150  H    0.036168
   151  H    0.047824
   152  H    0.043725
   153  H    0.066896
   154  H    0.074643
   155  H    0.058607
   156  H    0.052713
   157  H    0.037419
   158  H    0.061598
 Sum of Mulliken charges =  -0.00000

 Dipole moment (field-independent basis, Debye):
    X=             -4.8120    Y=              3.5539    Z=              5.0074  Tot=              7.8013
 Quadrupole moment (field-independent basis, Debye-Ang):
   XX=           -343.5685   YY=           -567.5410   ZZ=           -500.1243
   XY=            -39.2161   XZ=            -14.0270   YZ=            -22.0837

 Normal termination of Gaussian 16 at Sat Sep 18 16:44:50 2021.
