 Gaussian 16, Revision A.03,
 Gaussian 16:  ES64L-G16RevA.03 25-Dec-2016

 --------------------------------
 #p wB97XD/Def2SVP td=(nstates=5)
 --------------------------------

 --------------------------------
 TDDFT excited states in gaussian
 --------------------------------
 Symbolic Z-matrix:
 Charge =  0 Multiplicity = 1

                         Standard orientation:
 ---------------------------------------------------------------------
 Center     Atomic      Atomic             Coordinates (Angstroms)
 Number     Number       Type             X           Y           Z
 ---------------------------------------------------------------------
      1         12           0       30.454591    0.617350   -0.254728
      2          6           0       28.646152   -2.312790   -0.244216
      3          6           0       27.618378    2.289200    0.653629
      4          6           0       32.412394    3.009162    0.911015
      5          6           0       33.280476   -1.265536   -1.147250
      6          7           0       28.494691   -0.089472    0.596303
      7          6           0       27.912192   -1.271965    0.270085
      8          6           0       26.446055   -1.303436    0.586105
      9          6           0       26.109373    0.216158    0.442840
     10          6           0       27.489011    0.855992    0.490824
     11          6           0       25.270102    0.537587   -0.826931
     12          6           0       26.155711   -1.833747    2.078892
     13          6           0       24.821419   -2.697414    2.252785
     14          1           0       23.932466   -1.984468    3.241477
     15          7           0       30.042782    2.485753    0.475156
     16          6           0       28.858430    2.999843    0.873376
     17          6           0       29.036519    4.337591    1.423741
     18          6           0       30.426246    4.571023    1.472681
     19          6           0       31.022613    3.314114    0.939385
     20          6           0       27.824809    5.179265    1.892373
     21          6           0       31.030098    5.760881    2.165131
     22          8           0       30.309393    6.603034    2.633752
     23          6           0       32.540687    5.978196    2.376061
     24          7           0       32.585435    0.939621   -0.234386
     25          6           0       33.103019    1.956406    0.296715
     26          6           0       34.583334    1.891810    0.379178
     27          6           0       34.901143    0.503762   -0.303662
     28          6           0       33.546333    0.015452   -0.582566
     29          6           0       35.255094    3.161072   -0.245748
     30          6           0       35.718334   -0.469818    0.665882
     31          6           0       36.484876   -1.671420    0.007181
     32          7           0       30.918471   -1.341821   -0.708423
     33          6           0       32.088611   -1.929155   -1.154206
     34          6           0       31.855542   -3.294414   -1.535922
     35          6           0       30.461646   -3.487756   -1.235915
     36          6           0       29.990852   -2.327725   -0.651716
     37          6           0       32.835627   -4.267285   -2.108029
     38          6           0       29.401191   -4.432674   -1.308195
     39          8           0       29.297868   -5.605768   -1.689283
     40          6           0       28.234384   -3.781545   -0.494184
     41          6           0       26.988703   -3.998986   -1.286762
     42          8           0       26.204789   -4.945183   -1.127385
     43          8           0       26.876898   -3.031942   -2.247301
     44          6           0       25.654530   -3.293916   -3.057888
     45          1           0       26.754882    2.939787    0.809580
     46          1           0       33.031885    3.789074    1.357457
     47          1           0       34.177353   -1.872561   -1.292523
     48          1           0       26.014341   -1.876385   -0.233564
     49          1           0       25.476705    0.519414    1.277190
     50          1           0       24.295037    0.919758   -0.526166
     51          1           0       25.078967   -0.409941   -1.331740
     52          1           0       25.862845    1.206875   -1.449692
     53          1           0       26.194119   -1.087173    2.872003
     54          1           0       26.962044   -2.487225    2.410343
     55          1           0       25.163727   -3.619848    2.722109
     56          1           0       24.267905   -3.022521    1.371786
     57          1           0       27.849586    5.476139    2.940807
     58          1           0       26.857672    4.719007    1.687087
     59          1           0       27.800417    6.068789    1.263767
     60          1           0       33.091859    6.102914    1.444563
     61          1           0       33.015466    5.202606    2.977540
     62          1           0       32.600244    6.830139    3.054054
     63          1           0       34.769296    1.827995    1.451217
     64          1           0       35.380474    0.504513   -1.282318
     65          1           0       35.851601    3.621061    0.541786
     66          1           0       34.517199    3.860465   -0.639175
     67          1           0       36.050862    2.940099   -0.956933
     68          1           0       35.050762   -0.897756    1.414055
     69          1           0       36.426020    0.174848    1.185061
     70          1           0       37.565519   -1.771452    0.104927
     71          1           0       36.360728   -1.655989   -1.074753
     72          1           0       36.078438   -2.617680    0.364291
     73          1           0       33.805598   -3.867866   -2.403558
     74          1           0       32.248537   -4.627466   -2.951873
     75          1           0       32.827403   -5.021848   -1.321369
     76          1           0       28.116315   -4.176797    0.515309
     77          1           0       25.807059   -4.188010   -3.661557
     78          1           0       25.499681   -2.550104   -3.839498
     79          1           0       24.809632   -3.346241   -2.370905
     80         12           0      -29.998241   -0.541608    0.497022
     81          6           0      -29.956841    2.065309   -2.015078
     82          6           0      -29.679315   -2.618827   -1.956716
     83          6           0      -30.334744   -2.769723    2.902187
     84          6           0      -31.154732    1.863173    2.964652
     85          7           0      -29.711045   -0.252101   -1.763839
     86          6           0      -29.728858    0.849183   -2.594323
     87          6           0      -29.574513    0.429865   -4.011794
     88          6           0      -29.978498   -1.066822   -3.993059
     89          6           0      -29.829270   -1.349008   -2.479422
     90          6           0      -31.423105   -1.343354   -4.464160
     91          6           0      -28.079051    0.551342   -4.435781
     92          6           0      -27.799870    1.188058   -5.852205
     93          1           0      -26.374028    1.783664   -6.184250
     94          7           0      -29.950420   -2.532618    0.437106
     95          6           0      -29.699083   -3.235667   -0.634920
     96          6           0      -29.588181   -4.629035   -0.246452
     97          6           0      -29.658109   -4.605053    1.166425
     98          6           0      -30.017432   -3.264957    1.543633
     99          6           0      -29.260918   -5.716805   -1.285519
    100          6           0      -29.463790   -5.776358    2.088537
    101          8           0      -29.579169   -5.637153    3.269500
    102          6           0      -29.025939   -7.086816    1.520322
    103          7           0      -30.954547   -0.446532    2.620971
    104          6           0      -30.766654   -1.535075    3.364211
    105          6           0      -30.969439   -1.266630    4.808134
    106          6           0      -31.434697    0.223295    4.762687
    107          6           0      -31.182767    0.631951    3.335363
    108          6           0      -31.890271   -2.249354    5.617189
    109          6           0      -30.667737    1.092369    5.834312
    110          6           0      -31.406069    1.557386    7.120416
    111          7           0      -30.461702    1.440442    0.559262
    112          6           0      -30.835599    2.322743    1.597432
    113          6           0      -30.922944    3.698194    1.064931
    114          6           0      -30.577710    3.609395   -0.276994
    115          6           0      -30.353686    2.275373   -0.572455
    116          6           0      -31.456758    4.924482    1.844256
    117          6           0      -30.400038    4.456648   -1.499927
    118          8           0      -30.468283    5.644005   -1.713679
    119          6           0      -30.153428    3.452860   -2.734565
    120          6           0      -29.109655    3.904377   -3.579597
    121          8           0      -27.934802    3.542968   -3.424211
    122          8           0      -29.456890    4.812997   -4.574504
    123          6           0      -28.444264    5.168833   -5.615385
    124          1           0      -29.528883   -3.420583   -2.681815
    125          1           0      -30.383605   -3.499037    3.713344
    126          1           0      -31.491945    2.599247    3.696048
    127          1           0      -30.308583    0.943848   -4.632879
    128          1           0      -29.366887   -1.743211   -4.589844
    129          1           0      -31.421582   -1.996313   -5.337445
    130          1           0      -31.862459   -0.379271   -4.718616
    131          1           0      -32.074398   -1.776565   -3.704531
    132          1           0      -27.710585   -0.474635   -4.442205
    133          1           0      -27.585943    1.092882   -3.628769
    134          1           0      -28.561145    1.948079   -6.025971
    135          1           0      -27.988285    0.346895   -6.520385
    136          1           0      -28.277464   -6.127939   -1.054057
    137          1           0      -29.316436   -5.411760   -2.329927
    138          1           0      -29.902459   -6.584436   -1.134112
    139          1           0      -28.046663   -7.029207    1.045860
    140          1           0      -29.613981   -7.485013    0.693506
    141          1           0      -28.910684   -7.800132    2.336792
    142          1           0      -29.991177   -1.298655    5.287816
    143          1           0      -32.518632    0.264587    4.871998
    144          1           0      -32.137227   -3.063476    4.936571
    145          1           0      -32.762644   -1.823722    6.114329
    146          1           0      -31.317758   -2.639025    6.459075
    147          1           0      -30.334698    2.017889    5.363843
    148          1           0      -29.708153    0.590102    5.956829
    149          1           0      -30.775147    1.384305    7.992090
    150          1           0      -32.352474    1.023612    7.208701
    151          1           0      -31.605012    2.629101    7.083160
    152          1           0      -31.191538    4.790677    2.892620
    153          1           0      -32.546712    4.914026    1.821148
    154          1           0      -31.052752    5.861863    1.461199
    155          1           0      -31.078403    3.396648   -3.307712
    156          1           0      -28.166895    4.295701   -6.207674
    157          1           0      -27.649330    5.790023   -5.204455
    158          1           0      -28.977893    5.726522   -6.384907
 ---------------------------------------------------------------------

 SCF Done:  E(RwB97XD) =  -4070.56876972     A.U. after   19 cycles

 Excitation energies and oscillator strengths:

 Excited State   1:      Singlet-A      1.6577 eV  747.92 nm  f=0.3567  <S**2>=0.000
     309 -> 315       -0.16765
     312 -> 314        0.68564
     309 <- 315       -0.10880
 This state for optimization and/or second-order correction.
 Total Energy, E(TD-HF/TD-DFT) =  -4070.50785000
 Copying the excited state density for this state as the 1-particle RhoCI density.

 Excited State   2:      Singlet-A      1.6949 eV  731.51 nm  f=0.3824  <S**2>=0.000
     310 -> 316       -0.16829
     311 -> 313        0.68668
     310 <- 316       -0.11047

 Excited State   3:      Singlet-A      2.1227 eV  584.10 nm  f=0.2215  <S**2>=0.000
     310 -> 313        0.67195
     311 -> 316        0.20539

 Excited State   4:      Singlet-A      2.1685 eV  571.76 nm  f=0.1043  <S**2>=0.000
     309 -> 314        0.63802
     312 -> 315        0.28235

 Excited State   5:      Singlet-A      3.4400 eV  360.41 nm  f=0.0065  <S**2>=0.000
     303 -> 313       -0.20278
     305 -> 313       -0.17578
     307 -> 313        0.63278

 The electronic state is 1-A.
 Alpha  occ. eigenvalues --  -46.95781 -46.95572 -19.30738 -19.29189 -19.24624
 Alpha  occ. eigenvalues --  -19.24602 -19.24314 -19.23981 -19.23452 -19.22885
 Alpha  occ. eigenvalues --  -14.46683 -14.46502 -14.46384 -14.44966 -14.44734
 Alpha  occ. eigenvalues --  -14.44415 -14.44365 -14.43136 -10.42494 -10.42322
 Alpha  occ. eigenvalues --  -10.39931 -10.39792 -10.39123 -10.38019 -10.36452
 Alpha  occ. eigenvalues --  -10.35879 -10.35443 -10.35368 -10.35292 -10.35161
 Alpha  occ. eigenvalues --  -10.35094 -10.34737 -10.34692 -10.34168 -10.34073
 Alpha  occ. eigenvalues --  -10.34025 -10.33929 -10.33829 -10.33650 -10.33583
 Alpha  occ. eigenvalues --  -10.33354 -10.32959 -10.32847 -10.32732 -10.32441
 Alpha  occ. eigenvalues --  -10.32266 -10.32266 -10.32251 -10.32242 -10.32174
 Alpha  occ. eigenvalues --  -10.32132 -10.32112 -10.31973 -10.31897 -10.31855
 Alpha  occ. eigenvalues --  -10.31851 -10.31744 -10.31688 -10.31510 -10.31388
 Alpha  occ. eigenvalues --  -10.31313 -10.31301 -10.31298 -10.31297 -10.31248
 Alpha  occ. eigenvalues --  -10.30890 -10.30854 -10.30669 -10.30657 -10.30597
 Alpha  occ. eigenvalues --  -10.30592 -10.30560 -10.30392 -10.30271 -10.30165
 Alpha  occ. eigenvalues --  -10.30106 -10.30091 -10.30018 -10.30014 -10.29877
 Alpha  occ. eigenvalues --  -10.29596 -10.29546 -10.29395 -10.29345 -10.29080
 Alpha  occ. eigenvalues --  -10.28379  -3.21760  -3.21583  -1.95334  -1.95159
 Alpha  occ. eigenvalues --   -1.94891  -1.94722  -1.94721  -1.94545  -1.18083
 Alpha  occ. eigenvalues --   -1.16320  -1.14425  -1.14244  -1.13043  -1.10263
 Alpha  occ. eigenvalues --   -1.09057  -1.08601  -1.08529  -1.07825  -1.06972
 Alpha  occ. eigenvalues --   -1.06915  -1.06688  -1.05976  -1.04811  -1.02960
 Alpha  occ. eigenvalues --   -0.94423  -0.93189  -0.91608  -0.91145  -0.90814
 Alpha  occ. eigenvalues --   -0.90613  -0.90135  -0.89880  -0.89768  -0.89620
 Alpha  occ. eigenvalues --   -0.89244  -0.88937  -0.88524  -0.87124  -0.86273
 Alpha  occ. eigenvalues --   -0.86213  -0.85677  -0.84943  -0.84178  -0.84074
 Alpha  occ. eigenvalues --   -0.83913  -0.83746  -0.82874  -0.82829  -0.82375
 Alpha  occ. eigenvalues --   -0.82283  -0.80771  -0.80348  -0.79821  -0.79035
 Alpha  occ. eigenvalues --   -0.78718  -0.78602  -0.78128  -0.77872  -0.77446
 Alpha  occ. eigenvalues --   -0.77383  -0.74725  -0.74644  -0.74219  -0.73087
 Alpha  occ. eigenvalues --   -0.72385  -0.71330  -0.71206  -0.70716  -0.70137
 Alpha  occ. eigenvalues --   -0.69969  -0.69679  -0.69279  -0.68749  -0.68053
 Alpha  occ. eigenvalues --   -0.67532  -0.67306  -0.66979  -0.66863  -0.66463
 Alpha  occ. eigenvalues --   -0.66236  -0.64385  -0.63491  -0.63048  -0.62577
 Alpha  occ. eigenvalues --   -0.62069  -0.61569  -0.61187  -0.61058  -0.60771
 Alpha  occ. eigenvalues --   -0.60030  -0.59993  -0.59527  -0.59170  -0.58970
 Alpha  occ. eigenvalues --   -0.58585  -0.58573  -0.58108  -0.57648  -0.57636
 Alpha  occ. eigenvalues --   -0.57479  -0.56931  -0.56072  -0.55917  -0.55831
 Alpha  occ. eigenvalues --   -0.55548  -0.55366  -0.55017  -0.54931  -0.54662
 Alpha  occ. eigenvalues --   -0.54596  -0.54376  -0.54334  -0.53940  -0.53929
 Alpha  occ. eigenvalues --   -0.53773  -0.53612  -0.53221  -0.53118  -0.53111
 Alpha  occ. eigenvalues --   -0.52532  -0.52529  -0.52415  -0.52182  -0.52170
 Alpha  occ. eigenvalues --   -0.52070  -0.51848  -0.51797  -0.51660  -0.51637
 Alpha  occ. eigenvalues --   -0.51535  -0.51169  -0.51061  -0.50841  -0.50755
 Alpha  occ. eigenvalues --   -0.50648  -0.50603  -0.50241  -0.50234  -0.49942
 Alpha  occ. eigenvalues --   -0.49705  -0.49695  -0.49571  -0.49466  -0.49357
 Alpha  occ. eigenvalues --   -0.49349  -0.48886  -0.48741  -0.48374  -0.48207
 Alpha  occ. eigenvalues --   -0.48163  -0.48143  -0.47811  -0.47709  -0.47680
 Alpha  occ. eigenvalues --   -0.47455  -0.47329  -0.47303  -0.47083  -0.46876
 Alpha  occ. eigenvalues --   -0.46731  -0.46564  -0.46521  -0.46427  -0.46350
 Alpha  occ. eigenvalues --   -0.46249  -0.46133  -0.45939  -0.45938  -0.45424
 Alpha  occ. eigenvalues --   -0.45287  -0.45273  -0.45108  -0.44906  -0.44877
 Alpha  occ. eigenvalues --   -0.44727  -0.44661  -0.44520  -0.44158  -0.44081
 Alpha  occ. eigenvalues --   -0.43832  -0.43814  -0.43774  -0.43343  -0.43202
 Alpha  occ. eigenvalues --   -0.43110  -0.42910  -0.42663  -0.42552  -0.42268
 Alpha  occ. eigenvalues --   -0.42091  -0.41976  -0.41785  -0.41761  -0.41508
 Alpha  occ. eigenvalues --   -0.40577  -0.40255  -0.40225  -0.39615  -0.39565
 Alpha  occ. eigenvalues --   -0.39097  -0.38888  -0.38765  -0.38468  -0.38408
 Alpha  occ. eigenvalues --   -0.38168  -0.37717  -0.36972  -0.35804  -0.35556
 Alpha  occ. eigenvalues --   -0.35330  -0.35038  -0.34760  -0.33974  -0.33972
 Alpha  occ. eigenvalues --   -0.33619  -0.33586  -0.33278  -0.32791  -0.32763
 Alpha  occ. eigenvalues --   -0.32008  -0.31793  -0.31028  -0.26144  -0.25464
 Alpha  occ. eigenvalues --   -0.23464  -0.22983
 Alpha virt. eigenvalues --   -0.07423  -0.07114   0.00138   0.01575   0.02296
 Alpha virt. eigenvalues --    0.03042   0.04152   0.04713   0.05141   0.05487
 Alpha virt. eigenvalues --    0.06735   0.06969   0.07726   0.08128   0.08920

 Mulliken charges:
               1
     1  Mg   0.966668
     2  C    0.016004
     3  C   -0.089408
     4  C   -0.073322
     5  C   -0.081706
     6  N   -0.340763
     7  C   -0.050159
     8  C   -0.024441
     9  C   -0.146553
    10  C    0.111040
    11  C    0.045268
    12  C    0.022923
    13  C   -0.129964
    14  H    0.028895
    15  N   -0.460541
    16  C    0.119154
    17  C   -0.139192
    18  C   -0.060654
    19  C    0.168455
    20  C    0.086708
    21  C    0.018668
    22  O   -0.211052
    23  C   -0.019675
    24  N   -0.295268
    25  C    0.031296
    26  C   -0.087921
    27  C   -0.051421
    28  C    0.005505
    29  C    0.018785
    30  C   -0.018511
    31  C   -0.065346
    32  N   -0.450982
    33  C    0.151275
    34  C   -0.200796
    35  C   -0.007515
    36  C    0.105966
    37  C    0.098593
    38  C    0.085792
    39  O   -0.226235
    40  C   -0.061230
    41  C    0.241375
    42  O   -0.258086
    43  O   -0.370124
    44  C    0.138497
    45  H    0.002881
    46  H   -0.045485
    47  H   -0.027213
    48  H    0.026031
    49  H    0.042462
    50  H    0.041625
    51  H    0.029818
    52  H    0.040815
    53  H    0.040693
    54  H    0.032340
    55  H    0.057552
    56  H    0.062907
    57  H    0.069814
    58  H    0.019239
    59  H    0.052864
    60  H    0.067227
    61  H    0.060702
    62  H    0.051538
    63  H    0.046690
    64  H    0.041954
    65  H    0.030585
    66  H    0.057219
    67  H    0.038731
    68  H    0.041068
    69  H    0.036557
    70  H    0.040103
    71  H    0.033023
    72  H    0.044190
    73  H    0.043255
    74  H    0.064999
    75  H    0.064728
    76  H    0.078452
    77  H    0.064883
    78  H    0.047285
    79  H    0.060472
    80  Mg   0.973762
    81  C   -0.020992
    82  C   -0.054212
    83  C   -0.053599
    84  C   -0.110026
    85  N   -0.302018
    86  C   -0.007171
    87  C   -0.073330
    88  C   -0.132762
    89  C    0.070416
    90  C    0.036908
    91  C    0.034175
    92  C   -0.096426
    93  H    0.049883
    94  N   -0.460649
    95  C    0.091432
    96  C   -0.147398
    97  C   -0.078548
    98  C    0.134236
    99  C    0.063131
   100  C    0.051792
   101  O   -0.201382
   102  C   -0.020374
   103  N   -0.271081
   104  C    0.014722
   105  C   -0.095400
   106  C   -0.044685
   107  C    0.058129
   108  C    0.023231
   109  C   -0.029518
   110  C   -0.028134
   111  N   -0.485362
   112  C    0.125832
   113  C   -0.223672
   114  C   -0.055374
   115  C    0.152382
   116  C    0.077590
   117  C    0.163263
   118  O   -0.174819
   119  C   -0.083184
   120  C    0.267172
   121  O   -0.273049
   122  O   -0.390001
   123  C    0.157557
   124  H   -0.025728
   125  H    0.021055
   126  H   -0.000203
   127  H    0.020588
   128  H    0.035033
   129  H    0.041931
   130  H    0.027854
   131  H    0.045275
   132  H    0.025028
   133  H    0.073832
   134  H    0.043911
   135  H    0.037079
   136  H    0.048589
   137  H    0.053698
   138  H    0.042073
   139  H    0.049791
   140  H    0.042874
   141  H    0.056126
   142  H    0.045885
   143  H    0.031653
   144  H    0.049315
   145  H    0.037542
   146  H    0.032028
   147  H    0.020881
   148  H    0.014733
   149  H    0.040150
   150  H    0.034901
   151  H    0.038238
   152  H    0.028673
   153  H    0.052698
   154  H    0.061907
   155  H    0.080212
   156  H    0.043700
   157  H    0.073795
   158  H    0.042433
 Sum of Mulliken charges =  -0.00000

 Dipole moment (field-independent basis, Debye):
    X=              2.8935    Y=              0.1000    Z=             -2.2896  Tot=              3.6911
 Quadrupole moment (field-independent basis, Debye-Ang):
   XX=           -228.6958   YY=           -576.2011   ZZ=           -476.7059
   XY=            285.5654   XZ=             37.8075   YZ=              7.4260

 Normal termination of Gaussian 16 at Mon Sep 20 06:51:31 2021.
