 Gaussian 16, Revision A.03,
 Gaussian 16:  ES64L-G16RevA.03 25-Dec-2016

 --------------------------------
 #p wB97XD/Def2SVP td=(nstates=5)
 --------------------------------

 --------------------------------
 TDDFT excited states in gaussian
 --------------------------------
 Symbolic Z-matrix:
 Charge =  0 Multiplicity = 1

                         Standard orientation:
 ---------------------------------------------------------------------
 Center     Atomic      Atomic             Coordinates (Angstroms)
 Number     Number       Type             X           Y           Z
 ---------------------------------------------------------------------
      1         12           0       -0.720166    0.127069    0.339434
      2          6           0        2.759057    0.063244    0.327411
      3          6           0       -0.799202   -3.236379    0.159451
      4          6           0       -4.066168    0.323014   -0.098003
      5          6           0       -0.548413    3.557052    0.030383
      6          7           0        0.867588   -1.415480    0.234848
      7          6           0        2.205518   -1.210052    0.456876
      8          6           0        2.920860   -2.505143    0.532607
      9          6           0        1.852087   -3.599428    0.429497
     10          6           0        0.516389   -2.751211    0.279896
     11          6           0        2.015560   -4.692731   -0.614952
     12          6           0        3.843625   -2.599621    1.876363
     13          6           0        5.371333   -2.753077    1.689756
     14          1           0        6.172782   -3.664757    2.586092
     15          7           0       -2.233471   -1.256371    0.190318
     16          6           0       -2.070777   -2.631610    0.116217
     17          6           0       -3.334362   -3.251142   -0.055176
     18          6           0       -4.318310   -2.229003   -0.139321
     19          6           0       -3.553962   -0.985858    0.005563
     20          6           0       -3.410131   -4.826885    0.005930
     21          6           0       -5.804877   -2.455840   -0.408645
     22          8           0       -6.651704   -1.562304   -0.559942
     23          6           0       -6.338510   -3.820613   -0.421059
     24          7           0       -2.144810    1.675549   -0.237071
     25          6           0       -3.455049    1.542466   -0.239769
     26          6           0       -4.145439    2.867417   -0.634729
     27          6           0       -3.039988    3.850440   -0.081130
     28          6           0       -1.798463    2.964353   -0.063333
     29          6           0       -4.467065    3.188431   -2.141306
     30          6           0       -3.312319    4.520140    1.350221
     31          6           0       -3.492157    3.630752    2.511563
     32          7           0        0.790827    1.642569    0.150563
     33          6           0        0.704186    3.044516    0.043634
     34          6           0        2.020034    3.596159   -0.019683
     35          6           0        2.856955    2.498735    0.018440
     36          6           0        2.053636    1.330869    0.231451
     37          6           0        2.365862    4.963147   -0.357968
     38          6           0        4.183709    2.121907    0.163851
     39          8           0        5.230076    2.778515    0.159430
     40          6           0        4.229624    0.529756    0.273006
     41          6           0        4.842295    0.062642   -1.005859
     42          8           0        4.507157    0.206463   -2.162897
     43          8           0        5.952468   -0.580934   -0.640631
     44          6           0        6.756444   -1.187743   -1.751622
     45          1           0       -0.700331   -4.310293    0.330730
     46          1           0       -5.157323    0.336306   -0.082045
     47          1           0       -0.511428    4.647776   -0.001034
     48          1           0        3.567237   -2.515588   -0.344119
     49          1           0        1.767131   -4.100613    1.393452
     50          1           0        1.407066   -4.214277   -1.381458
     51          1           0        1.708316   -5.692241   -0.306734
     52          1           0        2.995702   -4.880536   -1.052458
     53          1           0        3.471334   -3.413658    2.497626
     54          1           0        3.830466   -1.692156    2.480571
     55          1           0        5.797668   -1.772499    1.903401
     56          1           0        5.640137   -2.938500    0.650672
     57          1           0       -3.935551   -5.180220   -0.881105
     58          1           0       -4.078630   -4.888982    0.864709
     59          1           0       -2.478178   -5.392076   -0.009005
     60          1           0       -5.828115   -4.433880   -1.162398
     61          1           0       -7.319875   -3.744305   -0.888648
     62          1           0       -6.428511   -4.294711    0.556638
     63          1           0       -4.977480    3.033518    0.049680
     64          1           0       -3.021514    4.651945   -0.819223
     65          1           0       -3.704413    2.894114   -2.861304
     66          1           0       -4.622589    4.267636   -2.118375
     67          1           0       -5.386057    2.691720   -2.453608
     68          1           0       -4.209417    5.139339    1.372790
     69          1           0       -2.424511    5.033055    1.719995
     70          1           0       -2.469131    3.383241    2.791375
     71          1           0       -4.016780    2.683590    2.382404
     72          1           0       -3.945371    4.039558    3.414058
     73          1           0        2.323510    4.973941   -1.447745
     74          1           0        3.354785    5.290037   -0.037900
     75          1           0        1.726495    5.704167    0.123072
     76          1           0        4.728644    0.171714    1.173562
     77          1           0        6.562546   -2.257434   -1.669362
     78          1           0        7.807080   -0.925027   -1.630237
     79          1           0        6.479476   -0.924755   -2.772905
 ---------------------------------------------------------------------

 SCF Done:  E(RwB97XD) =  -2035.28260561     A.U. after   19 cycles

 Excitation energies and oscillator strengths:

 Excited State   1:      Singlet-A      1.6463 eV  753.10 nm  f=0.3725  <S**2>=0.000
     155 ->158         0.18139
     156 ->157         0.68363
     155 <-158         0.11556
 This state for optimization and/or second-order correction.
 Total Energy, E(TD-HF/TD-DFT) =  -2035.22210467
 Copying the excited state density for this state as the 1-particle RhoCI density.

 Excited State   2:      Singlet-A      2.1205 eV  584.70 nm  f=0.1348  <S**2>=0.000
     155 ->157         0.64939
     156 ->158        -0.26632

 Excited State   3:      Singlet-A      3.3232 eV  373.09 nm  f=0.0023  <S**2>=0.000
     153 ->157         0.37105
     153 ->159         0.23959
     153 ->160         0.16360
     154 ->157         0.45662
     154 ->159         0.15067

 Excited State   4:      Singlet-A      3.4748 eV  356.80 nm  f=0.0062  <S**2>=0.000
     153 ->157         0.47902
     153 ->159         0.10610
     154 ->157        -0.46696

 Excited State   5:      Singlet-A      3.5764 eV  346.67 nm  f=0.3032  <S**2>=0.000
     152 ->157         0.39787
     154 ->157         0.10318
     155 ->157         0.17615
     156 ->158         0.52191

 The electronic state is 1-A.
 Alpha  occ. eigenvalues --  -46.95692 -19.30291 -19.24045 -19.23714 -19.23329
 Alpha  occ. eigenvalues --  -14.46597 -14.46439 -14.44328 -14.43593 -10.42470
 Alpha  occ. eigenvalues --  -10.39053 -10.38214 -10.35487 -10.35485 -10.35251
 Alpha  occ. eigenvalues --  -10.34646 -10.34317 -10.34118 -10.33833 -10.33139
 Alpha  occ. eigenvalues --  -10.33016 -10.32824 -10.32625 -10.32590 -10.32309
 Alpha  occ. eigenvalues --  -10.32301 -10.32022 -10.31969 -10.31862 -10.31618
 Alpha  occ. eigenvalues --  -10.31560 -10.31491 -10.31478 -10.31209 -10.30547
 Alpha  occ. eigenvalues --  -10.30339 -10.30333 -10.30130 -10.29944 -10.29868
 Alpha  occ. eigenvalues --  -10.29465 -10.28720 -10.28560  -3.21557  -1.95147
 Alpha  occ. eigenvalues --   -1.94654  -1.94541  -1.19208  -1.11350  -1.10840
 Alpha  occ. eigenvalues --   -1.09576  -1.07448  -1.06322  -1.05418  -1.04674
 Alpha  occ. eigenvalues --   -0.94215  -0.91140  -0.90634  -0.90333  -0.89903
 Alpha  occ. eigenvalues --   -0.89544  -0.88825  -0.86584  -0.86168  -0.85006
 Alpha  occ. eigenvalues --   -0.83953  -0.83531  -0.82717  -0.80731  -0.79615
 Alpha  occ. eigenvalues --   -0.79326  -0.77912  -0.77312  -0.75498  -0.73679
 Alpha  occ. eigenvalues --   -0.71358  -0.71058  -0.69749  -0.69186  -0.67747
 Alpha  occ. eigenvalues --   -0.67396  -0.66794  -0.65973  -0.64066  -0.62444
 Alpha  occ. eigenvalues --   -0.61931  -0.61326  -0.60615  -0.60267  -0.59909
 Alpha  occ. eigenvalues --   -0.58438  -0.57712  -0.57496  -0.57010  -0.56788
 Alpha  occ. eigenvalues --   -0.56661  -0.55311  -0.55182  -0.54964  -0.54662
 Alpha  occ. eigenvalues --   -0.54156  -0.53864  -0.53139  -0.53036  -0.52346
 Alpha  occ. eigenvalues --   -0.51745  -0.51677  -0.51403  -0.51148  -0.50977
 Alpha  occ. eigenvalues --   -0.50458  -0.50295  -0.50045  -0.49328  -0.49116
 Alpha  occ. eigenvalues --   -0.48780  -0.48628  -0.48193  -0.47932  -0.47774
 Alpha  occ. eigenvalues --   -0.47193  -0.46579  -0.46408  -0.46097  -0.46049
 Alpha  occ. eigenvalues --   -0.45638  -0.45311  -0.45163  -0.44945  -0.44483
 Alpha  occ. eigenvalues --   -0.44161  -0.44078  -0.43763  -0.43632  -0.43027
 Alpha  occ. eigenvalues --   -0.42854  -0.42659  -0.42102  -0.41420  -0.40867
 Alpha  occ. eigenvalues --   -0.40053  -0.39992  -0.39654  -0.39099  -0.38446
 Alpha  occ. eigenvalues --   -0.38066  -0.36490  -0.36269  -0.35762  -0.33703
 Alpha  occ. eigenvalues --   -0.32987  -0.32725  -0.32525  -0.32167  -0.25948
 Alpha  occ. eigenvalues --   -0.23273
 Alpha virt. eigenvalues --   -0.07359   0.00271   0.02316   0.04334   0.05282
 Alpha virt. eigenvalues --    0.07729   0.08605   0.09086   0.09767   0.10992
 Alpha virt. eigenvalues --    0.11420   0.12142   0.12733   0.13107   0.13733

 Mulliken charges:
               1
     1  Mg   0.939074
     2  C   -0.014576
     3  C   -0.073747
     4  C   -0.062148
     5  C   -0.108205
     6  N   -0.378547
     7  C    0.014373
     8  C   -0.066573
     9  C   -0.052570
    10  C   -0.019186
    11  C    0.003408
    12  C    0.003835
    13  C   -0.135659
    14  H    0.038431
    15  N   -0.463707
    16  C    0.198325
    17  C   -0.182574
    18  C   -0.073565
    19  C    0.131114
    20  C    0.083013
    21  C    0.052677
    22  O   -0.248050
    23  C   -0.009964
    24  N   -0.296301
    25  C    0.020101
    26  C   -0.042576
    27  C   -0.112655
    28  C    0.095805
    29  C    0.041901
    30  C    0.013748
    31  C   -0.088482
    32  N   -0.408796
    33  C    0.114879
    34  C   -0.133302
    35  C    0.022802
    36  C    0.108293
    37  C    0.062409
    38  C    0.079644
    39  O   -0.226670
    40  C   -0.091624
    41  C    0.269312
    42  O   -0.244557
    43  O   -0.346891
    44  C    0.120667
    45  H   -0.007305
    46  H    0.014649
    47  H   -0.002410
    48  H    0.047137
    49  H    0.033942
    50  H    0.048099
    51  H    0.042010
    52  H    0.040863
    53  H    0.041747
    54  H    0.042528
    55  H    0.057912
    56  H    0.038054
    57  H    0.037966
    58  H    0.060542
    59  H    0.052887
    60  H    0.039053
    61  H    0.045918
    62  H    0.075398
    63  H    0.019748
    64  H    0.023022
    65  H    0.050116
    66  H    0.040567
    67  H    0.051589
    68  H    0.036074
    69  H    0.028689
    70  H    0.022177
    71  H    0.034893
    72  H    0.039564
    73  H    0.074336
    74  H    0.055806
    75  H    0.035989
    76  H    0.056708
    77  H    0.046830
    78  H    0.068349
    79  H    0.073667
 Sum of Mulliken charges =  -0.00000

 Dipole moment (field-independent basis, Debye):
    X=             -1.2081    Y=             -3.1936    Z=              1.7061  Tot=              3.8170
 Quadrupole moment (field-independent basis, Debye-Ang):
   XX=           -280.0775   YY=           -221.1785   ZZ=           -255.4745
   XY=            -21.3996   XZ=             -4.6000   YZ=              1.8410

 Normal termination of Gaussian 16 at Sat Sep 18 20:57:17 2021.
