 Gaussian 16, Revision A.03,
 Gaussian 16:  ES64L-G16RevA.03 25-Dec-2016

 --------------------------------
 #p wB97XD/Def2SVP td=(nstates=5)
 --------------------------------

 --------------------------------
 TDDFT excited states in gaussian
 --------------------------------
 Symbolic Z-matrix:
 Charge =  0 Multiplicity = 1

                         Standard orientation:
 ---------------------------------------------------------------------
 Center     Atomic      Atomic             Coordinates (Angstroms)
 Number     Number       Type             X           Y           Z
 ---------------------------------------------------------------------
      1         12           0        9.047535   -0.292399    0.107166
      2          6           0        7.673748    2.589116   -1.266491
      3          6           0       11.695139    1.497855    1.172387
      4          6           0       10.708650   -3.172136    0.729216
      5          6           0        6.696900   -2.197196   -1.736746
      6          7           0        9.483446    1.787988    0.000484
      7          6           0        8.759300    2.869184   -0.452456
      8          6           0        9.552165    4.186601   -0.230493
      9          6           0       10.989195    3.636388    0.025209
     10          6           0       10.705061    2.233149    0.540511
     11          6           0       11.907389    3.581286   -1.246200
     12          6           0        8.803583    5.013774    0.830644
     13          6           0        8.717948    6.460890    0.525892
     14          1           0        7.661156    7.179144    1.235413
     15          7           0       10.830071   -0.729477    1.046172
     16          6           0       11.754163    0.172781    1.466258
     17          6           0       12.675795   -0.497016    2.349119
     18          6           0       12.375769   -1.900989    2.218820
     19          6           0       11.303559   -1.988424    1.223132
     20          6           0       13.767094    0.196674    3.082792
     21          6           0       13.084875   -3.165302    2.804661
     22          8           0       12.685507   -4.312758    2.596490
     23          6           0       14.220534   -3.039695    3.781427
     24          7           0        8.898193   -2.359136   -0.741221
     25          6           0        9.673968   -3.402615   -0.166491
     26          6           0        9.219964   -4.768250   -0.563636
     27          6           0        7.825066   -4.381566   -1.154121
     28          6           0        7.765455   -2.856318   -1.154600
     29          6           0       10.183172   -5.502779   -1.556583
     30          6           0        6.615953   -4.963079   -0.334102
     31          6           0        6.641333   -4.683316    1.190190
     32          7           0        7.431677    0.072184   -1.144780
     33          6           0        6.534717   -0.799201   -1.781856
     34          6           0        5.612257    0.013436   -2.482508
     35          6           0        6.014890    1.326980   -2.275814
     36          6           0        7.112348    1.298562   -1.480010
     37          6           0        4.419269   -0.480211   -3.237324
     38          6           0        5.746086    2.636622   -2.646868
     39          8           0        4.856414    3.079746   -3.395848
     40          6           0        6.792530    3.603479   -2.015233
     41          6           0        5.921994    4.551136   -1.132238
     42          8           0        5.321647    4.220945   -0.094042
     43          8           0        5.936305    5.814097   -1.714224
     44          6           0        4.975470    6.842927   -1.203481
     45          1           0       12.535373    2.163811    1.380036
     46          1           0       11.020931   -4.195959    0.948641
     47          1           0        5.830525   -2.718603   -2.149175
     48          1           0        9.498129    4.814707   -1.119049
     49          1           0       11.447990    4.201665    0.835883
     50          1           0       11.487888    4.001121   -2.160900
     51          1           0       12.090768    2.548772   -1.540742
     52          1           0       12.808448    4.162289   -1.050730
     53          1           0        9.417727    4.958797    1.728392
     54          1           0        7.818190    4.566217    0.963031
     55          1           0        8.470715    6.522408   -0.534044
     56          1           0        9.706418    6.900531    0.657637
     57          1           0       13.580688    1.267998    3.155292
     58          1           0       14.719554   -0.141079    2.672944
     59          1           0       13.769133   -0.137158    4.120469
     60          1           0       14.775786   -3.971320    3.670121
     61          1           0       13.848559   -2.992454    4.805161
     62          1           0       14.884133   -2.210552    3.533994
     63          1           0        9.056414   -5.442181    0.278465
     64          1           0        7.769915   -4.740551   -2.182338
     65          1           0       10.808863   -4.761616   -2.054598
     66          1           0        9.717597   -6.089690   -2.348496
     67          1           0       10.871836   -6.220763   -1.110297
     68          1           0        6.574191   -6.023935   -0.581555
     69          1           0        5.747416   -4.526030   -0.826665
     70          1           0        5.766999   -4.127677    1.529757
     71          1           0        7.559012   -4.129353    1.389854
     72          1           0        6.668745   -5.596076    1.784600
     73          1           0        4.528884   -0.089735   -4.249022
     74          1           0        3.529065   -0.121166   -2.720893
     75          1           0        4.354766   -1.561789   -3.356831
     76          1           0        7.244128    4.185539   -2.818140
     77          1           0        3.979636    6.430356   -1.363757
     78          1           0        5.000753    7.831858   -1.661062
     79          1           0        5.308053    6.826499   -0.165551
     80         12           0       -8.440368   -1.050935    0.323348
     81          6           0      -10.585337    1.818259    0.682573
     82          6           0       -5.803426    1.114824    0.422691
     83          6           0       -6.470910   -3.689915   -0.315780
     84          6           0      -11.214884   -2.933877   -0.231402
     85          7           0       -8.241105    1.304042    0.591738
     86          6           0       -9.276539    2.177873    0.755233
     87          6           0       -8.687508    3.495150    1.091631
     88          6           0       -7.157678    3.327067    0.877771
     89          6           0       -6.977482    1.818715    0.553922
     90          6           0       -6.633407    4.212121   -0.297506
     91          6           0       -9.037651    4.045411    2.451546
     92          6           0       -8.675508    5.483524    2.785648
     93          1           0       -9.741114    6.320983    3.357556
     94          7           0       -6.439580   -1.270085    0.200267
     95          6           0       -5.487731   -0.213789    0.168511
     96          6           0       -4.157157   -0.850016    0.148463
     97          6           0       -4.380241   -2.191665   -0.150052
     98          6           0       -5.835533   -2.426550   -0.160607
     99          6           0       -2.890932   -0.024947    0.245588
    100          6           0       -3.365269   -3.337177   -0.353908
    101          8           0       -3.654092   -4.448091   -0.836786
    102          6           0       -1.980530   -3.085661    0.084935
    103          7           0       -8.770911   -3.057134   -0.272655
    104          6           0       -7.852348   -3.980624   -0.468912
    105          6           0       -8.439837   -5.359157   -0.878265
    106          6           0       -9.925526   -5.129156   -0.592727
    107          6           0       -9.973829   -3.645451   -0.308108
    108          6           0       -8.151082   -5.684500   -2.382639
    109          6           0      -10.542658   -5.946830    0.519450
    110          6           0      -11.937816   -6.537719    0.249267
    111          7           0      -10.461254   -0.661628    0.334867
    112          6           0      -11.475860   -1.562702    0.096318
    113          6           0      -12.817583   -0.923442    0.249244
    114          6           0      -12.425759    0.384418    0.452354
    115          6           0      -11.032616    0.523796    0.447743
    116          6           0      -14.160472   -1.576696    0.319282
    117          6           0      -12.976850    1.713306    0.673328
    118          8           0      -14.157126    2.023787    0.788453
    119          6           0      -11.813052    2.717558    0.837345
    120          6           0      -12.085578    3.810132   -0.061286
    121          8           0      -11.936173    3.817512   -1.306977
    122          8           0      -12.381342    4.937318    0.643301
    123          6           0      -12.417861    6.203534   -0.055314
    124          1           0       -4.947752    1.782911    0.538546
    125          1           0       -5.848615   -4.508019   -0.684020
    126          1           0      -12.006210   -3.559582   -0.648979
    127          1           0       -9.095063    4.143466    0.317054
    128          1           0       -6.581737    3.598248    1.762732
    129          1           0       -5.779481    4.884597   -0.209841
    130          1           0       -7.486854    4.838704   -0.556100
    131          1           0       -6.482498    3.686019   -1.240515
    132          1           0       -8.516535    3.504672    3.241752
    133          1           0      -10.047592    3.770584    2.754567
    134          1           0       -8.340922    6.012854    1.894738
    135          1           0       -8.011892    5.416308    3.647346
    136          1           0       -2.128799   -0.285984   -0.488360
    137          1           0       -2.415811   -0.055155    1.225915
    138          1           0       -3.018827    1.037871    0.038779
    139          1           0       -2.006597   -2.714820    1.109679
    140          1           0       -1.661592   -2.300437   -0.599602
    141          1           0       -1.488155   -4.056958    0.114844
    142          1           0       -7.993362   -6.089497   -0.202593
    143          1           0      -10.602403   -5.264899   -1.435755
    144          1           0       -9.064619   -5.680534   -2.976493
    145          1           0       -7.737559   -6.686330   -2.498672
    146          1           0       -7.484813   -4.892272   -2.724386
    147          1           0      -10.589210   -5.388938    1.454158
    148          1           0       -9.747330   -6.632011    0.811050
    149          1           0      -12.016001   -7.441244    0.853157
    150          1           0      -12.153912   -6.656449   -0.812928
    151          1           0      -12.576882   -5.731524    0.608853
    152          1           0      -14.549303   -1.694879    1.330861
    153          1           0      -14.070005   -2.479406   -0.284224
    154          1           0      -14.855362   -1.032585   -0.321589
    155          1           0      -11.968122    3.148437    1.826444
    156          1           0      -12.088597    6.159741   -1.093812
    157          1           0      -11.889879    6.970223    0.511057
    158          1           0      -13.427167    6.612784   -0.106330
 ---------------------------------------------------------------------

 SCF Done:  E(RwB97XD) =  -4070.62421806     A.U. after   19 cycles

 Excitation energies and oscillator strengths:

 Excited State   1:      Singlet-A      1.6010 eV  774.41 nm  f=0.4774  <S**2>=0.000
     309 -> 316       -0.16647
     311 -> 313        0.68121
     309 <- 316       -0.11264
 This state for optimization and/or second-order correction.
 Total Energy, E(TD-HF/TD-DFT) =  -4070.56538174
 Copying the excited state density for this state as the 1-particle RhoCI density.

 Excited State   2:      Singlet-A      1.6951 eV  731.43 nm  f=0.3117  <S**2>=0.000
     310 -> 315        0.20304
     312 -> 314        0.67371
     310 <- 315        0.12151

 Excited State   3:      Singlet-A      2.1616 eV  573.59 nm  f=0.1171  <S**2>=0.000
     309 -> 313        0.64166
     311 -> 316        0.27519

 Excited State   4:      Singlet-A      2.2630 eV  547.86 nm  f=0.0700  <S**2>=0.000
     310 -> 314        0.61572
     312 -> 315       -0.34004

 Excited State   5:      Singlet-A      3.2648 eV  379.75 nm  f=0.0000  <S**2>=0.000
     312 -> 313        0.70664

 The electronic state is 1-A.
 Alpha  occ. eigenvalues --  -46.94826 -46.94713 -19.30299 -19.30203 -19.25204
 Alpha  occ. eigenvalues --  -19.23963 -19.23875 -19.23711 -19.23555 -19.22936
 Alpha  occ. eigenvalues --  -14.46719 -14.46348 -14.46219 -14.45582 -14.44258
 Alpha  occ. eigenvalues --  -14.44076 -14.44063 -14.43278 -10.44157 -10.42885
 Alpha  occ. eigenvalues --  -10.39373 -10.39107 -10.38362 -10.37854 -10.35955
 Alpha  occ. eigenvalues --  -10.35167 -10.34855 -10.34723 -10.34660 -10.34493
 Alpha  occ. eigenvalues --  -10.34478 -10.34472 -10.34427 -10.34396 -10.34355
 Alpha  occ. eigenvalues --  -10.34342 -10.34305 -10.33948 -10.33521 -10.33329
 Alpha  occ. eigenvalues --  -10.33055 -10.32587 -10.32500 -10.32494 -10.32416
 Alpha  occ. eigenvalues --  -10.32368 -10.32242 -10.32132 -10.32021 -10.32006
 Alpha  occ. eigenvalues --  -10.31987 -10.31965 -10.31935 -10.31899 -10.31765
 Alpha  occ. eigenvalues --  -10.31717 -10.31595 -10.31404 -10.31296 -10.31259
 Alpha  occ. eigenvalues --  -10.31181 -10.31120 -10.31051 -10.31008 -10.30936
 Alpha  occ. eigenvalues --  -10.30903 -10.30821 -10.30686 -10.30455 -10.30383
 Alpha  occ. eigenvalues --  -10.30114 -10.30100 -10.29982 -10.29906 -10.29842
 Alpha  occ. eigenvalues --  -10.29838 -10.29836 -10.29798 -10.29748 -10.29745
 Alpha  occ. eigenvalues --  -10.29720 -10.29686 -10.29544 -10.29391 -10.28516
 Alpha  occ. eigenvalues --  -10.27984  -3.20855  -3.20750  -1.94425  -1.94351
 Alpha  occ. eigenvalues --   -1.93985  -1.93868  -1.93828  -1.93731  -1.18202
 Alpha  occ. eigenvalues --   -1.16815  -1.11797  -1.11598  -1.11166  -1.10376
 Alpha  occ. eigenvalues --   -1.09086  -1.08047  -1.07648  -1.07019  -1.06486
 Alpha  occ. eigenvalues --   -1.06078  -1.05675  -1.04956  -1.04393  -1.04104
 Alpha  occ. eigenvalues --   -0.95035  -0.94716  -0.91847  -0.91172  -0.91077
 Alpha  occ. eigenvalues --   -0.91055  -0.90590  -0.90277  -0.89853  -0.89398
 Alpha  occ. eigenvalues --   -0.89237  -0.88881  -0.88630  -0.88450  -0.86646
 Alpha  occ. eigenvalues --   -0.86503  -0.85841  -0.85602  -0.84701  -0.84393
 Alpha  occ. eigenvalues --   -0.84203  -0.83651  -0.83117  -0.83076  -0.82736
 Alpha  occ. eigenvalues --   -0.82512  -0.80474  -0.80304  -0.79521  -0.79249
 Alpha  occ. eigenvalues --   -0.79137  -0.79025  -0.78370  -0.78122  -0.77535
 Alpha  occ. eigenvalues --   -0.77046  -0.75404  -0.74858  -0.74149  -0.73800
 Alpha  occ. eigenvalues --   -0.71844  -0.71359  -0.71094  -0.70905  -0.69914
 Alpha  occ. eigenvalues --   -0.69679  -0.68639  -0.68403  -0.68221  -0.67486
 Alpha  occ. eigenvalues --   -0.67239  -0.66979  -0.66744  -0.66612  -0.66440
 Alpha  occ. eigenvalues --   -0.66189  -0.64422  -0.63783  -0.62257  -0.62022
 Alpha  occ. eigenvalues --   -0.61917  -0.61771  -0.61364  -0.61293  -0.60638
 Alpha  occ. eigenvalues --   -0.60587  -0.60246  -0.59716  -0.59495  -0.59154
 Alpha  occ. eigenvalues --   -0.58335  -0.58089  -0.57726  -0.57580  -0.57406
 Alpha  occ. eigenvalues --   -0.57394  -0.57159  -0.56912  -0.56254  -0.55832
 Alpha  occ. eigenvalues --   -0.55714  -0.55602  -0.55282  -0.55118  -0.55060
 Alpha  occ. eigenvalues --   -0.55010  -0.54932  -0.54753  -0.54535  -0.54006
 Alpha  occ. eigenvalues --   -0.53814  -0.53797  -0.53695  -0.53544  -0.53522
 Alpha  occ. eigenvalues --   -0.52993  -0.52603  -0.52558  -0.52420  -0.52293
 Alpha  occ. eigenvalues --   -0.52096  -0.51766  -0.51729  -0.51477  -0.51470
 Alpha  occ. eigenvalues --   -0.51234  -0.50963  -0.50878  -0.50841  -0.50603
 Alpha  occ. eigenvalues --   -0.50480  -0.50197  -0.50182  -0.50150  -0.50044
 Alpha  occ. eigenvalues --   -0.49793  -0.49757  -0.49605  -0.49479  -0.49170
 Alpha  occ. eigenvalues --   -0.49168  -0.49019  -0.48842  -0.48671  -0.48367
 Alpha  occ. eigenvalues --   -0.48347  -0.48055  -0.48015  -0.47847  -0.47787
 Alpha  occ. eigenvalues --   -0.47541  -0.47369  -0.46957  -0.46891  -0.46710
 Alpha  occ. eigenvalues --   -0.46570  -0.46341  -0.46224  -0.45840  -0.45762
 Alpha  occ. eigenvalues --   -0.45715  -0.45535  -0.45523  -0.45521  -0.45280
 Alpha  occ. eigenvalues --   -0.45191  -0.45153  -0.44938  -0.44744  -0.44458
 Alpha  occ. eigenvalues --   -0.44346  -0.44237  -0.44001  -0.43887  -0.43848
 Alpha  occ. eigenvalues --   -0.43666  -0.43557  -0.43527  -0.43396  -0.43206
 Alpha  occ. eigenvalues --   -0.43089  -0.42958  -0.42844  -0.42786  -0.42654
 Alpha  occ. eigenvalues --   -0.42303  -0.42026  -0.41910  -0.41705  -0.41215
 Alpha  occ. eigenvalues --   -0.40599  -0.40329  -0.40112  -0.39711  -0.39439
 Alpha  occ. eigenvalues --   -0.39093  -0.39043  -0.38700  -0.38288  -0.37897
 Alpha  occ. eigenvalues --   -0.37801  -0.37554  -0.36376  -0.36256  -0.35758
 Alpha  occ. eigenvalues --   -0.35631  -0.35368  -0.35040  -0.33690  -0.33646
 Alpha  occ. eigenvalues --   -0.32874  -0.32870  -0.32628  -0.32412  -0.32310
 Alpha  occ. eigenvalues --   -0.32231  -0.32085  -0.31689  -0.26314  -0.25877
 Alpha  occ. eigenvalues --   -0.23153  -0.22595
 Alpha virt. eigenvalues --   -0.07513  -0.06378   0.00225   0.00282   0.02451
 Alpha virt. eigenvalues --    0.02915   0.04300   0.04741   0.05223   0.06248
 Alpha virt. eigenvalues --    0.06796   0.06933   0.07272   0.08255   0.09058

 Mulliken charges:
               1
     1  Mg   0.955558
     2  C   -0.066762
     3  C   -0.119174
     4  C   -0.020965
     5  C   -0.102751
     6  N   -0.406709
     7  C    0.019639
     8  C   -0.101536
     9  C   -0.087901
    10  C    0.033881
    11  C    0.034777
    12  C    0.039911
    13  C   -0.123593
    14  H    0.052427
    15  N   -0.464064
    16  C    0.230013
    17  C   -0.175551
    18  C   -0.078196
    19  C    0.188527
    20  C    0.069288
    21  C    0.055987
    22  O   -0.248262
    23  C   -0.006409
    24  N   -0.316596
    25  C   -0.057121
    26  C   -0.058280
    27  C   -0.099836
    28  C    0.111828
    29  C    0.018101
    30  C   -0.021930
    31  C   -0.053788
    32  N   -0.434848
    33  C    0.116424
    34  C   -0.198356
    35  C    0.053617
    36  C    0.194215
    37  C    0.093006
    38  C    0.016306
    39  O   -0.243385
    40  C   -0.028595
    41  C    0.287542
    42  O   -0.269782
    43  O   -0.389445
    44  C    0.142524
    45  H   -0.000598
    46  H    0.018941
    47  H    0.002651
    48  H    0.020256
    49  H    0.019587
    50  H    0.035804
    51  H    0.053215
    52  H    0.043739
    53  H    0.021704
    54  H    0.065056
    55  H    0.039994
    56  H    0.040500
    57  H    0.041143
    58  H    0.068022
    59  H    0.043292
    60  H    0.055046
    61  H    0.075156
    62  H    0.027354
    63  H    0.045990
    64  H    0.031417
    65  H    0.039679
    66  H    0.033258
    67  H    0.042904
    68  H    0.031924
    69  H    0.022817
    70  H    0.045574
    71  H    0.045622
    72  H    0.042641
    73  H    0.058768
    74  H    0.065461
    75  H    0.020429
    76  H    0.067266
    77  H    0.067355
    78  H    0.069988
    79  H    0.058306
    80  Mg   0.974540
    81  C    0.002875
    82  C   -0.073743
    83  C   -0.059240
    84  C   -0.108877
    85  N   -0.330618
    86  C   -0.063492
    87  C    0.015835
    88  C   -0.121869
    89  C    0.063851
    90  C    0.011146
    91  C    0.011745
    92  C   -0.119771
    93  H    0.034807
    94  N   -0.516060
    95  C    0.190078
    96  C   -0.128390
    97  C   -0.091887
    98  C    0.167472
    99  C    0.035414
   100  C    0.055272
   101  O   -0.255351
   102  C    0.008640
   103  N   -0.326321
   104  C   -0.014019
   105  C   -0.060045
   106  C   -0.104857
   107  C    0.037475
   108  C    0.034276
   109  C    0.005358
   110  C   -0.035272
   111  N   -0.421073
   112  C    0.132907
   113  C   -0.209484
   114  C   -0.009073
   115  C    0.152764
   116  C    0.108983
   117  C    0.073211
   118  O   -0.209584
   119  C   -0.032053
   120  C    0.264687
   121  O   -0.283603
   122  O   -0.351538
   123  C    0.134987
   124  H   -0.011277
   125  H    0.030319
   126  H    0.003249
   127  H    0.033878
   128  H    0.037761
   129  H    0.041733
   130  H    0.017363
   131  H    0.036366
   132  H    0.014241
   133  H    0.025518
   134  H    0.056719
   135  H    0.056740
   136  H    0.041993
   137  H    0.054753
   138  H    0.040676
   139  H    0.053471
   140  H    0.061241
   141  H    0.060623
   142  H    0.043488
   143  H    0.028017
   144  H    0.033480
   145  H    0.047669
   146  H    0.054693
   147  H    0.023010
   148  H    0.008593
   149  H    0.051923
   150  H    0.038443
   151  H    0.041173
   152  H    0.077169
   153  H    0.016942
   154  H    0.049234
   155  H    0.080669
   156  H    0.066883
   157  H    0.047284
   158  H    0.045856
 Sum of Mulliken charges =  -0.00000

 Dipole moment (field-independent basis, Debye):
    X=              7.5790    Y=              0.4391    Z=              3.8050  Tot=              8.4918
 Quadrupole moment (field-independent basis, Debye-Ang):
   XX=           -526.0492   YY=           -465.7949   ZZ=           -515.1958
   XY=             58.0324   XZ=             -0.1073   YZ=             14.9874

 Normal termination of Gaussian 16 at Sun Sep 19 10:53:22 2021.
