 Gaussian 16, Revision A.03,
 Gaussian 16:  ES64L-G16RevA.03 25-Dec-2016

 --------------------------------
 #p wB97XD/Def2SVP td=(nstates=5)
 --------------------------------

 --------------------------------
 TDDFT excited states in gaussian
 --------------------------------
 Symbolic Z-matrix:
 Charge =  0 Multiplicity = 1

                         Standard orientation:
 ---------------------------------------------------------------------
 Center     Atomic      Atomic             Coordinates (Angstroms)
 Number     Number       Type             X           Y           Z
 ---------------------------------------------------------------------
      1         12           0       28.700855    0.427940    0.554288
      2          6           0       28.389822   -2.247754   -1.802857
      3          6           0       28.949495    2.546704   -2.108808
      4          6           0       29.430117    2.738958    2.599769
      5          6           0       29.557128   -1.967123    2.936752
      6          7           0       28.658777    0.074598   -1.630666
      7          6           0       28.473887   -0.990231   -2.404699
      8          6           0       28.301894   -0.635920   -3.912099
      9          6           0       29.054104    0.769759   -3.927701
     10          6           0       28.845805    1.172810   -2.478534
     11          6           0       30.551393    0.656601   -4.195700
     12          6           0       26.797559   -0.485232   -4.319530
     13          6           0       26.527878   -0.463672   -5.826899
     14          1           0       25.312893   -1.086676   -6.329915
     15          7           0       28.647008    2.391278    0.341557
     16          6           0       28.745855    3.083130   -0.818984
     17          6           0       28.650372    4.512163   -0.450977
     18          6           0       28.678643    4.602134    1.035361
     19          6           0       28.949598    3.232131    1.388989
     20          6           0       28.498229    5.612286   -1.456130
     21          6           0       28.501611    5.743839    1.985782
     22          8           0       28.794154    5.647503    3.226633
     23          6           0       28.054555    7.021420    1.401857
     24          7           0       29.607001    0.426101    2.434855
     25          6           0       29.750879    1.558097    3.132614
     26          6           0       30.159594    1.278548    4.548504
     27          6           0       30.029467   -0.301066    4.742510
     28          6           0       29.623832   -0.683649    3.297740
     29          6           0       31.575700    1.725485    4.936968
     30          6           0       29.142628   -0.795100    5.912923
     31          6           0       27.695358   -0.450785    5.640980
     32          7           0       28.768811   -1.739707    0.642225
     33          6           0       29.177524   -2.527077    1.728354
     34          6           0       29.155180   -3.930612    1.277066
     35          6           0       28.748307   -3.860425   -0.053863
     36          6           0       28.555618   -2.497394   -0.418978
     37          6           0       29.540794   -5.060912    2.050473
     38          6           0       28.455287   -4.618140   -1.259626
     39          8           0       28.356515   -5.816281   -1.528317
     40          6           0       28.329262   -3.596893   -2.474944
     41          6           0       27.079858   -3.947936   -3.235909
     42          8           0       25.953306   -3.796817   -2.720731
     43          8           0       27.391647   -4.177934   -4.520600
     44          6           0       26.192089   -4.502961   -5.337650
     45          1           0       29.273139    3.271930   -2.857970
     46          1           0       29.588692    3.496919    3.369696
     47          1           0       29.730391   -2.775299    3.649693
     48          1           0       28.789704   -1.326846   -4.599911
     49          1           0       28.568875    1.483605   -4.593057
     50          1           0       30.877208   -0.383448   -4.203704
     51          1           0       31.034343    1.200594   -3.383713
     52          1           0       30.821854    1.182916   -5.111463
     53          1           0       26.451880    0.514037   -4.054902
     54          1           0       26.192362   -1.265180   -3.856126
     55          1           0       27.395099   -0.806619   -6.391898
     56          1           0       26.396348    0.573462   -6.135531
     57          1           0       28.676812    5.256031   -2.469903
     58          1           0       29.302524    6.324489   -1.272866
     59          1           0       27.535026    6.115603   -1.371025
     60          1           0       28.774546    7.344892    0.649841
     61          1           0       27.896939    7.697113    2.241766
     62          1           0       27.113554    6.858964    0.875478
     63          1           0       29.497761    1.780677    5.252968
     64          1           0       30.995937   -0.771836    4.924134
     65          1           0       31.601825    2.407504    5.787187
     66          1           0       32.039407    2.175985    4.059861
     67          1           0       32.267976    0.912602    5.154663
     68          1           0       29.423024   -0.294032    6.838804
     69          1           0       29.213380   -1.869538    6.082712
     70          1           0       27.622154    0.580923    5.983108
     71          1           0       27.035161   -1.100667    6.216308
     72          1           0       27.478924   -0.455898    4.572515
     73          1           0       28.789378   -5.828287    1.864791
     74          1           0       29.601086   -4.813725    3.110127
     75          1           0       30.516407   -5.279233    1.616456
     76          1           0       29.226038   -3.719290   -3.081521
     77          1           0       26.379950   -5.464682   -5.815180
     78          1           0       26.015126   -3.643105   -5.983976
     79          1           0       25.277724   -4.722563   -4.785336
     80         12           0      -29.200158   -0.542355   -0.462647
     81          6           0      -26.394260    1.779174   -0.413790
     82          6           0      -27.032021   -2.953609    0.666341
     83          6           0      -31.806909   -2.146327    0.884400
     84          6           0      -31.167227    1.931194   -1.711060
     85          7           0      -26.978434   -0.495424    0.250620
     86          6           0      -26.012749    0.563903    0.098279
     87          6           0      -24.611823    0.020236    0.392574
     88          6           0      -24.782429   -1.527287    0.362407
     89          6           0      -26.358957   -1.740433    0.417393
     90          6           0      -24.171107   -2.215295   -0.948554
     91          6           0      -23.881552    0.602488    1.567331
     92          6           0      -24.715752    1.378253    2.613940
     93          1           0      -24.202426    1.998875    3.926105
     94          7           0      -29.412041   -2.404840    0.521039
     95          6           0      -28.383273   -3.234297    0.909393
     96          6           0      -28.982510   -4.481324    1.479090
     97          6           0      -30.330475   -4.166587    1.631077
     98          6           0      -30.602498   -2.848327    1.062948
     99          6           0      -28.125731   -5.635467    1.862557
    100          6           0      -31.377161   -5.088786    2.321491
    101          8           0      -30.976299   -6.116657    2.838091
    102          6           0      -32.812817   -4.736105    2.528702
    103          7           0      -31.181178   -0.023453   -0.316637
    104          6           0      -32.075146   -0.971186    0.180375
    105          6           0      -33.521655   -0.530467   -0.043820
    106          6           0      -33.371327    0.602353   -1.122887
    107          6           0      -31.857778    0.826126   -1.090823
    108          6           0      -34.563083   -1.597830   -0.467912
    109          6           0      -34.208450    1.899085   -0.880445
    110          6           0      -35.468701    2.106554   -1.839112
    111          7           0      -28.883996    1.441518   -1.055164
    112          6           0      -29.800510    2.307660   -1.633411
    113          6           0      -29.108673    3.486860   -2.092773
    114          6           0      -27.826338    3.315687   -1.553804
    115          6           0      -27.756797    2.033631   -0.954828
    116          6           0      -29.800279    4.656054   -2.815051
    117          6           0      -26.516997    3.882641   -1.447041
    118          8           0      -26.161436    4.968722   -1.947456
    119          6           0      -25.455627    2.869983   -0.826420
    120          6           0      -24.799971    3.640792    0.248800
    121          8           0      -25.359102    4.301483    1.130484
    122          8           0      -23.473174    3.379178    0.155828
    123          6           0      -22.572908    4.199085    1.025862
    124          1           0      -26.344939   -3.714218    1.041709
    125          1           0      -32.650025   -2.688945    1.317641
    126          1           0      -31.800567    2.657807   -2.223533
    127          1           0      -24.142183    0.342932   -0.536656
    128          1           0      -24.450591   -2.010115    1.281741
    129          1           0      -23.336294   -2.794898   -0.556536
    130          1           0      -23.892026   -1.443532   -1.666309
    131          1           0      -24.949582   -2.884875   -1.315984
    132          1           0      -23.060887    1.186427    1.151046
    133          1           0      -23.445897   -0.298416    2.000692
    134          1           0      -25.518776    0.692907    2.886982
    135          1           0      -25.161911    2.255931    2.145833
    136          1           0      -28.161351   -5.683703    2.950516
    137          1           0      -27.119304   -5.449727    1.488666
    138          1           0      -28.489333   -6.535697    1.365857
    139          1           0      -33.047923   -3.897789    3.183381
    140          1           0      -33.368374   -5.520755    3.041460
    141          1           0      -33.144796   -4.649218    1.494223
    142          1           0      -33.708437   -0.170484    0.968586
    143          1           0      -33.622294    0.114228   -2.064875
    144          1           0      -35.183354   -1.952163    0.356007
    145          1           0      -34.046583   -2.485782   -0.830896
    146          1           0      -35.146008   -1.176234   -1.287515
    147          1           0      -33.628381    2.821380   -0.922567
    148          1           0      -34.509731    1.822656    0.164374
    149          1           0      -36.233082    2.433623   -1.134683
    150          1           0      -35.793442    1.213278   -2.372900
    151          1           0      -35.159835    2.807305   -2.613955
    152          1           0      -29.169286    5.215396   -3.506118
    153          1           0      -30.048965    5.296170   -1.969277
    154          1           0      -30.582276    4.281004   -3.474928
    155          1           0      -24.766343    2.548773   -1.608708
    156          1           0      -21.539461    3.890245    0.864907
    157          1           0      -22.800446    4.048986    2.081398
    158          1           0      -22.778210    5.208535    0.672326
 ---------------------------------------------------------------------

 SCF Done:  E(RwB97XD) =  -4070.58101377     A.U. after   19 cycles

 Excitation energies and oscillator strengths:

 Excited State   1:      Singlet-A      1.6105 eV  769.86 nm  f=0.3467  <S**2>=0.000
     309 -> 315       -0.16146
     312 -> 314        0.68848
     309 <- 315       -0.10997
 This state for optimization and/or second-order correction.
 Total Energy, E(TD-HF/TD-DFT) =  -4070.52182964
 Copying the excited state density for this state as the 1-particle RhoCI density.

 Excited State   2:      Singlet-A      1.6216 eV  764.57 nm  f=0.3973  <S**2>=0.000
     310 -> 316       -0.18179
     311 -> 313        0.68320
     310 <- 316       -0.11453

 Excited State   3:      Singlet-A      2.1385 eV  579.76 nm  f=0.0954  <S**2>=0.000
     310 -> 313        0.63835
     311 -> 316        0.28196

 Excited State   4:      Singlet-A      2.2277 eV  556.57 nm  f=0.0764  <S**2>=0.000
     309 -> 314        0.61812
     312 -> 315        0.32523

 Excited State   5:      Singlet-A      3.3014 eV  375.55 nm  f=0.0076  <S**2>=0.000
     305 -> 313       -0.44005
     307 -> 313        0.49016
     311 -> 316        0.16914

 The electronic state is 1-A.
 Alpha  occ. eigenvalues --  -46.95649 -46.94108 -19.31482 -19.30557 -19.24343
 Alpha  occ. eigenvalues --  -19.24139 -19.23974 -19.23869 -19.23206 -19.22089
 Alpha  occ. eigenvalues --  -14.47063 -14.47026 -14.46191 -14.46034 -14.44360
 Alpha  occ. eigenvalues --  -14.44002 -14.43261 -14.43142 -10.42956 -10.42919
 Alpha  occ. eigenvalues --  -10.39520 -10.39414 -10.38394 -10.37520 -10.36056
 Alpha  occ. eigenvalues --  -10.35857 -10.35742 -10.35434 -10.35415 -10.35005
 Alpha  occ. eigenvalues --  -10.34960 -10.34945 -10.34890 -10.34593 -10.34527
 Alpha  occ. eigenvalues --  -10.34521 -10.34179 -10.33878 -10.33811 -10.33227
 Alpha  occ. eigenvalues --  -10.33059 -10.32947 -10.32800 -10.32797 -10.32553
 Alpha  occ. eigenvalues --  -10.32449 -10.32445 -10.32392 -10.32314 -10.32129
 Alpha  occ. eigenvalues --  -10.31960 -10.31875 -10.31850 -10.31849 -10.31772
 Alpha  occ. eigenvalues --  -10.31693 -10.31678 -10.31665 -10.31546 -10.31532
 Alpha  occ. eigenvalues --  -10.31494 -10.31456 -10.31409 -10.31387 -10.31271
 Alpha  occ. eigenvalues --  -10.31219 -10.31172 -10.31107 -10.30819 -10.30789
 Alpha  occ. eigenvalues --  -10.30699 -10.30617 -10.30259 -10.30230 -10.30215
 Alpha  occ. eigenvalues --  -10.30064 -10.30054 -10.29976 -10.29884 -10.29863
 Alpha  occ. eigenvalues --  -10.29661 -10.29257 -10.28849 -10.28787 -10.28459
 Alpha  occ. eigenvalues --  -10.27939  -3.21589  -3.20268  -1.95146  -1.94733
 Alpha  occ. eigenvalues --   -1.94539  -1.93844  -1.93412  -1.93248  -1.18805
 Alpha  occ. eigenvalues --   -1.18222  -1.12949  -1.10834  -1.09631  -1.09415
 Alpha  occ. eigenvalues --   -1.08849  -1.08817  -1.06823  -1.06550  -1.06026
 Alpha  occ. eigenvalues --   -1.05752  -1.05239  -1.04921  -1.04418  -1.02347
 Alpha  occ. eigenvalues --   -0.93909  -0.93874  -0.91393  -0.91256  -0.91030
 Alpha  occ. eigenvalues --   -0.90879  -0.90495  -0.90151  -0.89771  -0.89571
 Alpha  occ. eigenvalues --   -0.89211  -0.88795  -0.88640  -0.87993  -0.86858
 Alpha  occ. eigenvalues --   -0.86287  -0.85795  -0.85593  -0.84877  -0.84661
 Alpha  occ. eigenvalues --   -0.84542  -0.84254  -0.83502  -0.82909  -0.82535
 Alpha  occ. eigenvalues --   -0.82109  -0.80752  -0.80020  -0.79653  -0.79122
 Alpha  occ. eigenvalues --   -0.78829  -0.78414  -0.77916  -0.77836  -0.77185
 Alpha  occ. eigenvalues --   -0.76793  -0.74996  -0.74732  -0.73681  -0.73610
 Alpha  occ. eigenvalues --   -0.71778  -0.71556  -0.70961  -0.70811  -0.69627
 Alpha  occ. eigenvalues --   -0.69559  -0.69154  -0.68915  -0.68136  -0.67370
 Alpha  occ. eigenvalues --   -0.67200  -0.66819  -0.66677  -0.66573  -0.66205
 Alpha  occ. eigenvalues --   -0.65510  -0.64260  -0.64105  -0.62416  -0.61739
 Alpha  occ. eigenvalues --   -0.61661  -0.61112  -0.61023  -0.60951  -0.60473
 Alpha  occ. eigenvalues --   -0.59929  -0.59527  -0.59520  -0.59249  -0.59184
 Alpha  occ. eigenvalues --   -0.58757  -0.58274  -0.58155  -0.57839  -0.57474
 Alpha  occ. eigenvalues --   -0.57242  -0.57095  -0.56523  -0.56447  -0.56175
 Alpha  occ. eigenvalues --   -0.55793  -0.55624  -0.55436  -0.55223  -0.55143
 Alpha  occ. eigenvalues --   -0.54855  -0.54741  -0.54660  -0.54514  -0.54302
 Alpha  occ. eigenvalues --   -0.54241  -0.53814  -0.53732  -0.53510  -0.53372
 Alpha  occ. eigenvalues --   -0.53140  -0.53110  -0.52982  -0.52574  -0.52515
 Alpha  occ. eigenvalues --   -0.51922  -0.51891  -0.51859  -0.51542  -0.51529
 Alpha  occ. eigenvalues --   -0.51429  -0.51151  -0.50996  -0.50834  -0.50710
 Alpha  occ. eigenvalues --   -0.50494  -0.50402  -0.50363  -0.50256  -0.50065
 Alpha  occ. eigenvalues --   -0.49693  -0.49600  -0.49557  -0.49222  -0.49114
 Alpha  occ. eigenvalues --   -0.48853  -0.48778  -0.48676  -0.48473  -0.48456
 Alpha  occ. eigenvalues --   -0.48293  -0.48142  -0.48083  -0.47716  -0.47657
 Alpha  occ. eigenvalues --   -0.47410  -0.47110  -0.47085  -0.46885  -0.46483
 Alpha  occ. eigenvalues --   -0.46394  -0.46326  -0.46031  -0.45976  -0.45928
 Alpha  occ. eigenvalues --   -0.45920  -0.45839  -0.45397  -0.45359  -0.45305
 Alpha  occ. eigenvalues --   -0.45305  -0.44943  -0.44864  -0.44648  -0.44639
 Alpha  occ. eigenvalues --   -0.44542  -0.44483  -0.44229  -0.44057  -0.43905
 Alpha  occ. eigenvalues --   -0.43896  -0.43691  -0.43675  -0.43409  -0.43010
 Alpha  occ. eigenvalues --   -0.42954  -0.42842  -0.42776  -0.42721  -0.42433
 Alpha  occ. eigenvalues --   -0.42103  -0.41819  -0.41364  -0.41242  -0.40991
 Alpha  occ. eigenvalues --   -0.40442  -0.40342  -0.39670  -0.39351  -0.39338
 Alpha  occ. eigenvalues --   -0.39232  -0.39171  -0.38692  -0.38559  -0.38281
 Alpha  occ. eigenvalues --   -0.38169  -0.37793  -0.36310  -0.36265  -0.35809
 Alpha  occ. eigenvalues --   -0.35762  -0.35327  -0.34917  -0.33741  -0.33338
 Alpha  occ. eigenvalues --   -0.33168  -0.33163  -0.32318  -0.31985  -0.31600
 Alpha  occ. eigenvalues --   -0.31540  -0.31463  -0.31144  -0.26393  -0.25987
 Alpha  occ. eigenvalues --   -0.22905  -0.22575
 Alpha virt. eigenvalues --   -0.07088  -0.06917   0.00134   0.00197   0.02002
 Alpha virt. eigenvalues --    0.03151   0.04328   0.04476   0.04643   0.06282
 Alpha virt. eigenvalues --    0.07085   0.07119   0.07274   0.07778   0.08829

 Mulliken charges:
               1
     1  Mg   0.978168
     2  C   -0.019784
     3  C   -0.101324
     4  C   -0.061249
     5  C   -0.070957
     6  N   -0.323049
     7  C   -0.008730
     8  C   -0.058089
     9  C   -0.138171
    10  C    0.062069
    11  C    0.058293
    12  C    0.014043
    13  C   -0.126936
    14  H    0.052374
    15  N   -0.518389
    16  C    0.183425
    17  C   -0.196053
    18  C   -0.037077
    19  C    0.166581
    20  C    0.060956
    21  C    0.056801
    22  O   -0.280042
    23  C    0.001540
    24  N   -0.410126
    25  C    0.066144
    26  C   -0.084878
    27  C   -0.063809
    28  C    0.089596
    29  C    0.031887
    30  C   -0.016736
    31  C   -0.058120
    32  N   -0.398574
    33  C    0.097251
    34  C   -0.187962
    35  C   -0.040070
    36  C    0.126224
    37  C    0.081446
    38  C    0.128860
    39  O   -0.224760
    40  C   -0.076933
    41  C    0.275784
    42  O   -0.284553
    43  O   -0.335613
    44  C    0.120621
    45  H    0.007865
    46  H    0.010692
    47  H   -0.017342
    48  H    0.026008
    49  H    0.022616
    50  H    0.047109
    51  H    0.037796
    52  H    0.040086
    53  H    0.035386
    54  H    0.067672
    55  H    0.038950
    56  H    0.040617
    57  H    0.029635
    58  H    0.048940
    59  H    0.062099
    60  H    0.057857
    61  H    0.061861
    62  H    0.053084
    63  H    0.042950
    64  H    0.035659
    65  H    0.045320
    66  H    0.034328
    67  H    0.025706
    68  H    0.032617
    69  H    0.029409
    70  H    0.029222
    71  H    0.042198
    72  H    0.049648
    73  H    0.070887
    74  H    0.031409
    75  H    0.069403
    76  H    0.065871
    77  H    0.061266
    78  H    0.062817
    79  H    0.070279
    80  Mg   0.953970
    81  C   -0.033124
    82  C   -0.082948
    83  C   -0.079746
    84  C   -0.082941
    85  N   -0.368268
    86  C   -0.053462
    87  C   -0.004917
    88  C   -0.142368
    89  C    0.044613
    90  C    0.037055
    91  C    0.030597
    92  C   -0.102178
    93  H    0.037284
    94  N   -0.471000
    95  C    0.145027
    96  C   -0.159894
    97  C   -0.079521
    98  C    0.169681
    99  C    0.104828
   100  C    0.036121
   101  O   -0.227561
   102  C    0.001961
   103  N   -0.386266
   104  C    0.091623
   105  C   -0.126921
   106  C   -0.015439
   107  C    0.025646
   108  C    0.031691
   109  C   -0.022304
   110  C   -0.061808
   111  N   -0.378240
   112  C    0.092440
   113  C   -0.180576
   114  C   -0.010803
   115  C    0.119035
   116  C    0.073277
   117  C    0.083812
   118  O   -0.250557
   119  C   -0.041251
   120  C    0.265165
   121  O   -0.260776
   122  O   -0.368572
   123  C    0.138618
   124  H    0.004107
   125  H   -0.041783
   126  H   -0.009017
   127  H    0.025753
   128  H    0.040006
   129  H    0.048703
   130  H    0.050482
   131  H    0.040818
   132  H    0.031520
   133  H    0.017662
   134  H    0.047105
   135  H    0.072047
   136  H    0.073552
   137  H    0.022220
   138  H    0.060937
   139  H    0.076692
   140  H    0.048888
   141  H    0.056630
   142  H    0.052211
   143  H    0.031506
   144  H    0.041497
   145  H    0.036520
   146  H    0.042374
   147  H    0.044477
   148  H    0.024545
   149  H    0.051164
   150  H    0.034944
   151  H    0.047434
   152  H    0.051612
   153  H    0.071741
   154  H    0.038743
   155  H    0.074322
   156  H    0.059714
   157  H    0.067158
   158  H    0.072715
 Sum of Mulliken charges =  -0.00000

 Dipole moment (field-independent basis, Debye):
    X=             -0.5891    Y=              0.1496    Z=             -4.1095  Tot=              4.1542
 Quadrupole moment (field-independent basis, Debye-Ang):
   XX=           -255.7955   YY=           -567.0010   ZZ=           -483.2647
   XY=            194.6868   XZ=              0.7924   YZ=            -13.2915

 Normal termination of Gaussian 16 at Sun Sep 19 07:35:34 2021.
