 Gaussian 16, Revision A.03,
 Gaussian 16:  ES64L-G16RevA.03 25-Dec-2016

 --------------------------------
 #p wB97XD/Def2SVP td=(nstates=5)
 --------------------------------

 --------------------------------
 TDDFT excited states in gaussian
 --------------------------------
 Symbolic Z-matrix:
 Charge =  0 Multiplicity = 1

                         Standard orientation:
 ---------------------------------------------------------------------
 Center     Atomic      Atomic             Coordinates (Angstroms)
 Number     Number       Type             X           Y           Z
 ---------------------------------------------------------------------
      1         12           0       25.284311   -0.818221   -0.009465
      2          6           0       26.411665    2.398966   -0.748998
      3          6           0       24.125188    0.256994    2.919224
      4          6           0       25.476622   -4.042860    1.108486
      5          6           0       26.559079   -1.905563   -3.063794
      6          7           0       25.124002    1.171901    0.910395
      7          6           0       25.628514    2.298361    0.421781
      8          6           0       25.179674    3.496403    1.334462
      9          6           0       24.552939    2.765416    2.545901
     10          6           0       24.612256    1.296908    2.136199
     11          6           0       25.405614    2.898545    3.903751
     12          6           0       24.152637    4.516461    0.662149
     13          6           0       24.469654    5.935730    0.987850
     14          1           0       23.376488    6.841518    1.533542
     15          7           0       24.832446   -1.747464    1.765223
     16          6           0       24.333083   -1.123723    2.877778
     17          6           0       23.830571   -2.148464    3.803482
     18          6           0       24.233018   -3.401151    3.261883
     19          6           0       24.928364   -3.073931    2.006008
     20          6           0       23.130452   -1.806952    5.157454
     21          6           0       24.067623   -4.824967    3.873598
     22          8           0       24.444071   -5.856375    3.328312
     23          6           0       23.388817   -4.942587    5.185711
     24          7           0       25.930591   -2.646205   -0.803206
     25          6           0       25.991112   -3.880132   -0.148615
     26          6           0       26.754470   -4.899931   -1.033609
     27          6           0       26.488820   -4.358594   -2.506434
     28          6           0       26.301909   -2.877311   -2.071719
     29          6           0       28.233512   -5.072826   -0.626318
     30          6           0       25.271965   -4.875794   -3.219707
     31          6           0       23.905464   -4.342512   -2.906816
     32          7           0       26.103101    0.028788   -1.705871
     33          6           0       26.614537   -0.520187   -2.859000
     34          6           0       27.149921    0.500939   -3.762336
     35          6           0       27.190689    1.703288   -2.922345
     36          6           0       26.543302    1.324902   -1.682184
     37          6           0       27.742759    0.277847   -5.058027
     38          6           0       27.614785    3.095752   -2.841717
     39          8           0       28.231471    3.780723   -3.568453
     40          6           0       27.039366    3.624092   -1.426132
     41          6           0       28.041730    4.379909   -0.590928
     42          8           0       28.766819    3.883916    0.266341
     43          8           0       27.933105    5.737869   -0.888912
     44          6           0       28.808568    6.669555   -0.155000
     45          1           0       23.536083    0.445652    3.819525
     46          1           0       25.524623   -5.045859    1.538487
     47          1           0       26.849649   -2.298103   -4.040116
     48          1           0       26.029338    4.062681    1.716725
     49          1           0       23.550896    3.081554    2.835789
     50          1           0       25.010324    3.762446    4.438479
     51          1           0       26.465334    3.114222    3.769909
     52          1           0       25.233565    1.998261    4.494822
     53          1           0       23.129195    4.333011    0.989701
     54          1           0       24.066229    4.450100   -0.422485
     55          1           0       24.703609    6.363238    0.013244
     56          1           0       25.329223    6.133726    1.627579
     57          1           0       23.930046   -1.753474    5.895765
     58          1           0       22.347386   -2.526433    5.397946
     59          1           0       22.785205   -0.775171    5.231389
     60          1           0       23.574624   -4.233076    5.991890
     61          1           0       23.594927   -5.921604    5.617602
     62          1           0       22.324083   -5.111933    5.022675
     63          1           0       26.196263   -5.824477   -0.889053
     64          1           0       27.341233   -4.518544   -3.166429
     65          1           0       28.976165   -4.931348   -1.411550
     66          1           0       28.421056   -5.965859   -0.029724
     67          1           0       28.507595   -4.309950    0.102166
     68          1           0       25.127927   -5.952313   -3.136043
     69          1           0       25.419355   -4.706446   -4.286433
     70          1           0       23.776776   -3.578277   -3.673084
     71          1           0       23.797401   -3.843263   -1.943669
     72          1           0       23.174192   -5.144569   -3.012130
     73          1           0       27.462908    1.140642   -5.662756
     74          1           0       27.277089   -0.615567   -5.473297
     75          1           0       28.827238    0.219135   -4.970921
     76          1           0       26.227958    4.315515   -1.653450
     77          1           0       29.828426    6.300936   -0.268314
     78          1           0       28.576728    6.662549    0.909712
     79          1           0       28.809794    7.727570   -0.417636
     80         12           0      -26.223743   -0.482312   -0.245787
     81          6           0      -24.431222    2.506427   -0.771642
     82          6           0      -27.338905    0.910188    2.714278
     83          6           0      -27.915838   -3.363085    0.456034
     84          6           0      -24.798819   -1.835911   -2.967300
     85          7           0      -25.941046    1.524828    0.840643
     86          6           0      -25.278150    2.657754    0.384302
     87          6           0      -25.614973    3.853534    1.252304
     88          6           0      -26.244234    3.208465    2.540352
     89          6           0      -26.532580    1.827762    1.995141
     90          6           0      -25.348856    3.259378    3.839951
     91          6           0      -26.626660    4.808479    0.601361
     92          6           0      -26.397831    6.298114    0.878838
     93          1           0      -26.644822    6.830472    2.317818
     94          7           0      -27.520954   -1.110385    1.300954
     95          6           0      -27.776481   -0.373048    2.406184
     96          6           0      -28.566307   -1.154615    3.301297
     97          6           0      -28.911761   -2.390491    2.652986
     98          6           0      -28.076817   -2.345236    1.465594
     99          6           0      -28.971574   -0.651028    4.658775
    100          6           0      -29.773768   -3.571227    3.100226
    101          8           0      -30.088272   -4.491253    2.313341
    102          6           0      -30.238885   -3.748795    4.541130
    103          7           0      -26.406811   -2.278487   -1.169505
    104          6           0      -27.105395   -3.378231   -0.680480
    105          6           0      -26.878351   -4.542163   -1.589620
    106          6           0      -25.932464   -4.108023   -2.766515
    107          6           0      -25.708895   -2.647951   -2.340612
    108          6           0      -26.482202   -5.865086   -0.867504
    109          6           0      -26.537897   -4.216235   -4.182811
    110          6           0      -26.161451   -5.519032   -4.914565
    111          7           0      -24.882880    0.113640   -1.571637
    112          6           0      -24.393219   -0.502931   -2.722198
    113          6           0      -23.475595    0.394558   -3.517348
    114          6           0      -23.477726    1.550834   -2.720380
    115          6           0      -24.362382    1.365845   -1.609702
    116          6           0      -22.774351    0.056500   -4.820332
    117          6           0      -22.905769    2.887620   -2.663482
    118          8           0      -22.097799    3.452908   -3.401509
    119          6           0      -23.626277    3.586889   -1.433727
    120          6           0      -22.486119    4.163376   -0.571470
    121          8           0      -21.423083    3.629510   -0.330385
    122          8           0      -22.800778    5.480855   -0.243949
    123          6           0      -21.773862    6.126935    0.573651
    124          1           0      -27.735189    1.409234    3.600835
    125          1           0      -28.418505   -4.324770    0.576405
    126          1           0      -24.289637   -2.388053   -3.759533
    127          1           0      -24.754306    4.443641    1.566185
    128          1           0      -27.170100    3.674943    2.877017
    129          1           0      -24.424735    3.831423    3.752231
    130          1           0      -24.990630    2.304220    4.223195
    131          1           0      -25.877220    3.758561    4.652218
    132          1           0      -27.646158    4.574326    0.906921
    133          1           0      -26.580178    4.736699   -0.485463
    134          1           0      -26.946257    6.930768    0.181064
    135          1           0      -25.374956    6.591100    0.643137
    136          1           0      -28.020413   -0.295251    5.055058
    137          1           0      -29.347772   -1.378027    5.378386
    138          1           0      -29.669015    0.186237    4.646843
    139          1           0      -29.404148   -3.643865    5.234368
    140          1           0      -30.650359   -4.757841    4.521037
    141          1           0      -30.974729   -2.991875    4.812589
    142          1           0      -27.861990   -4.859543   -1.937109
    143          1           0      -24.951052   -4.584008   -2.772234
    144          1           0      -26.385517   -5.645141    0.195909
    145          1           0      -25.512609   -6.192298   -1.241946
    146          1           0      -27.318147   -6.535153   -1.071039
    147          1           0      -26.291950   -3.294899   -4.710314
    148          1           0      -27.623433   -4.304952   -4.134643
    149          1           0      -25.906924   -6.290129   -4.187165
    150          1           0      -25.272162   -5.486282   -5.544278
    151          1           0      -27.042100   -5.864921   -5.456596
    152          1           0      -23.535136    0.046265   -5.601044
    153          1           0      -22.287666   -0.918006   -4.854764
    154          1           0      -22.058865    0.861869   -4.985584
    155          1           0      -24.318012    4.390288   -1.686311
    156          1           0      -21.906042    6.011556    1.649860
    157          1           0      -21.822180    7.172267    0.268937
    158          1           0      -20.734613    5.816598    0.465357
 ---------------------------------------------------------------------

 SCF Done:  E(RwB97XD) =  -4070.64678475     A.U. after   17 cycles

 Excitation energies and oscillator strengths:

 Excited State   1:      Singlet-A      1.6238 eV  763.53 nm  f=0.3744  <S**2>=0.000
     309 -> 316        0.18256
     312 -> 314        0.68421
     309 <- 316        0.11751
 This state for optimization and/or second-order correction.
 Total Energy, E(TD-HF/TD-DFT) =  -4070.58711030
 Copying the excited state density for this state as the 1-particle RhoCI density.

 Excited State   2:      Singlet-A      1.6477 eV  752.46 nm  f=0.3766  <S**2>=0.000
     310 -> 315       -0.19179
     311 -> 313        0.68144
     310 <- 315       -0.11858

 Excited State   3:      Singlet-A      2.1798 eV  568.78 nm  f=0.0967  <S**2>=0.000
     310 -> 313        0.63414
     311 -> 315        0.30023

 Excited State   4:      Singlet-A      2.2000 eV  563.56 nm  f=0.1023  <S**2>=0.000
     309 -> 314        0.63108
     312 -> 316       -0.30777

 Excited State   5:      Singlet-A      3.3922 eV  365.50 nm  f=0.0179  <S**2>=0.000
     308 -> 314        0.66090
     312 -> 316        0.17960

 The electronic state is 1-A.
 Alpha  occ. eigenvalues --  -46.94250 -46.94002 -19.30994 -19.30261 -19.25348
 Alpha  occ. eigenvalues --  -19.25039 -19.24746 -19.24279 -19.24170 -19.24145
 Alpha  occ. eigenvalues --  -14.47299 -14.46751 -14.46015 -14.45891 -14.44500
 Alpha  occ. eigenvalues --  -14.44109 -14.43897 -14.43784 -10.43550 -10.43549
 Alpha  occ. eigenvalues --  -10.39871 -10.39582 -10.39540 -10.39106 -10.35539
 Alpha  occ. eigenvalues --  -10.35464 -10.35355 -10.35236 -10.34914 -10.34843
 Alpha  occ. eigenvalues --  -10.34806 -10.34605 -10.34550 -10.34326 -10.34292
 Alpha  occ. eigenvalues --  -10.34011 -10.33868 -10.33794 -10.33666 -10.33521
 Alpha  occ. eigenvalues --  -10.33365 -10.33204 -10.33092 -10.32932 -10.32899
 Alpha  occ. eigenvalues --  -10.32898 -10.32848 -10.32836 -10.32709 -10.32599
 Alpha  occ. eigenvalues --  -10.32455 -10.32447 -10.32366 -10.32346 -10.32220
 Alpha  occ. eigenvalues --  -10.31923 -10.31908 -10.31699 -10.31696 -10.31602
 Alpha  occ. eigenvalues --  -10.31457 -10.31314 -10.31237 -10.31175 -10.31135
 Alpha  occ. eigenvalues --  -10.31033 -10.30812 -10.30727 -10.30490 -10.30326
 Alpha  occ. eigenvalues --  -10.30268 -10.30259 -10.30177 -10.30147 -10.30045
 Alpha  occ. eigenvalues --  -10.29986 -10.29968 -10.29783 -10.29730 -10.29652
 Alpha  occ. eigenvalues --  -10.29537 -10.29464 -10.29382 -10.29370 -10.29359
 Alpha  occ. eigenvalues --  -10.28349  -3.20371  -3.20196  -1.93968  -1.93790
 Alpha  occ. eigenvalues --   -1.93473  -1.93373  -1.93300  -1.93213  -1.18472
 Alpha  occ. eigenvalues --   -1.17325  -1.15218  -1.12334  -1.11458  -1.11176
 Alpha  occ. eigenvalues --   -1.10389  -1.09656  -1.07158  -1.06736  -1.05755
 Alpha  occ. eigenvalues --   -1.05561  -1.05086  -1.04884  -1.04166  -1.03458
 Alpha  occ. eigenvalues --   -0.94551  -0.93845  -0.91306  -0.90928  -0.90880
 Alpha  occ. eigenvalues --   -0.90456  -0.90223  -0.89934  -0.89411  -0.89130
 Alpha  occ. eigenvalues --   -0.89001  -0.88808  -0.88202  -0.88096  -0.86336
 Alpha  occ. eigenvalues --   -0.86046  -0.85479  -0.85447  -0.84437  -0.84227
 Alpha  occ. eigenvalues --   -0.83754  -0.83679  -0.82943  -0.82929  -0.82321
 Alpha  occ. eigenvalues --   -0.82057  -0.80444  -0.80179  -0.79396  -0.79209
 Alpha  occ. eigenvalues --   -0.79155  -0.78669  -0.78100  -0.77749  -0.77014
 Alpha  occ. eigenvalues --   -0.76775  -0.74685  -0.74242  -0.73645  -0.73423
 Alpha  occ. eigenvalues --   -0.71362  -0.71129  -0.70747  -0.70497  -0.70173
 Alpha  occ. eigenvalues --   -0.69671  -0.69338  -0.68689  -0.67733  -0.67628
 Alpha  occ. eigenvalues --   -0.67456  -0.66604  -0.66499  -0.66231  -0.66174
 Alpha  occ. eigenvalues --   -0.66024  -0.64566  -0.63796  -0.62374  -0.62162
 Alpha  occ. eigenvalues --   -0.62123  -0.61535  -0.60951  -0.60866  -0.60488
 Alpha  occ. eigenvalues --   -0.60090  -0.59745  -0.59715  -0.59509  -0.59199
 Alpha  occ. eigenvalues --   -0.58047  -0.57779  -0.57471  -0.57470  -0.57288
 Alpha  occ. eigenvalues --   -0.57096  -0.56745  -0.56550  -0.56043  -0.55766
 Alpha  occ. eigenvalues --   -0.55509  -0.55440  -0.55300  -0.55098  -0.54852
 Alpha  occ. eigenvalues --   -0.54833  -0.54522  -0.54417  -0.54129  -0.54080
 Alpha  occ. eigenvalues --   -0.53790  -0.53709  -0.53690  -0.53539  -0.53297
 Alpha  occ. eigenvalues --   -0.53195  -0.53178  -0.52405  -0.52321  -0.52207
 Alpha  occ. eigenvalues --   -0.52112  -0.52010  -0.51999  -0.51736  -0.51539
 Alpha  occ. eigenvalues --   -0.51421  -0.51280  -0.51034  -0.51024  -0.50860
 Alpha  occ. eigenvalues --   -0.50514  -0.50414  -0.50218  -0.50203  -0.50018
 Alpha  occ. eigenvalues --   -0.49889  -0.49715  -0.49593  -0.49339  -0.48881
 Alpha  occ. eigenvalues --   -0.48787  -0.48760  -0.48605  -0.48500  -0.48466
 Alpha  occ. eigenvalues --   -0.48226  -0.48175  -0.48030  -0.47845  -0.47735
 Alpha  occ. eigenvalues --   -0.47465  -0.47410  -0.47120  -0.46859  -0.46849
 Alpha  occ. eigenvalues --   -0.46599  -0.46540  -0.46473  -0.46307  -0.46273
 Alpha  occ. eigenvalues --   -0.46265  -0.46084  -0.45643  -0.45532  -0.45383
 Alpha  occ. eigenvalues --   -0.45248  -0.45188  -0.45153  -0.44972  -0.44700
 Alpha  occ. eigenvalues --   -0.44648  -0.44579  -0.44313  -0.43869  -0.43775
 Alpha  occ. eigenvalues --   -0.43744  -0.43536  -0.43502  -0.43431  -0.43349
 Alpha  occ. eigenvalues --   -0.43125  -0.43072  -0.42987  -0.42411  -0.42368
 Alpha  occ. eigenvalues --   -0.42174  -0.42104  -0.41613  -0.41026  -0.40614
 Alpha  occ. eigenvalues --   -0.40581  -0.40251  -0.39946  -0.39873  -0.39590
 Alpha  occ. eigenvalues --   -0.39308  -0.38932  -0.38863  -0.38731  -0.38640
 Alpha  occ. eigenvalues --   -0.38585  -0.37828  -0.37164  -0.36969  -0.36413
 Alpha  occ. eigenvalues --   -0.36266  -0.35109  -0.35052  -0.33518  -0.33388
 Alpha  occ. eigenvalues --   -0.33266  -0.33169  -0.33117  -0.32952  -0.32695
 Alpha  occ. eigenvalues --   -0.32218  -0.32175  -0.31755  -0.25893  -0.25886
 Alpha  occ. eigenvalues --   -0.22901  -0.22573
 Alpha virt. eigenvalues --   -0.06930  -0.06799   0.00124   0.00550   0.02031
 Alpha virt. eigenvalues --    0.02495   0.03836   0.04552   0.05923   0.06741
 Alpha virt. eigenvalues --    0.06767   0.07099   0.07408   0.08087   0.08315

 Mulliken charges:
               1
     1  Mg   0.984004
     2  C    0.016685
     3  C   -0.089938
     4  C   -0.082518
     5  C   -0.106082
     6  N   -0.316837
     7  C    0.009753
     8  C   -0.040568
     9  C   -0.128941
    10  C    0.104199
    11  C   -0.004746
    12  C    0.028178
    13  C   -0.147860
    14  H    0.026121
    15  N   -0.453107
    16  C    0.111689
    17  C   -0.155503
    18  C   -0.103365
    19  C    0.123647
    20  C    0.045503
    21  C    0.084722
    22  O   -0.233067
    23  C   -0.023303
    24  N   -0.364642
    25  C    0.051588
    26  C   -0.053099
    27  C   -0.060140
    28  C    0.046873
    29  C    0.044658
    30  C   -0.025413
    31  C   -0.034962
    32  N   -0.448182
    33  C    0.163614
    34  C   -0.168881
    35  C   -0.084450
    36  C    0.117517
    37  C    0.077013
    38  C    0.137633
    39  O   -0.142199
    40  C   -0.139012
    41  C    0.283438
    42  O   -0.249110
    43  O   -0.383365
    44  C    0.147042
    45  H   -0.013070
    46  H    0.021638
    47  H   -0.009708
    48  H    0.042999
    49  H    0.044054
    50  H    0.031214
    51  H    0.051231
    52  H    0.038057
    53  H    0.037928
    54  H    0.036961
    55  H    0.053908
    56  H    0.051439
    57  H    0.057718
    58  H    0.063637
    59  H    0.032720
    60  H    0.059320
    61  H    0.038653
    62  H    0.062569
    63  H    0.024378
    64  H    0.023876
    65  H    0.039138
    66  H    0.044472
    67  H    0.032101
    68  H    0.026713
    69  H    0.023451
    70  H    0.026963
    71  H    0.051705
    72  H    0.040168
    73  H    0.057385
    74  H    0.036668
    75  H    0.074597
    76  H    0.075970
    77  H    0.054238
    78  H    0.040548
    79  H    0.061770
    80  Mg   1.001598
    81  C   -0.064883
    82  C   -0.110629
    83  C   -0.083536
    84  C   -0.100681
    85  N   -0.307791
    86  C    0.022489
    87  C   -0.031731
    88  C   -0.097730
    89  C    0.019077
    90  C    0.007941
    91  C    0.023194
    92  C   -0.123400
    93  H    0.016999
    94  N   -0.427852
    95  C    0.223938
    96  C   -0.180443
    97  C   -0.042723
    98  C    0.127358
    99  C    0.061824
   100  C    0.049177
   101  O   -0.257573
   102  C   -0.023692
   103  N   -0.456853
   104  C    0.109064
   105  C   -0.100389
   106  C   -0.055408
   107  C    0.059257
   108  C    0.015943
   109  C    0.000264
   110  C   -0.055623
   111  N   -0.483320
   112  C    0.140149
   113  C   -0.167156
   114  C   -0.071794
   115  C    0.182789
   116  C    0.080909
   117  C    0.161327
   118  O   -0.208557
   119  C   -0.105823
   120  C    0.266213
   121  O   -0.223784
   122  O   -0.369612
   123  C    0.126350
   124  H   -0.009068
   125  H    0.016401
   126  H   -0.010461
   127  H    0.030611
   128  H    0.039929
   129  H    0.034293
   130  H    0.041856
   131  H    0.034281
   132  H    0.040680
   133  H    0.036914
   134  H    0.048544
   135  H    0.050340
   136  H    0.046139
   137  H    0.026848
   138  H    0.058729
   139  H    0.061370
   140  H    0.063746
   141  H    0.063635
   142  H    0.042780
   143  H    0.042933
   144  H    0.043669
   145  H    0.034108
   146  H    0.043589
   147  H    0.037024
   148  H    0.028031
   149  H    0.024573
   150  H    0.041175
   151  H    0.040921
   152  H    0.050555
   153  H    0.047756
   154  H    0.066153
   155  H    0.072909
   156  H    0.043203
   157  H    0.055700
   158  H    0.065254
 Sum of Mulliken charges =  -0.00000

 Dipole moment (field-independent basis, Debye):
    X=             -5.7884    Y=              0.7425    Z=              4.8943  Tot=              7.6165
 Quadrupole moment (field-independent basis, Debye-Ang):
   XX=           -552.0191   YY=           -498.8340   ZZ=           -471.0933
   XY=            -19.8060   XZ=            -43.6255   YZ=             49.7018

 Normal termination of Gaussian 16 at Sat Sep 18 20:52:11 2021.
