 Gaussian 16, Revision A.03,
 Gaussian 16:  ES64L-G16RevA.03 25-Dec-2016

 --------------------------------
 #p wB97XD/Def2SVP td=(nstates=5)
 --------------------------------

 --------------------------------
 TDDFT excited states in gaussian
 --------------------------------
 Symbolic Z-matrix:
 Charge =  0 Multiplicity = 1

                         Standard orientation:
 ---------------------------------------------------------------------
 Center     Atomic      Atomic             Coordinates (Angstroms)
 Number     Number       Type             X           Y           Z
 ---------------------------------------------------------------------
      1         12           0      -29.838578   -0.554364   -0.166132
      2          6           0      -26.522966   -0.311239   -1.440789
      3          6           0      -28.738629   -2.770738    2.202526
      4          6           0      -32.758513    0.035056    1.670610
      5          6           0      -30.755686    2.141243   -2.225522
      6          7           0      -27.682173   -1.223794    0.428559
      7          6           0      -26.581601   -1.202272   -0.340872
      8          6           0      -25.647225   -2.319014    0.087374
      9          6           0      -26.320866   -3.089713    1.322351
     10          6           0      -27.760882   -2.375748    1.199164
     11          6           0      -26.346144   -4.602967    1.010583
     12          6           0      -24.272673   -1.771201    0.436076
     13          6           0      -24.228829   -0.409142    1.168650
     14          1           0      -23.847934   -0.434927    2.674151
     15          7           0      -30.701907   -1.345539    1.673040
     16          6           0      -30.026586   -2.241101    2.473415
     17          6           0      -30.964128   -2.653134    3.470520
     18          6           0      -32.134436   -1.802972    3.435317
     19          6           0      -31.950894   -0.999307    2.200323
     20          6           0      -30.616988   -3.649368    4.552518
     21          6           0      -33.222457   -1.657334    4.500397
     22          8           0      -33.141912   -2.280145    5.541612
     23          6           0      -34.358436   -0.797070    4.355890
     24          7           0      -31.473460    0.943469   -0.191030
     25          6           0      -32.569050    0.854250    0.548513
     26          6           0      -33.582907    1.949138    0.258968
     27          6           0      -32.736153    2.832482   -0.755093
     28          6           0      -31.624948    1.925587   -1.144267
     29          6           0      -34.960863    1.410446   -0.366583
     30          6           0      -32.311765    4.214072   -0.073686
     31          6           0      -32.896476    5.512479   -0.553026
     32          7           0      -28.987139    0.477658   -1.665931
     33          6           0      -29.526681    1.471724   -2.507489
     34          6           0      -28.569618    1.827880   -3.571549
     35          6           0      -27.433482    1.125734   -3.169624
     36          6           0      -27.644808    0.402556   -1.944004
     37          6           0      -28.792072    2.669090   -4.875712
     38          6           0      -26.035200    0.897283   -3.547771
     39          8           0      -25.336969    1.290028   -4.497050
     40          6           0      -25.389929   -0.042307   -2.476322
     41          6           0      -24.345779    0.873107   -1.936694
     42          8           0      -24.553850    1.950612   -1.440625
     43          8           0      -23.135275    0.387752   -2.197131
     44          6           0      -21.922909    1.104862   -1.668121
     45          1           0      -28.480571   -3.678351    2.751892
     46          1           0      -33.732275    0.276651    2.101294
     47          1           0      -31.099685    3.044706   -2.734380
     48          1           0      -25.620540   -2.869307   -0.853168
     49          1           0      -25.819666   -2.883084    2.268349
     50          1           0      -25.777393   -5.117671    1.784729
     51          1           0      -25.881648   -4.877971    0.063281
     52          1           0      -27.391892   -4.901707    1.078025
     53          1           0      -23.684202   -1.658472   -0.474512
     54          1           0      -23.751371   -2.449080    1.112592
     55          1           0      -25.165217    0.137436    1.279731
     56          1           0      -23.505367    0.177994    0.602870
     57          1           0      -29.576042   -3.967974    4.491887
     58          1           0      -31.348643   -4.456530    4.503041
     59          1           0      -30.845551   -3.179594    5.508523
     60          1           0      -34.134432    0.268297    4.297767
     61          1           0      -35.022232   -0.931805    5.209680
     62          1           0      -34.782192   -1.119851    3.404303
     63          1           0      -33.783955    2.603847    1.106549
     64          1           0      -33.503005    3.112474   -1.477566
     65          1           0      -34.940293    0.320983   -0.406637
     66          1           0      -35.012993    1.778055   -1.391574
     67          1           0      -35.874773    1.757900    0.117697
     68          1           0      -31.256345    4.428905   -0.241522
     69          1           0      -32.486397    4.189192    1.001073
     70          1           0      -32.232322    6.082830   -1.202459
     71          1           0      -33.015788    6.018466    0.405581
     72          1           0      -33.929102    5.451387   -0.897012
     73          1           0      -28.825829    3.719689   -4.588561
     74          1           0      -29.702023    2.295116   -5.345288
     75          1           0      -27.914012    2.554467   -5.511043
     76          1           0      -25.037575   -0.918991   -3.021044
     77          1           0      -21.593317    1.914991   -2.319028
     78          1           0      -21.083834    0.419448   -1.541950
     79          1           0      -22.227200    1.474680   -0.688983
     80         12           0       29.653943    0.511311    0.070199
     81          6           0       26.922020   -0.811619   -1.664332
     82          6           0       31.180798   -2.570742   -0.206200
     83          6           0       32.005320    1.512754    2.332763
     84          6           0       27.733849    3.293728    0.821449
     85          7           0       29.113266   -1.370727   -0.905726
     86          6           0       28.071250   -1.594698   -1.716500
     87          6           0       28.168586   -2.883968   -2.545172
     88          6           0       29.460250   -3.549636   -1.932882
     89          6           0       30.063010   -2.376144   -0.976470
     90          6           0       29.276544   -4.880241   -1.171676
     91          6           0       28.231076   -2.666935   -4.057229
     92          6           0       27.695549   -3.862417   -4.865999
     93          1           0       27.197727   -5.109792   -4.122274
     94          7           0       31.411994   -0.333402    0.866327
     95          6           0       31.921371   -1.619805    0.574654
     96          6           0       33.180919   -1.779391    1.273291
     97          6           0       33.413095   -0.607028    2.085066
     98          6           0       32.287556    0.269051    1.763678
     99          6           0       34.055756   -2.978152    1.029353
    100          6           0       34.663407   -0.204931    2.989160
    101          8           0       34.796083    0.876357    3.509072
    102          6           0       35.713179   -1.275233    3.195281
    103          7           0       29.796999    2.101270    1.444910
    104          6           0       30.872026    2.341337    2.249755
    105          6           0       30.726475    3.685228    3.054408
    106          6           0       29.413276    4.227161    2.492278
    107          6           0       28.959343    3.138461    1.538187
    108          6           0       30.848411    3.722357    4.631101
    109          6           0       29.626403    5.582488    1.778150
    110          6           0       30.136950    5.585913    0.320160
    111          7           0       27.762949    1.264971   -0.423741
    112          6           0       27.108892    2.410092   -0.049475
    113          6           0       25.816984    2.485286   -0.645001
    114          6           0       25.671672    1.190521   -1.319293
    115          6           0       26.825232    0.535596   -1.126279
    116          6           0       24.790080    3.529038   -0.615094
    117          6           0       24.751517    0.302462   -2.016178
    118          8           0       23.616761    0.519634   -2.454332
    119          6           0       25.498370   -1.036387   -2.288760
    120          6           0       24.788537   -2.172976   -1.710894
    121          8           0       24.787717   -2.498475   -0.528400
    122          8           0       23.935009   -2.694727   -2.650350
    123          6           0       22.818183   -3.560033   -2.223708
    124          1           0       31.574504   -3.582825   -0.322616
    125          1           0       32.835651    1.921042    2.912630
    126          1           0       27.163182    4.211734    0.976312
    127          1           0       27.372464   -3.584024   -2.292785
    128          1           0       30.274364   -3.653679   -2.649274
    129          1           0       30.011020   -5.499826   -1.685919
    130          1           0       28.268734   -5.269643   -1.313866
    131          1           0       29.467315   -4.741293   -0.107464
    132          1           0       29.238748   -2.428492   -4.395440
    133          1           0       27.635138   -1.797648   -4.336546
    134          1           0       28.566693   -4.091915   -5.479976
    135          1           0       26.945668   -3.556178   -5.596782
    136          1           0       33.445838   -3.668210    0.446212
    137          1           0       34.349317   -3.404719    1.988736
    138          1           0       34.975403   -2.734159    0.495433
    139          1           0       35.468822   -2.085212    3.883310
    140          1           0       36.638090   -0.778517    3.488373
    141          1           0       35.834340   -1.663818    2.184192
    142          1           0       31.593942    4.233517    2.687717
    143          1           0       28.739950    4.338032    3.341476
    144          1           0       30.052938    4.268706    5.136507
    145          1           0       31.765414    4.253079    4.885129
    146          1           0       30.948806    2.693530    4.978122
    147          1           0       30.309756    6.138635    2.418747
    148          1           0       28.657467    6.079056    1.837718
    149          1           0       30.863927    6.397105    0.289768
    150          1           0       29.363127    5.828054   -0.407947
    151          1           0       30.532255    4.629472   -0.020154
    152          1           0       24.375992    3.612096   -1.619342
    153          1           0       25.125677    4.511287   -0.282296
    154          1           0       23.925672    3.182614   -0.048334
    155          1           0       25.557745   -1.086587   -3.375880
    156          1           0       22.828878   -3.746682   -1.149298
    157          1           0       22.936019   -4.521745   -2.723638
    158          1           0       21.964617   -2.965170   -2.546855
 ---------------------------------------------------------------------

 SCF Done:  E(RwB97XD) =  -4070.58498357     A.U. after   20 cycles

 Excitation energies and oscillator strengths:

 Excited State   1:      Singlet-A      1.6285 eV  761.32 nm  f=0.3512  <S**2>=0.000
     309 -> 315       -0.20688
     311 -> 314        0.67851
     309 <- 315       -0.12523
 This state for optimization and/or second-order correction.
 Total Energy, E(TD-HF/TD-DFT) =  -4070.52513609
 Copying the excited state density for this state as the 1-particle RhoCI density.

 Excited State   2:      Singlet-A      1.6570 eV  748.27 nm  f=0.4113  <S**2>=0.000
     310 -> 316       -0.18733
     312 -> 313        0.68177
     310 <- 316       -0.11633

 Excited State   3:      Singlet-A      2.0777 eV  596.74 nm  f=0.1516  <S**2>=0.000
     310 -> 313        0.65642
     312 -> 316        0.23989

 Excited State   4:      Singlet-A      2.1415 eV  578.95 nm  f=0.0704  <S**2>=0.000
     309 -> 314        0.61697
     311 -> 315        0.33157

 Excited State   5:      Singlet-A      3.1037 eV  399.48 nm  f=0.0053  <S**2>=0.000
     306 -> 313       -0.12854
     308 -> 313        0.67537

 The electronic state is 1-A.
 Alpha  occ. eigenvalues --  -46.96538 -46.94589 -19.30281 -19.29111 -19.24957
 Alpha  occ. eigenvalues --  -19.23922 -19.23898 -19.23780 -19.23762 -19.23080
 Alpha  occ. eigenvalues --  -14.47005 -14.46874 -14.46556 -14.46464 -14.44740
 Alpha  occ. eigenvalues --  -14.44144 -14.44059 -14.42771 -10.42557 -10.42505
 Alpha  occ. eigenvalues --  -10.40160 -10.39105 -10.38991 -10.38256 -10.36212
 Alpha  occ. eigenvalues --  -10.36104 -10.35389 -10.35004 -10.35001 -10.34918
 Alpha  occ. eigenvalues --  -10.34908 -10.34885 -10.34721 -10.34710 -10.34710
 Alpha  occ. eigenvalues --  -10.34655 -10.34378 -10.33957 -10.33903 -10.33895
 Alpha  occ. eigenvalues --  -10.32993 -10.32938 -10.32841 -10.32824 -10.32799
 Alpha  occ. eigenvalues --  -10.32712 -10.32428 -10.32373 -10.32292 -10.32265
 Alpha  occ. eigenvalues --  -10.32214 -10.32210 -10.32187 -10.32147 -10.31889
 Alpha  occ. eigenvalues --  -10.31806 -10.31717 -10.31706 -10.31693 -10.31689
 Alpha  occ. eigenvalues --  -10.31460 -10.31455 -10.31154 -10.31135 -10.30981
 Alpha  occ. eigenvalues --  -10.30928 -10.30921 -10.30875 -10.30855 -10.30672
 Alpha  occ. eigenvalues --  -10.30639 -10.30535 -10.30330 -10.30274 -10.30188
 Alpha  occ. eigenvalues --  -10.30068 -10.29969 -10.29832 -10.29815 -10.29693
 Alpha  occ. eigenvalues --  -10.29659 -10.29495 -10.29309 -10.29291 -10.28978
 Alpha  occ. eigenvalues --  -10.28795  -3.22331  -3.20551  -1.95876  -1.95479
 Alpha  occ. eigenvalues --   -1.95264  -1.94141  -1.93671  -1.93530  -1.19222
 Alpha  occ. eigenvalues --   -1.17251  -1.13799  -1.12419  -1.11099  -1.11029
 Alpha  occ. eigenvalues --   -1.09889  -1.08830  -1.06589  -1.06441  -1.05665
 Alpha  occ. eigenvalues --   -1.05323  -1.04472  -1.04420  -1.03651  -1.03055
 Alpha  occ. eigenvalues --   -0.94050  -0.93911  -0.91029  -0.90824  -0.90668
 Alpha  occ. eigenvalues --   -0.90642  -0.90156  -0.90070  -0.89015  -0.89014
 Alpha  occ. eigenvalues --   -0.88388  -0.88062  -0.88025  -0.87325  -0.86590
 Alpha  occ. eigenvalues --   -0.86120  -0.85911  -0.85322  -0.84772  -0.84518
 Alpha  occ. eigenvalues --   -0.84218  -0.83869  -0.83045  -0.82947  -0.82201
 Alpha  occ. eigenvalues --   -0.82129  -0.80089  -0.79830  -0.79282  -0.79040
 Alpha  occ. eigenvalues --   -0.78746  -0.78328  -0.78200  -0.77821  -0.76958
 Alpha  occ. eigenvalues --   -0.76906  -0.74840  -0.74417  -0.73708  -0.73066
 Alpha  occ. eigenvalues --   -0.71726  -0.70843  -0.70439  -0.70410  -0.70084
 Alpha  occ. eigenvalues --   -0.69648  -0.68681  -0.68062  -0.67484  -0.67147
 Alpha  occ. eigenvalues --   -0.66765  -0.66707  -0.66621  -0.66438  -0.66020
 Alpha  occ. eigenvalues --   -0.65727  -0.64407  -0.63390  -0.62240  -0.61774
 Alpha  occ. eigenvalues --   -0.61246  -0.61072  -0.61030  -0.60996  -0.60627
 Alpha  occ. eigenvalues --   -0.60275  -0.59806  -0.59653  -0.59396  -0.59244
 Alpha  occ. eigenvalues --   -0.58210  -0.57813  -0.57809  -0.57376  -0.57112
 Alpha  occ. eigenvalues --   -0.56960  -0.56863  -0.56606  -0.56467  -0.55807
 Alpha  occ. eigenvalues --   -0.55616  -0.55384  -0.55269  -0.55005  -0.54784
 Alpha  occ. eigenvalues --   -0.54611  -0.54569  -0.54447  -0.54243  -0.54051
 Alpha  occ. eigenvalues --   -0.53956  -0.53889  -0.53671  -0.53542  -0.53445
 Alpha  occ. eigenvalues --   -0.52730  -0.52592  -0.52576  -0.52171  -0.52061
 Alpha  occ. eigenvalues --   -0.51725  -0.51616  -0.51608  -0.51512  -0.51377
 Alpha  occ. eigenvalues --   -0.51306  -0.51156  -0.50965  -0.50916  -0.50906
 Alpha  occ. eigenvalues --   -0.50469  -0.50442  -0.50172  -0.50142  -0.50025
 Alpha  occ. eigenvalues --   -0.49704  -0.49546  -0.49221  -0.49044  -0.48900
 Alpha  occ. eigenvalues --   -0.48828  -0.48670  -0.48524  -0.48193  -0.48185
 Alpha  occ. eigenvalues --   -0.48032  -0.47778  -0.47730  -0.47555  -0.47537
 Alpha  occ. eigenvalues --   -0.47227  -0.47188  -0.47080  -0.47022  -0.46933
 Alpha  occ. eigenvalues --   -0.46789  -0.46560  -0.46255  -0.46234  -0.45908
 Alpha  occ. eigenvalues --   -0.45877  -0.45592  -0.45587  -0.45487  -0.45318
 Alpha  occ. eigenvalues --   -0.45146  -0.45118  -0.44978  -0.44847  -0.44735
 Alpha  occ. eigenvalues --   -0.44654  -0.44331  -0.44266  -0.43959  -0.43917
 Alpha  occ. eigenvalues --   -0.43444  -0.43403  -0.43341  -0.43245  -0.43008
 Alpha  occ. eigenvalues --   -0.42791  -0.42765  -0.42510  -0.42150  -0.41985
 Alpha  occ. eigenvalues --   -0.41953  -0.41813  -0.41715  -0.40535  -0.40428
 Alpha  occ. eigenvalues --   -0.40299  -0.39891  -0.39743  -0.39594  -0.39374
 Alpha  occ. eigenvalues --   -0.39128  -0.38834  -0.38770  -0.38325  -0.38043
 Alpha  occ. eigenvalues --   -0.37685  -0.37672  -0.36307  -0.36180  -0.36075
 Alpha  occ. eigenvalues --   -0.35737  -0.35603  -0.35501  -0.33582  -0.33558
 Alpha  occ. eigenvalues --   -0.33096  -0.32791  -0.32746  -0.32596  -0.32372
 Alpha  occ. eigenvalues --   -0.31787  -0.31109  -0.30833  -0.26189  -0.25417
 Alpha  occ. eigenvalues --   -0.23109  -0.23104
 Alpha virt. eigenvalues --   -0.07269  -0.07110  -0.00652   0.00624   0.02357
 Alpha virt. eigenvalues --    0.02653   0.04151   0.04587   0.04599   0.05688
 Alpha virt. eigenvalues --    0.07190   0.07451   0.07609   0.07780   0.08475

 Mulliken charges:
               1
     1  Mg   0.942193
     2  C   -0.038187
     3  C   -0.073415
     4  C   -0.078385
     5  C   -0.055683
     6  N   -0.320130
     7  C   -0.052850
     8  C   -0.003150
     9  C   -0.147375
    10  C    0.056820
    11  C    0.022576
    12  C   -0.011579
    13  C   -0.138041
    14  H    0.013834
    15  N   -0.462436
    16  C    0.168130
    17  C   -0.174991
    18  C   -0.086740
    19  C    0.201789
    20  C    0.084751
    21  C    0.035871
    22  O   -0.236013
    23  C    0.005255
    24  N   -0.322824
    25  C    0.047374
    26  C   -0.151727
    27  C   -0.062408
    28  C    0.046752
    29  C    0.017247
    30  C   -0.028939
    31  C   -0.050493
    32  N   -0.501250
    33  C    0.150847
    34  C   -0.184745
    35  C   -0.035148
    36  C    0.187064
    37  C    0.087877
    38  C    0.097788
    39  O   -0.231070
    40  C   -0.050489
    41  C    0.238264
    42  O   -0.235948
    43  O   -0.346809
    44  C    0.130799
    45  H    0.013618
    46  H   -0.019947
    47  H    0.003333
    48  H    0.035239
    49  H    0.061581
    50  H    0.033390
    51  H    0.044489
    52  H    0.040371
    53  H    0.041173
    54  H    0.041322
    55  H    0.087246
    56  H    0.047402
    57  H    0.029826
    58  H    0.048554
    59  H    0.062083
    60  H    0.066400
    61  H    0.056718
    62  H    0.054701
    63  H    0.040391
    64  H    0.018082
    65  H    0.043566
    66  H    0.031200
    67  H    0.046334
    68  H    0.037500
    69  H    0.032159
    70  H    0.053219
    71  H    0.028094
    72  H    0.026639
    73  H    0.054289
    74  H    0.056614
    75  H    0.063032
    76  H    0.067941
    77  H    0.072784
    78  H    0.059169
    79  H    0.067084
    80  Mg   0.959886
    81  C   -0.000751
    82  C   -0.090180
    83  C   -0.073895
    84  C   -0.086989
    85  N   -0.357062
    86  C   -0.011454
    87  C   -0.047751
    88  C   -0.149014
    89  C    0.067869
    90  C    0.032193
    91  C    0.017116
    92  C   -0.110763
    93  H    0.046851
    94  N   -0.477786
    95  C    0.165507
    96  C   -0.178506
    97  C   -0.089967
    98  C    0.129354
    99  C    0.057270
   100  C    0.082265
   101  O   -0.208410
   102  C   -0.022495
   103  N   -0.337955
   104  C    0.039689
   105  C   -0.081595
   106  C   -0.049215
   107  C    0.051091
   108  C    0.022586
   109  C   -0.042547
   110  C   -0.033363
   111  N   -0.449766
   112  C    0.142059
   113  C   -0.164998
   114  C   -0.034661
   115  C    0.132237
   116  C    0.085479
   117  C    0.094052
   118  O   -0.220692
   119  C   -0.059053
   120  C    0.274388
   121  O   -0.254784
   122  O   -0.379419
   123  C    0.128378
   124  H    0.001342
   125  H    0.020111
   126  H   -0.015914
   127  H    0.038847
   128  H    0.031186
   129  H    0.040098
   130  H    0.043107
   131  H    0.055435
   132  H    0.031065
   133  H    0.031064
   134  H    0.040492
   135  H    0.054368
   136  H    0.029107
   137  H    0.047882
   138  H    0.067739
   139  H    0.082039
   140  H    0.053797
   141  H    0.031772
   142  H    0.039755
   143  H    0.036112
   144  H    0.039819
   145  H    0.035660
   146  H    0.050975
   147  H    0.030133
   148  H    0.031111
   149  H    0.040364
   150  H    0.037218
   151  H    0.046610
   152  H    0.052945
   153  H    0.034608
   154  H    0.057853
   155  H    0.073272
   156  H    0.066892
   157  H    0.054417
   158  H    0.073520
 Sum of Mulliken charges =  -0.00000

 Dipole moment (field-independent basis, Debye):
    X=              1.5860    Y=             -1.6189    Z=             -2.5213  Tot=              3.3901
 Quadrupole moment (field-independent basis, Debye-Ang):
   XX=           -188.1213   YY=           -470.1748   ZZ=           -540.2777
   XY=            -43.1470   XZ=              4.2934   YZ=             22.7841

 Normal termination of Gaussian 16 at Sat Sep 18 15:54:55 2021.
