 Gaussian 16, Revision A.03,
 Gaussian 16:  ES64L-G16RevA.03 25-Dec-2016

 --------------------------------
 #p wB97XD/Def2SVP td=(nstates=5)
 --------------------------------

 --------------------------------
 TDDFT excited states in gaussian
 --------------------------------
 Symbolic Z-matrix:
 Charge =  0 Multiplicity = 1

                         Standard orientation:
 ---------------------------------------------------------------------
 Center     Atomic      Atomic             Coordinates (Angstroms)
 Number     Number       Type             X           Y           Z
 ---------------------------------------------------------------------
      1         12           0       17.881803   -0.099323    0.072317
      2          6           0       14.389159   -0.174821   -0.529736
      3          6           0       17.953970    2.941155   -1.436957
      4          6           0       20.995688    0.311567    1.373959
      5          6           0       17.502779   -2.940974    2.020162
      6          7           0       16.223722    1.220394   -0.712337
      7          6           0       14.898390    0.987775   -0.968199
      8          6           0       14.273623    2.100210   -1.725235
      9          6           0       15.534907    2.913643   -2.282165
     10          6           0       16.629438    2.356637   -1.437443
     11          6           0       15.731857    2.702177   -3.774639
     12          6           0       13.328769    2.834432   -0.760979
     13          6           0       11.818644    3.020081   -1.211503
     14          1           0       11.153801    4.428887   -1.255700
     15          7           0       19.335738    1.359568   -0.018583
     16          6           0       19.184599    2.521106   -0.788651
     17          6           0       20.452349    3.186268   -0.824954
     18          6           0       21.376864    2.474102    0.011535
     19          6           0       20.596073    1.281851    0.437497
     20          6           0       20.653770    4.436209   -1.671991
     21          6           0       22.811454    2.814488    0.348205
     22          8           0       23.257039    3.809065   -0.294250
     23          6           0       23.734173    2.181298    1.427775
     24          7           0       19.122675   -1.171235    1.510811
     25          6           0       20.380807   -0.812585    1.849015
     26          6           0       21.021666   -1.752841    2.903971
     27          6           0       19.924511   -2.866360    3.022288
     28          6           0       18.731910   -2.248447    2.151207
     29          6           0       22.363409   -2.250214    2.396735
     30          6           0       19.463529   -3.168881    4.415394
     31          6           0       19.860002   -4.535512    4.904325
     32          7           0       16.407589   -1.417255    0.521357
     33          6           0       16.353223   -2.588335    1.287766
     34          6           0       15.172523   -3.266776    1.109615
     35          6           0       14.372537   -2.373826    0.367802
     36          6           0       15.141068   -1.241717    0.106808
     37          6           0       14.956461   -4.703256    1.536454
     38          6           0       13.054541   -2.237682   -0.307393
     39          8           0       12.155038   -3.016991   -0.371060
     40          6           0       13.069615   -0.746440   -0.815574
     41          6           0       12.432693   -0.742046   -2.188146
     42          8           0       11.290636   -0.350380   -2.428459
     43          8           0       13.354451   -1.201975   -3.159782
     44          6           0       12.828527   -1.098084   -4.520607
     45          1           0       18.037542    3.802123   -2.103823
     46          1           0       22.025367    0.350829    1.737096
     47          1           0       17.255217   -3.692505    2.771887
     48          1           0       13.686116    1.693332   -2.548367
     49          1           0       15.355042    3.974889   -2.112476
     50          1           0       15.509918    1.686068   -4.097877
     51          1           0       16.790239    2.834972   -4.001371
     52          1           0       15.199834    3.423359   -4.395041
     53          1           0       13.760051    3.819044   -0.580905
     54          1           0       13.325167    2.425359    0.249343
     55          1           0       11.321726    2.430903   -0.440326
     56          1           0       11.609416    2.436830   -2.107469
     57          1           0       19.876331    5.173969   -1.473436
     58          1           0       20.555786    4.115830   -2.709156
     59          1           0       21.559095    5.020341   -1.501213
     60          1           0       23.931285    1.185960    1.030870
     61          1           0       23.183014    2.128266    2.366735
     62          1           0       24.640686    2.762866    1.597543
     63          1           0       21.213356   -1.277300    3.865521
     64          1           0       20.230073   -3.749037    2.461080
     65          1           0       22.940631   -1.380298    2.082971
     66          1           0       22.181570   -2.902583    1.542055
     67          1           0       22.966062   -2.902012    3.028114
     68          1           0       18.379640   -3.155760    4.529935
     69          1           0       19.779134   -2.478552    5.197413
     70          1           0       20.389105   -4.411710    5.848414
     71          1           0       20.579291   -5.026598    4.248916
     72          1           0       19.029995   -5.237272    4.992978
     73          1           0       14.088210   -5.054166    0.977759
     74          1           0       14.762341   -4.792841    2.605016
     75          1           0       15.881612   -5.212570    1.267566
     76          1           0       12.305725   -0.289494   -0.185408
     77          1           0       13.642654   -0.990741   -5.237514
     78          1           0       12.279297   -0.168734   -4.664634
     79          1           0       12.170287   -1.924832   -4.789058
     80         12           0      -17.796479    0.263899    0.365026
     81          6           0      -14.728837   -0.512751   -1.060022
     82          6           0      -19.031197   -2.711636   -0.632865
     83          6           0      -20.755051    1.200246    1.620011
     84          6           0      -16.471761    3.391583    1.216314
     85          7           0      -16.887474   -1.409613   -0.711332
     86          6           0      -15.647117   -1.566965   -1.107574
     87          6           0      -15.526561   -3.028377   -1.742563
     88          6           0      -16.961054   -3.179571   -2.202811
     89          6           0      -17.722990   -2.408399   -1.078501
     90          6           0      -17.123879   -2.631500   -3.636972
     91          6           0      -14.874626   -4.039019   -0.703891
     92          6           0      -14.280677   -5.303758   -1.331609
     93          1           0      -14.564695   -5.597648   -2.794533
     94          7           0      -19.562685   -0.685550    0.634495
     95          6           0      -19.849837   -1.978738    0.203978
     96          6           0      -21.165641   -2.367219    0.794654
     97          6           0      -21.732182   -1.177859    1.423126
     98          6           0      -20.679662   -0.163399    1.150175
     99          6           0      -21.751491   -3.751628    0.648297
    100          6           0      -23.084373   -0.961094    2.247056
    101          8           0      -23.393453    0.105269    2.789479
    102          6           0      -24.003258   -2.159398    2.362497
    103          7           0      -18.528203    2.028144    1.161188
    104          6           0      -19.775704    2.185932    1.595454
    105          6           0      -20.075008    3.645336    2.057911
    106          6           0      -18.645427    4.200131    2.135626
    107          6           0      -17.790313    3.136238    1.522277
    108          6           0      -21.025052    4.441662    1.120376
    109          6           0      -18.138650    4.799376    3.522317
    110          6           0      -17.208683    3.960641    4.335903
    111          7           0      -16.060539    1.359547   -0.028893
    112          6           0      -15.635250    2.563607    0.421976
    113          6           0      -14.329880    2.898416   -0.023950
    114          6           0      -13.900805    1.678053   -0.634451
    115          6           0      -14.989905    0.838621   -0.578437
    116          6           0      -13.481856    4.141465    0.052865
    117          6           0      -12.837025    0.970352   -1.282475
    118          8           0      -11.707586    1.296561   -1.577841
    119          6           0      -13.245877   -0.527119   -1.456502
    120          6           0      -13.000978   -0.945384   -2.840049
    121          8           0      -13.565528   -0.426283   -3.790940
    122          8           0      -11.930414   -1.865142   -2.980463
    123          6           0      -11.566379   -2.226446   -4.359503
    124          1           0      -19.411601   -3.653828   -1.030096
    125          1           0      -21.743354    1.489330    1.981416
    126          1           0      -16.110005    4.393695    1.454369
    127          1           0      -14.814388   -3.013911   -2.566509
    128          1           0      -17.345315   -4.197909   -2.149852
    129          1           0      -17.338949   -3.537843   -4.204003
    130          1           0      -16.220828   -2.149755   -4.014138
    131          1           0      -18.030593   -2.027101   -3.623396
    132          1           0      -15.620934   -4.363095    0.021987
    133          1           0      -14.038071   -3.491077   -0.269630
    134          1           0      -14.626146   -6.141293   -0.726347
    135          1           0      -13.201895   -5.247661   -1.188141
    136          1           0      -20.972177   -4.514375    0.631244
    137          1           0      -22.401180   -3.928347   -0.208280
    138          1           0      -22.333092   -3.973387    1.542970
    139          1           0      -24.126117   -2.483528    1.329353
    140          1           0      -25.001398   -1.932249    2.735836
    141          1           0      -23.562082   -2.900129    3.029620
    142          1           0      -20.548946    3.661745    3.039225
    143          1           0      -18.590610    4.961372    1.358276
    144          1           0      -20.578188    5.433128    1.042905
    145          1           0      -22.068308    4.517778    1.422903
    146          1           0      -21.068030    3.914730    0.167135
    147          1           0      -19.008110    5.126875    4.092420
    148          1           0      -17.526060    5.678239    3.322531
    149          1           0      -16.238010    4.457078    4.333764
    150          1           0      -16.919377    3.002829    3.901714
    151          1           0      -17.495840    3.849814    5.381599
    152          1           0      -14.020029    4.986080    0.484537
    153          1           0      -13.049490    4.335483   -0.929154
    154          1           0      -12.639939    4.113921    0.744950
    155          1           0      -12.679403   -1.181028   -0.793999
    156          1           0      -10.867138   -3.057426   -4.449099
    157          1           0      -11.121403   -1.308158   -4.743670
    158          1           0      -12.513276   -2.386696   -4.873727
 ---------------------------------------------------------------------

 SCF Done:  E(RwB97XD) =  -4070.61691831     A.U. after   19 cycles

 Excitation energies and oscillator strengths:

 Excited State   1:      Singlet-A      1.6248 eV  763.05 nm  f=0.3670  <S**2>=0.000
     309 -> 315       -0.17972
     311 -> 313        0.68478
     309 <- 315       -0.11748
 This state for optimization and/or second-order correction.
 Total Energy, E(TD-HF/TD-DFT) =  -4070.55720618
 Copying the excited state density for this state as the 1-particle RhoCI density.

 Excited State   2:      Singlet-A      1.6902 eV  733.53 nm  f=0.3884  <S**2>=0.000
     310 -> 316        0.18174
     312 -> 314        0.68418
     310 <- 316        0.11476

 Excited State   3:      Singlet-A      2.1632 eV  573.15 nm  f=0.1823  <S**2>=0.000
     309 -> 313        0.63075
     310 -> 314        0.14284
     311 -> 315        0.26366

 Excited State   4:      Singlet-A      2.1645 eV  572.81 nm  f=0.1197  <S**2>=0.000
     309 -> 313       -0.14142
     310 -> 314        0.63637
     312 -> 316       -0.25412

 Excited State   5:      Singlet-A      3.2309 eV  383.74 nm  f=0.0020  <S**2>=0.000
     305 -> 313       -0.24727
     307 -> 313        0.63627

 The electronic state is 1-A.
 Alpha  occ. eigenvalues --  -46.95334 -46.94071 -19.30820 -19.29081 -19.25926
 Alpha  occ. eigenvalues --  -19.25533 -19.24848 -19.24343 -19.23341 -19.22859
 Alpha  occ. eigenvalues --  -14.46959 -14.46793 -14.46563 -14.45984 -14.44706
 Alpha  occ. eigenvalues --  -14.44673 -14.43585 -14.43145 -10.44209 -10.42660
 Alpha  occ. eigenvalues --  -10.41252 -10.39654 -10.39458 -10.38023 -10.36029
 Alpha  occ. eigenvalues --  -10.35363 -10.35363 -10.35206 -10.35095 -10.35089
 Alpha  occ. eigenvalues --  -10.34860 -10.34721 -10.34708 -10.34685 -10.34601
 Alpha  occ. eigenvalues --  -10.34529 -10.34522 -10.34402 -10.33751 -10.33188
 Alpha  occ. eigenvalues --  -10.33034 -10.32841 -10.32704 -10.32682 -10.32559
 Alpha  occ. eigenvalues --  -10.32554 -10.32530 -10.32420 -10.32400 -10.32331
 Alpha  occ. eigenvalues --  -10.32233 -10.32221 -10.32012 -10.31999 -10.31983
 Alpha  occ. eigenvalues --  -10.31967 -10.31833 -10.31590 -10.31548 -10.31543
 Alpha  occ. eigenvalues --  -10.31535 -10.31367 -10.31295 -10.31236 -10.31229
 Alpha  occ. eigenvalues --  -10.31060 -10.31045 -10.30928 -10.30887 -10.30786
 Alpha  occ. eigenvalues --  -10.30737 -10.30425 -10.30353 -10.30190 -10.30152
 Alpha  occ. eigenvalues --  -10.29852 -10.29807 -10.29591 -10.29559 -10.29534
 Alpha  occ. eigenvalues --  -10.29481 -10.29291 -10.29104 -10.28987 -10.28251
 Alpha  occ. eigenvalues --  -10.28122  -3.21340  -3.20237  -1.94909  -1.94467
 Alpha  occ. eigenvalues --   -1.94313  -1.93846  -1.93331  -1.93261  -1.17714
 Alpha  occ. eigenvalues --   -1.16571  -1.14247  -1.12726  -1.11720  -1.10131
 Alpha  occ. eigenvalues --   -1.09832  -1.08876  -1.07535  -1.07232  -1.06692
 Alpha  occ. eigenvalues --   -1.06268  -1.06129  -1.05368  -1.05188  -1.04780
 Alpha  occ. eigenvalues --   -0.95258  -0.94038  -0.91759  -0.91235  -0.91049
 Alpha  occ. eigenvalues --   -0.90918  -0.90397  -0.90168  -0.89768  -0.89226
 Alpha  occ. eigenvalues --   -0.88996  -0.88942  -0.88122  -0.87885  -0.86751
 Alpha  occ. eigenvalues --   -0.86178  -0.86162  -0.85470  -0.84653  -0.84537
 Alpha  occ. eigenvalues --   -0.84475  -0.83842  -0.82838  -0.82636  -0.82422
 Alpha  occ. eigenvalues --   -0.81986  -0.80544  -0.79748  -0.79352  -0.79100
 Alpha  occ. eigenvalues --   -0.78794  -0.78519  -0.78394  -0.77709  -0.77438
 Alpha  occ. eigenvalues --   -0.76952  -0.75498  -0.74757  -0.74186  -0.73109
 Alpha  occ. eigenvalues --   -0.71351  -0.71083  -0.70899  -0.70685  -0.69843
 Alpha  occ. eigenvalues --   -0.69630  -0.69228  -0.68619  -0.68222  -0.67645
 Alpha  occ. eigenvalues --   -0.67352  -0.66975  -0.66918  -0.66534  -0.66135
 Alpha  occ. eigenvalues --   -0.65912  -0.65081  -0.63192  -0.62647  -0.62504
 Alpha  occ. eigenvalues --   -0.62037  -0.61582  -0.61498  -0.61072  -0.60944
 Alpha  occ. eigenvalues --   -0.60061  -0.59961  -0.59903  -0.59519  -0.58793
 Alpha  occ. eigenvalues --   -0.58207  -0.57793  -0.57757  -0.57606  -0.57603
 Alpha  occ. eigenvalues --   -0.57308  -0.56826  -0.56631  -0.56288  -0.55833
 Alpha  occ. eigenvalues --   -0.55807  -0.55514  -0.55499  -0.55292  -0.55140
 Alpha  occ. eigenvalues --   -0.54898  -0.54607  -0.54539  -0.54217  -0.54196
 Alpha  occ. eigenvalues --   -0.54035  -0.53985  -0.53679  -0.53651  -0.53082
 Alpha  occ. eigenvalues --   -0.53019  -0.52788  -0.52675  -0.52651  -0.52450
 Alpha  occ. eigenvalues --   -0.52224  -0.52175  -0.51971  -0.51801  -0.51767
 Alpha  occ. eigenvalues --   -0.51577  -0.51371  -0.51053  -0.50941  -0.50834
 Alpha  occ. eigenvalues --   -0.50740  -0.50535  -0.50433  -0.50366  -0.50244
 Alpha  occ. eigenvalues --   -0.49903  -0.49704  -0.49651  -0.49260  -0.49138
 Alpha  occ. eigenvalues --   -0.48821  -0.48745  -0.48529  -0.48401  -0.48303
 Alpha  occ. eigenvalues --   -0.48123  -0.47928  -0.47889  -0.47808  -0.47662
 Alpha  occ. eigenvalues --   -0.47657  -0.47408  -0.47396  -0.47226  -0.47104
 Alpha  occ. eigenvalues --   -0.46799  -0.46786  -0.46532  -0.46211  -0.45963
 Alpha  occ. eigenvalues --   -0.45888  -0.45867  -0.45836  -0.45622  -0.45391
 Alpha  occ. eigenvalues --   -0.45223  -0.45179  -0.45107  -0.44883  -0.44602
 Alpha  occ. eigenvalues --   -0.44391  -0.44382  -0.44348  -0.44299  -0.43972
 Alpha  occ. eigenvalues --   -0.43962  -0.43689  -0.43629  -0.43449  -0.43391
 Alpha  occ. eigenvalues --   -0.43258  -0.43003  -0.42897  -0.42811  -0.42378
 Alpha  occ. eigenvalues --   -0.42039  -0.42016  -0.41832  -0.41055  -0.40937
 Alpha  occ. eigenvalues --   -0.40654  -0.40148  -0.40131  -0.39927  -0.39716
 Alpha  occ. eigenvalues --   -0.39472  -0.39403  -0.39234  -0.38590  -0.38341
 Alpha  occ. eigenvalues --   -0.38080  -0.37557  -0.37344  -0.36659  -0.36391
 Alpha  occ. eigenvalues --   -0.35833  -0.35453  -0.35388  -0.34161  -0.33956
 Alpha  occ. eigenvalues --   -0.33343  -0.33088  -0.32671  -0.32531  -0.32142
 Alpha  occ. eigenvalues --   -0.32102  -0.31932  -0.31644  -0.26298  -0.25775
 Alpha  occ. eigenvalues --   -0.23437  -0.23167
 Alpha virt. eigenvalues --   -0.07669  -0.07127   0.00104   0.00709   0.02047
 Alpha virt. eigenvalues --    0.02341   0.04463   0.04626   0.05025   0.06313
 Alpha virt. eigenvalues --    0.06654   0.07034   0.07476   0.08089   0.08197

 Mulliken charges:
               1
     1  Mg   0.972206
     2  C    0.037980
     3  C   -0.077511
     4  C   -0.047377
     5  C   -0.093040
     6  N   -0.359195
     7  C   -0.051996
     8  C   -0.053855
     9  C   -0.081884
    10  C    0.068542
    11  C    0.030567
    12  C    0.005046
    13  C   -0.116340
    14  H    0.048174
    15  N   -0.473531
    16  C    0.150621
    17  C   -0.148641
    18  C   -0.063283
    19  C    0.180175
    20  C    0.070433
    21  C    0.021645
    22  O   -0.276327
    23  C    0.023469
    24  N   -0.303533
    25  C    0.005212
    26  C   -0.045742
    27  C   -0.064970
    28  C    0.055486
    29  C    0.009409
    30  C   -0.002908
    31  C   -0.061487
    32  N   -0.466648
    33  C    0.108545
    34  C   -0.190738
    35  C   -0.079802
    36  C    0.147719
    37  C    0.086716
    38  C    0.122474
    39  O   -0.159382
    40  C   -0.057627
    41  C    0.245600
    42  O   -0.241288
    43  O   -0.390769
    44  C    0.140075
    45  H    0.005743
    46  H   -0.060497
    47  H    0.006888
    48  H    0.035292
    49  H    0.038538
    50  H    0.038037
    51  H    0.024463
    52  H    0.047610
    53  H    0.031348
    54  H    0.047654
    55  H    0.050676
    56  H    0.054853
    57  H    0.034313
    58  H    0.046798
    59  H    0.065056
    60  H    0.062900
    61  H    0.064292
    62  H    0.063504
    63  H    0.043441
    64  H    0.043049
    65  H    0.033451
    66  H    0.024367
    67  H    0.040117
    68  H    0.030990
    69  H    0.026646
    70  H    0.031301
    71  H    0.020833
    72  H    0.039942
    73  H    0.062321
    74  H    0.052037
    75  H    0.046423
    76  H    0.069969
    77  H    0.047214
    78  H    0.044051
    79  H    0.064158
    80  Mg   0.985796
    81  C   -0.033892
    82  C   -0.089361
    83  C   -0.081489
    84  C   -0.112984
    85  N   -0.312271
    86  C   -0.022119
    87  C   -0.084684
    88  C   -0.106249
    89  C    0.035494
    90  C    0.056925
    91  C    0.017339
    92  C   -0.109416
    93  H    0.037418
    94  N   -0.477470
    95  C    0.190005
    96  C   -0.158465
    97  C   -0.108950
    98  C    0.127402
    99  C    0.049036
   100  C    0.101720
   101  O   -0.227705
   102  C   -0.029690
   103  N   -0.378947
   104  C    0.080900
   105  C   -0.097573
   106  C   -0.032380
   107  C    0.052899
   108  C    0.021179
   109  C   -0.006338
   110  C   -0.048360
   111  N   -0.374619
   112  C    0.116000
   113  C   -0.174731
   114  C   -0.023249
   115  C    0.102245
   116  C    0.084913
   117  C    0.096566
   118  O   -0.204377
   119  C   -0.019766
   120  C    0.245611
   121  O   -0.251801
   122  O   -0.402651
   123  C    0.147332
   124  H    0.004628
   125  H    0.017806
   126  H   -0.007213
   127  H    0.021294
   128  H    0.004245
   129  H    0.035491
   130  H    0.070933
   131  H    0.036952
   132  H    0.035353
   133  H    0.041388
   134  H    0.045543
   135  H    0.053228
   136  H    0.040768
   137  H    0.065775
   138  H    0.030985
   139  H    0.059258
   140  H    0.056171
   141  H    0.081374
   142  H    0.037128
   143  H    0.030690
   144  H    0.038401
   145  H    0.045315
   146  H    0.041230
   147  H    0.033815
   148  H    0.028033
   149  H    0.018085
   150  H    0.047794
   151  H    0.040803
   152  H    0.015331
   153  H    0.066061
   154  H    0.046208
   155  H    0.068430
   156  H    0.064045
   157  H    0.057382
   158  H    0.048026
 Sum of Mulliken charges =  -0.00000

 Dipole moment (field-independent basis, Debye):
    X=             -0.1444    Y=             -5.1660    Z=              2.1769  Tot=              5.6078
 Quadrupole moment (field-independent basis, Debye-Ang):
   XX=           -303.2371   YY=           -480.4700   ZZ=           -488.4448
   XY=             17.5406   XZ=              6.2481   YZ=              2.6739

 Normal termination of Gaussian 16 at Sun Sep 19 21:25:13 2021.
