 Gaussian 16, Revision A.03,
 Gaussian 16:  ES64L-G16RevA.03 25-Dec-2016

 --------------------------------
 #p wB97XD/Def2SVP td=(nstates=5)
 --------------------------------

 --------------------------------
 TDDFT excited states in gaussian
 --------------------------------
 Symbolic Z-matrix:
 Charge =  0 Multiplicity = 1

                         Standard orientation:
 ---------------------------------------------------------------------
 Center     Atomic      Atomic             Coordinates (Angstroms)
 Number     Number       Type             X           Y           Z
 ---------------------------------------------------------------------
      1         12           0      -16.352125    0.477244    0.367081
      2          6           0      -15.014176   -2.037200   -1.628133
      3          6           0      -17.307143   -1.900773    2.642129
      4          6           0      -17.922454    2.944555    2.116559
      5          6           0      -15.492092    2.727005   -2.246776
      6          7           0      -16.213070   -1.708373    0.477049
      7          6           0      -15.511332   -2.484186   -0.407519
      8          6           0      -15.533971   -3.908437    0.152826
      9          6           0      -16.505734   -3.877582    1.319016
     10          6           0      -16.658921   -2.373700    1.516111
     11          6           0      -17.818344   -4.607598    1.220963
     12          6           0      -14.100962   -4.537309    0.498152
     13          6           0      -14.120487   -5.895406    1.270708
     14          1           0      -14.107364   -7.213856    0.453652
     15          7           0      -17.324534    0.511619    2.200129
     16          6           0      -17.646484   -0.560284    2.966234
     17          6           0      -18.397716   -0.055729    4.086119
     18          6           0      -18.575743    1.349324    3.920771
     19          6           0      -17.962163    1.666886    2.710390
     20          6           0      -18.865704   -0.983440    5.164599
     21          6           0      -19.433374    2.282753    4.824010
     22          8           0      -19.817022    3.372804    4.439077
     23          6           0      -19.942677    1.893405    6.128959
     24          7           0      -16.629064    2.417497   -0.007162
     25          6           0      -17.271934    3.288253    0.872174
     26          6           0      -17.269560    4.742167    0.368842
     27          6           0      -16.267993    4.657868   -0.832809
     28          6           0      -16.083902    3.159538   -1.008829
     29          6           0      -18.583610    5.384764    0.197821
     30          6           0      -14.867460    5.484895   -0.764536
     31          6           0      -14.532712    6.540316   -1.822780
     32          7           0      -15.462206    0.390985   -1.638571
     33          6           0      -15.213516    1.387323   -2.540402
     34          6           0      -14.595137    0.875481   -3.716751
     35          6           0      -14.413872   -0.519444   -3.376474
     36          6           0      -15.048765   -0.761274   -2.126037
     37          6           0      -14.182251    1.705194   -4.872245
     38          6           0      -13.798760   -1.747841   -3.824014
     39          8           0      -13.101980   -2.047628   -4.773611
     40          6           0      -14.199995   -2.818836   -2.648522
     41          6           0      -14.804868   -4.050298   -3.217232
     42          8           0      -15.880573   -4.076156   -3.773936
     43          8           0      -14.033021   -5.135774   -3.033284
     44          6           0      -14.650630   -6.483646   -3.336530
     45          1           0      -17.566596   -2.647369    3.395975
     46          1           0      -18.438794    3.714597    2.693219
     47          1           0      -15.289253    3.569567   -2.911429
     48          1           0      -15.951596   -4.437406   -0.703731
     49          1           0      -16.039580   -4.341815    2.187731
     50          1           0      -18.482292   -3.751635    1.104096
     51          1           0      -18.015275   -5.236860    2.089040
     52          1           0      -17.914096   -5.168214    0.290853
     53          1           0      -13.666632   -3.756176    1.122441
     54          1           0      -13.525385   -4.669379   -0.417262
     55          1           0      -15.011917   -5.993827    1.888927
     56          1           0      -13.266200   -5.905125    1.947600
     57          1           0      -18.550838   -2.026554    5.121644
     58          1           0      -19.949473   -1.025964    5.061439
     59          1           0      -18.683826   -0.598770    6.168312
     60          1           0      -20.446289    0.935511    6.254889
     61          1           0      -20.571967    2.631541    6.626031
     62          1           0      -19.037734    1.912681    6.735893
     63          1           0      -16.754124    5.184599    1.221733
     64          1           0      -16.940489    4.967937   -1.632464
     65          1           0      -18.803952    6.239149    0.838372
     66          1           0      -19.344115    4.624788    0.379077
     67          1           0      -18.751254    5.796999   -0.797116
     68          1           0      -14.058653    4.755176   -0.797392
     69          1           0      -14.653184    6.034933    0.152571
     70          1           0      -13.804908    6.225631   -2.571149
     71          1           0      -14.311404    7.531281   -1.427422
     72          1           0      -15.421168    6.670106   -2.440914
     73          1           0      -14.995465    2.389320   -5.113484
     74          1           0      -13.872523    1.108212   -5.729602
     75          1           0      -13.439856    2.416591   -4.509063
     76          1           0      -13.253977   -3.118226   -2.198557
     77          1           0      -13.768784   -7.110183   -3.468407
     78          1           0      -15.249902   -6.396026   -4.242560
     79          1           0      -15.198037   -6.783150   -2.442684
     80         12           0       15.798840    0.618329   -0.051038
     81          6           0       18.114351   -1.590705    1.090922
     82          6           0       13.490370   -1.841676   -0.773822
     83          6           0       13.710286    3.008034   -1.335803
     84          6           0       18.283625    3.231256    0.247860
     85          7           0       15.903934   -1.472652   -0.049438
     86          6           0       16.878143   -2.197034    0.716115
     87          6           0       16.431243   -3.582152    0.964047
     88          6           0       15.165901   -3.680426   -0.001073
     89          6           0       14.790375   -2.252175   -0.327673
     90          6           0       15.458100   -4.516071   -1.345881
     91          6           0       16.253829   -3.952174    2.468768
     92          6           0       16.820247   -5.275659    2.871295
     93          1           0       16.625068   -6.457173    1.841337
     94          7           0       13.833147    0.594139   -0.868372
     95          6           0       13.111733   -0.544757   -1.070471
     96          6           0       11.854000   -0.163271   -1.615276
     97          6           0       11.820944    1.281842   -1.723802
     98          6           0       13.158491    1.745212   -1.223687
     99          6           0       10.809214   -1.202101   -2.078165
    100          6           0       10.768029    2.251641   -2.161072
    101          8           0       10.867067    3.473441   -2.320623
    102          6           0        9.340890    1.627499   -2.398031
    103          7           0       15.997795    2.848434   -0.598218
    104          6           0       14.978423    3.566241   -0.999646
    105          6           0       15.258641    5.066032   -0.930797
    106          6           0       16.727451    5.115943   -0.421382
    107          6           0       17.048195    3.631726   -0.256361
    108          6           0       15.065534    5.825861   -2.340139
    109          6           0       16.763525    5.906909    0.960028
    110          6           0       16.093814    5.326860    2.230282
    111          7           0       17.850063    0.781344    0.392932
    112          6           0       18.664606    1.890821    0.518608
    113          6           0       19.930981    1.411871    1.109108
    114          6           0       19.819827    0.081509    1.381732
    115          6           0       18.499516   -0.257163    0.910848
    116          6           0       21.165906    2.238134    1.218803
    117          6           0       20.469151   -1.113675    1.919710
    118          8           0       21.582709   -1.281211    2.388060
    119          6           0       19.359937   -2.239135    1.729075
    120          6           0       19.913351   -3.241269    0.795737
    121          8           0       20.351441   -3.057613   -0.353314
    122          8           0       19.842066   -4.427643    1.497369
    123          6           0       20.168162   -5.621477    0.706378
    124          1           0       12.713321   -2.583922   -0.967274
    125          1           0       12.952129    3.730456   -1.647363
    126          1           0       19.019914    4.018668    0.418339
    127          1           0       17.248250   -4.199248    0.588015
    128          1           0       14.354748   -4.145127    0.558624
    129          1           0       16.374660   -5.104528   -1.304202
    130          1           0       15.677424   -3.776823   -2.116149
    131          1           0       14.522489   -5.045675   -1.520613
    132          1           0       15.193223   -3.968728    2.719810
    133          1           0       16.793968   -3.152177    2.974885
    134          1           0       16.351508   -5.686055    3.764835
    135          1           0       17.864694   -5.384771    3.163727
    136          1           0       10.240881   -1.689534   -1.286098
    137          1           0       11.412890   -1.885765   -2.674826
    138          1           0        9.989666   -0.758453   -2.643107
    139          1           0        9.357121    1.050867   -3.322906
    140          1           0        8.603381    2.420169   -2.273448
    141          1           0        9.011464    0.972200   -1.591444
    142          1           0       14.603609    5.505022   -0.178630
    143          1           0       17.410739    5.617766   -1.106565
    144          1           0       14.137934    6.391877   -2.247552
    145          1           0       14.956296    5.099799   -3.146396
    146          1           0       15.801312    6.561498   -2.662541
    147          1           0       16.419265    6.939737    0.909152
    148          1           0       17.832047    5.889805    1.177122
    149          1           0       16.946228    5.159577    2.888841
    150          1           0       15.516147    4.425919    2.027460
    151          1           0       15.391963    6.008679    2.710463
    152          1           0       21.633316    1.845263    2.121207
    153          1           0       20.957278    3.305400    1.295391
    154          1           0       21.854220    1.892367    0.448698
    155          1           0       19.354926   -2.649962    2.738331
    156          1           0       20.164621   -6.404023    1.465687
    157          1           0       21.194378   -5.481357    0.366738
    158          1           0       19.563202   -5.778719   -0.186832
 ---------------------------------------------------------------------

 SCF Done:  E(RwB97XD) =  -4070.60863545     A.U. after   19 cycles

 Excitation energies and oscillator strengths:

 Excited State   1:      Singlet-A      1.6384 eV  756.75 nm  f=0.4186  <S**2>=0.000
     310 -> 316        0.18153
     311 -> 313        0.67222
     312 -> 314       -0.12378
     310 <- 316        0.11575
 This state for optimization and/or second-order correction.
 Total Energy, E(TD-HF/TD-DFT) =  -4070.54842604
 Copying the excited state density for this state as the 1-particle RhoCI density.

 Excited State   2:      Singlet-A      1.6465 eV  753.02 nm  f=0.3593  <S**2>=0.000
     309 -> 315       -0.18871
     311 -> 313        0.12393
     312 -> 314        0.67035
     309 <- 315       -0.11625

 Excited State   3:      Singlet-A      2.1630 eV  573.21 nm  f=0.0909  <S**2>=0.000
     310 -> 313        0.63064
     311 -> 316       -0.30294

 Excited State   4:      Singlet-A      2.2140 eV  560.00 nm  f=0.0445  <S**2>=0.000
     309 -> 314        0.60809
     312 -> 315        0.34958

 Excited State   5:      Singlet-A      3.2557 eV  380.82 nm  f=0.0003  <S**2>=0.000
     307 -> 313       -0.22847
     308 -> 313        0.64112

 The electronic state is 1-A.
 Alpha  occ. eigenvalues --  -46.95606 -46.94261 -19.30874 -19.29678 -19.25209
 Alpha  occ. eigenvalues --  -19.24594 -19.24580 -19.24142 -19.23759 -19.23239
 Alpha  occ. eigenvalues --  -14.47371 -14.46904 -14.46786 -14.46654 -14.44122
 Alpha  occ. eigenvalues --  -14.44077 -14.43728 -14.43067 -10.43377 -10.41838
 Alpha  occ. eigenvalues --  -10.39737 -10.39587 -10.39430 -10.38715 -10.36074
 Alpha  occ. eigenvalues --  -10.35903 -10.35821 -10.35701 -10.35583 -10.35177
 Alpha  occ. eigenvalues --  -10.35158 -10.34898 -10.34488 -10.34435 -10.34148
 Alpha  occ. eigenvalues --  -10.33974 -10.33901 -10.33784 -10.33646 -10.33569
 Alpha  occ. eigenvalues --  -10.33454 -10.33064 -10.33025 -10.32788 -10.32493
 Alpha  occ. eigenvalues --  -10.32457 -10.32399 -10.32244 -10.32212 -10.32180
 Alpha  occ. eigenvalues --  -10.32147 -10.32014 -10.31954 -10.31813 -10.31670
 Alpha  occ. eigenvalues --  -10.31659 -10.31620 -10.31541 -10.31533 -10.31501
 Alpha  occ. eigenvalues --  -10.31432 -10.31405 -10.31404 -10.31358 -10.31269
 Alpha  occ. eigenvalues --  -10.31233 -10.31171 -10.31039 -10.31010 -10.30991
 Alpha  occ. eigenvalues --  -10.30952 -10.30932 -10.30471 -10.30446 -10.30349
 Alpha  occ. eigenvalues --  -10.30164 -10.30051 -10.29752 -10.29725 -10.29633
 Alpha  occ. eigenvalues --  -10.29431 -10.29428 -10.29360 -10.29347 -10.29317
 Alpha  occ. eigenvalues --  -10.28745  -3.21464  -3.20339  -1.95052  -1.94574
 Alpha  occ. eigenvalues --   -1.94433  -1.93950  -1.93464  -1.93316  -1.18132
 Alpha  occ. eigenvalues --   -1.18056  -1.13233  -1.12428  -1.11867  -1.11778
 Alpha  occ. eigenvalues --   -1.09658  -1.08964  -1.07276  -1.07135  -1.06169
 Alpha  occ. eigenvalues --   -1.05787  -1.05376  -1.04960  -1.04453  -1.03737
 Alpha  occ. eigenvalues --   -0.94439  -0.94338  -0.91113  -0.91041  -0.90673
 Alpha  occ. eigenvalues --   -0.90613  -0.90317  -0.89908  -0.89535  -0.89208
 Alpha  occ. eigenvalues --   -0.88956  -0.88851  -0.88688  -0.88234  -0.86586
 Alpha  occ. eigenvalues --   -0.86575  -0.85641  -0.85285  -0.84599  -0.84416
 Alpha  occ. eigenvalues --   -0.84301  -0.83479  -0.83384  -0.83185  -0.82750
 Alpha  occ. eigenvalues --   -0.81932  -0.80803  -0.80052  -0.79754  -0.79288
 Alpha  occ. eigenvalues --   -0.79240  -0.79139  -0.77876  -0.77734  -0.77136
 Alpha  occ. eigenvalues --   -0.76921  -0.74811  -0.74450  -0.74175  -0.73837
 Alpha  occ. eigenvalues --   -0.71798  -0.71344  -0.71227  -0.70875  -0.70329
 Alpha  occ. eigenvalues --   -0.70271  -0.69453  -0.68973  -0.67581  -0.67408
 Alpha  occ. eigenvalues --   -0.67262  -0.66954  -0.66681  -0.66658  -0.66376
 Alpha  occ. eigenvalues --   -0.66247  -0.64515  -0.63466  -0.62570  -0.62329
 Alpha  occ. eigenvalues --   -0.61745  -0.61391  -0.61003  -0.60915  -0.60857
 Alpha  occ. eigenvalues --   -0.60776  -0.60006  -0.59940  -0.59490  -0.59273
 Alpha  occ. eigenvalues --   -0.58373  -0.57912  -0.57790  -0.57483  -0.57334
 Alpha  occ. eigenvalues --   -0.56951  -0.56911  -0.56756  -0.56528  -0.56375
 Alpha  occ. eigenvalues --   -0.55805  -0.55466  -0.55156  -0.55143  -0.55128
 Alpha  occ. eigenvalues --   -0.54944  -0.54581  -0.54314  -0.54266  -0.54206
 Alpha  occ. eigenvalues --   -0.54088  -0.54071  -0.53911  -0.53460  -0.53290
 Alpha  occ. eigenvalues --   -0.52992  -0.52957  -0.52844  -0.52808  -0.52492
 Alpha  occ. eigenvalues --   -0.52302  -0.51879  -0.51831  -0.51577  -0.51423
 Alpha  occ. eigenvalues --   -0.51301  -0.51233  -0.51089  -0.50948  -0.50895
 Alpha  occ. eigenvalues --   -0.50593  -0.50498  -0.50473  -0.50404  -0.50216
 Alpha  occ. eigenvalues --   -0.50089  -0.49683  -0.49624  -0.49412  -0.49315
 Alpha  occ. eigenvalues --   -0.49181  -0.49087  -0.48817  -0.48807  -0.48708
 Alpha  occ. eigenvalues --   -0.48548  -0.48542  -0.48215  -0.48132  -0.48059
 Alpha  occ. eigenvalues --   -0.47780  -0.47518  -0.47123  -0.47114  -0.47068
 Alpha  occ. eigenvalues --   -0.46780  -0.46708  -0.46495  -0.46366  -0.46227
 Alpha  occ. eigenvalues --   -0.45962  -0.45861  -0.45690  -0.45423  -0.45320
 Alpha  occ. eigenvalues --   -0.45174  -0.44945  -0.44881  -0.44834  -0.44737
 Alpha  occ. eigenvalues --   -0.44691  -0.44304  -0.44072  -0.44019  -0.44018
 Alpha  occ. eigenvalues --   -0.43878  -0.43766  -0.43616  -0.43508  -0.43449
 Alpha  occ. eigenvalues --   -0.43260  -0.42863  -0.42698  -0.42411  -0.42331
 Alpha  occ. eigenvalues --   -0.42139  -0.41695  -0.41483  -0.41409  -0.41225
 Alpha  occ. eigenvalues --   -0.40739  -0.39854  -0.39802  -0.39530  -0.39250
 Alpha  occ. eigenvalues --   -0.39106  -0.38934  -0.38721  -0.38361  -0.38324
 Alpha  occ. eigenvalues --   -0.38278  -0.38111  -0.36632  -0.36259  -0.36207
 Alpha  occ. eigenvalues --   -0.36082  -0.35722  -0.35013  -0.33429  -0.33296
 Alpha  occ. eigenvalues --   -0.33219  -0.33132  -0.32968  -0.32530  -0.32266
 Alpha  occ. eigenvalues --   -0.32093  -0.31943  -0.31258  -0.26356  -0.26165
 Alpha  occ. eigenvalues --   -0.22969  -0.22768
 Alpha virt. eigenvalues --   -0.07199  -0.06837  -0.00470  -0.00003   0.01800
 Alpha virt. eigenvalues --    0.02638   0.04221   0.04791   0.05048   0.06437
 Alpha virt. eigenvalues --    0.06931   0.07294   0.07438   0.07799   0.07887

 Mulliken charges:
               1
     1  Mg   0.969882
     2  C    0.027092
     3  C   -0.088509
     4  C   -0.071739
     5  C   -0.105507
     6  N   -0.331555
     7  C   -0.006892
     8  C   -0.044272
     9  C   -0.151837
    10  C    0.059772
    11  C    0.050749
    12  C    0.000347
    13  C   -0.115532
    14  H    0.029120
    15  N   -0.488132
    16  C    0.172306
    17  C   -0.166744
    18  C   -0.057457
    19  C    0.125919
    20  C    0.053463
    21  C    0.071615
    22  O   -0.233694
    23  C   -0.004553
    24  N   -0.422770
    25  C    0.060606
    26  C   -0.086685
    27  C   -0.053616
    28  C    0.048491
    29  C    0.042954
    30  C   -0.002767
    31  C   -0.069073
    32  N   -0.373832
    33  C    0.160033
    34  C   -0.166677
    35  C   -0.076298
    36  C    0.112947
    37  C    0.102512
    38  C    0.145399
    39  O   -0.193179
    40  C   -0.138322
    41  C    0.241143
    42  O   -0.254300
    43  O   -0.372522
    44  C    0.133497
    45  H   -0.016260
    46  H    0.028750
    47  H    0.001770
    48  H    0.035401
    49  H    0.021835
    50  H    0.039224
    51  H    0.043583
    52  H    0.038595
    53  H    0.034446
    54  H    0.060914
    55  H    0.043731
    56  H    0.059013
    57  H    0.039630
    58  H    0.049884
    59  H    0.047125
    60  H    0.056614
    61  H    0.050191
    62  H    0.049725
    63  H    0.038401
    64  H    0.031843
    65  H    0.040610
    66  H    0.046744
    67  H    0.027989
    68  H    0.036058
    69  H    0.035535
    70  H    0.039398
    71  H    0.045814
    72  H    0.018580
    73  H    0.034887
    74  H    0.072753
    75  H    0.044363
    76  H    0.067290
    77  H    0.062598
    78  H    0.082080
    79  H    0.059497
    80  Mg   0.932546
    81  C   -0.004954
    82  C   -0.105912
    83  C   -0.037078
    84  C   -0.077795
    85  N   -0.442349
    86  C   -0.001255
    87  C   -0.039702
    88  C   -0.135941
    89  C    0.130615
    90  C    0.033354
    91  C    0.069968
    92  C   -0.138357
    93  H    0.000512
    94  N   -0.460848
    95  C    0.168979
    96  C   -0.150567
    97  C   -0.078129
    98  C    0.134207
    99  C    0.056784
   100  C    0.061884
   101  O   -0.237551
   102  C   -0.054771
   103  N   -0.260428
   104  C    0.018006
   105  C   -0.075322
   106  C   -0.047610
   107  C    0.027187
   108  C   -0.001694
   109  C   -0.063180
   110  C   -0.056313
   111  N   -0.406697
   112  C    0.141434
   113  C   -0.241028
   114  C   -0.006278
   115  C    0.119923
   116  C    0.082707
   117  C    0.139127
   118  O   -0.194751
   119  C   -0.109434
   120  C    0.275613
   121  O   -0.259053
   122  O   -0.369958
   123  C    0.139902
   124  H    0.001565
   125  H    0.024235
   126  H    0.003051
   127  H    0.030708
   128  H    0.027164
   129  H    0.043602
   130  H    0.045697
   131  H    0.050325
   132  H    0.039560
   133  H    0.041724
   134  H    0.043849
   135  H    0.061518
   136  H    0.055349
   137  H    0.062231
   138  H    0.016893
   139  H    0.079411
   140  H    0.051795
   141  H    0.041963
   142  H    0.050120
   143  H    0.039072
   144  H    0.042692
   145  H    0.048679
   146  H    0.040728
   147  H    0.041633
   148  H    0.020565
   149  H    0.044545
   150  H    0.039792
   151  H    0.038643
   152  H    0.047095
   153  H    0.040263
   154  H    0.066242
   155  H    0.068406
   156  H    0.059468
   157  H    0.056227
   158  H    0.059399
 Sum of Mulliken charges =  -0.00000

 Dipole moment (field-independent basis, Debye):
    X=             -4.3976    Y=             -1.4446    Z=              6.8969  Tot=              8.3062
 Quadrupole moment (field-independent basis, Debye-Ang):
   XX=           -663.8487   YY=           -447.7213   ZZ=           -520.6386
   XY=              6.0974   XZ=            -66.1276   YZ=            -21.6430

 Normal termination of Gaussian 16 at Mon Sep 20 01:32:36 2021.
