 Gaussian 16, Revision A.03,
 Gaussian 16:  ES64L-G16RevA.03 25-Dec-2016

 --------------------------------
 #p wB97XD/Def2SVP td=(nstates=5)
 --------------------------------

 --------------------------------
 TDDFT excited states in gaussian
 --------------------------------
 Symbolic Z-matrix:
 Charge =  0 Multiplicity = 1

                         Standard orientation:
 ---------------------------------------------------------------------
 Center     Atomic      Atomic             Coordinates (Angstroms)
 Number     Number       Type             X           Y           Z
 ---------------------------------------------------------------------
      1         12           0      -20.456942   -0.574525    0.058510
      2          6           0      -20.136035    2.684532   -1.090376
      3          6           0      -20.217932    0.507993    3.243655
      4          6           0      -20.596231   -3.773245    1.035072
      5          6           0      -20.533718   -1.615893   -3.283890
      6          7           0      -20.232935    1.428376    0.909209
      7          6           0      -20.216881    2.591377    0.303056
      8          6           0      -20.140017    3.720784    1.430886
      9          6           0      -19.426455    2.912211    2.493664
     10          6           0      -20.022968    1.490477    2.244323
     11          6           0      -17.896937    3.048229    2.333096
     12          6           0      -21.574598    4.353523    1.689490
     13          6           0      -21.553119    5.726004    2.369347
     14          1           0      -20.242377    6.240202    2.939208
     15          7           0      -20.591901   -1.479061    1.863268
     16          6           0      -20.550332   -0.823946    3.091775
     17          6           0      -20.903952   -1.821919    4.145416
     18          6           0      -20.957176   -3.133325    3.506742
     19          6           0      -20.627935   -2.794515    2.096694
     20          6           0      -21.080977   -1.449785    5.598484
     21          6           0      -21.318650   -4.577449    4.088216
     22          8           0      -21.394455   -5.596911    3.394071
     23          6           0      -21.595392   -4.655868    5.575116
     24          7           0      -20.437231   -2.386180   -0.941176
     25          6           0      -20.486237   -3.569458   -0.335210
     26          6           0      -20.363305   -4.764184   -1.330613
     27          6           0      -20.594314   -4.030457   -2.659454
     28          6           0      -20.582821   -2.578044   -2.299384
     29          6           0      -19.020025   -5.541767   -1.249050
     30          6           0      -21.788980   -4.515043   -3.595818
     31          6           0      -23.027852   -3.681411   -3.618031
     32          7           0      -20.153321    0.276210   -1.826476
     33          6           0      -20.275407   -0.235443   -3.074361
     34          6           0      -20.069228    0.727889   -4.096329
     35          6           0      -20.009806    1.946756   -3.350049
     36          6           0      -20.074864    1.569575   -2.028147
     37          6           0      -19.936989    0.654797   -5.595458
     38          6           0      -19.900370    3.374582   -3.391751
     39          8           0      -19.792876    4.153232   -4.314483
     40          6           0      -20.131009    3.950719   -1.958315
     41          6           0      -19.059321    4.895847   -1.630685
     42          8           0      -17.885815    4.561247   -1.573207
     43          8           0      -19.485019    6.247462   -1.569890
     44          6           0      -18.427289    7.248672   -1.361080
     45          1           0      -20.070412    0.890085    4.254827
     46          1           0      -20.597562   -4.806517    1.386173
     47          1           0      -20.511638   -1.982825   -4.311819
     48          1           0      -19.550891    4.562440    1.069181
     49          1           0      -19.714766    3.158560    3.515262
     50          1           0      -17.621734    3.599753    3.232718
     51          1           0      -17.610071    3.605372    1.440271
     52          1           0      -17.496795    2.039086    2.428650
     53          1           0      -22.166594    3.692565    2.323189
     54          1           0      -21.992904    4.511126    0.695092
     55          1           0      -22.297255    5.689295    3.164374
     56          1           0      -21.923033    6.443797    1.637610
     57          1           0      -21.499125   -0.448207    5.705255
     58          1           0      -20.199913   -1.506358    6.236900
     59          1           0      -21.833368   -2.108926    6.031287
     60          1           0      -20.726161   -4.171498    6.019374
     61          1           0      -21.625452   -5.667446    5.978933
     62          1           0      -22.551954   -4.182980    5.798134
     63          1           0      -21.143123   -5.506009   -1.159025
     64          1           0      -19.648313   -4.102265   -3.194890
     65          1           0      -18.732934   -5.717389   -2.286079
     66          1           0      -19.023685   -6.477516   -0.692218
     67          1           0      -18.308923   -4.918643   -0.706627
     68          1           0      -21.997091   -5.561404   -3.372093
     69          1           0      -21.466058   -4.458680   -4.635109
     70          1           0      -23.095499   -3.227007   -4.606768
     71          1           0      -23.011063   -2.777536   -3.007826
     72          1           0      -23.952462   -4.239872   -3.471610
     73          1           0      -19.929047   -0.372044   -5.962717
     74          1           0      -19.078159    1.251618   -5.903936
     75          1           0      -20.779762    1.029213   -6.176932
     76          1           0      -21.084929    4.471592   -1.880036
     77          1           0      -18.782186    8.255727   -1.143407
     78          1           0      -17.882899    7.230091   -2.305608
     79          1           0      -17.783387    6.829210   -0.588966
     80         12           0       19.756048   -0.646301   -0.285439
     81          6           0       21.929864    2.137889   -0.233611
     82          6           0       17.701808    0.885842    1.789912
     83          6           0       18.270209   -3.672757    0.267444
     84          6           0       22.605885   -2.535519   -1.694153
     85          7           0       19.882052    1.292023    0.698129
     86          6           0       20.696585    2.323146    0.393817
     87          6           0       20.118230    3.618407    0.996625
     88          6           0       18.803929    3.233826    1.596669
     89          6           0       18.775125    1.687749    1.400528
     90          6           0       18.596034    3.817515    3.053847
     91          6           0       20.042453    4.893888    0.092320
     92          6           0       18.856506    5.945606    0.199220
     93          1           0       19.202389    7.441859    0.195829
     94          7           0       18.046914   -1.225973    0.686104
     95          6           0       17.314590   -0.406725    1.515318
     96          6           0       16.174940   -1.152457    1.968281
     97          6           0       16.303532   -2.542308    1.578076
     98          6           0       17.597267   -2.537751    0.860201
     99          6           0       15.203083   -0.470785    2.843817
    100          6           0       15.339864   -3.739937    1.766402
    101          8           0       15.657332   -4.824706    1.404477
    102          6           0       13.919123   -3.510466    2.167640
    103          7           0       20.415456   -2.806208   -0.627031
    104          6           0       19.503477   -3.778789   -0.402989
    105          6           0       20.022385   -5.183667   -0.847437
    106          6           0       21.389669   -4.839311   -1.513366
    107          6           0       21.524036   -3.315326   -1.272076
    108          6           0       20.164182   -6.203511    0.251038
    109          6           0       21.580943   -5.183894   -3.031809
    110          6           0       20.965500   -4.299084   -4.062547
    111          7           0       21.841533   -0.387072   -0.894207
    112          6           0       22.775808   -1.202611   -1.465616
    113          6           0       23.934921   -0.422400   -1.824487
    114          6           0       23.688067    0.901002   -1.373523
    115          6           0       22.414203    0.853479   -0.771666
    116          6           0       25.229109   -0.911313   -2.372406
    117          6           0       24.218310    2.228194   -1.243878
    118          8           0       25.260762    2.758001   -1.611120
    119          6           0       23.085858    3.105649   -0.543889
    120          6           0       23.604981    3.916883    0.631240
    121          8           0       24.029790    3.430501    1.647365
    122          8           0       23.462912    5.266691    0.351412
    123          6           0       23.970871    6.133837    1.415081
    124          1           0       16.872900    1.376884    2.304712
    125          1           0       17.708145   -4.592377    0.441518
    126          1           0       23.409670   -3.067519   -2.207155
    127          1           0       20.905264    3.813991    1.724942
    128          1           0       18.023618    3.724534    1.014278
    129          1           0       19.405711    4.509528    3.284877
    130          1           0       18.450114    2.973643    3.728097
    131          1           0       17.727794    4.475414    3.095968
    132          1           0       20.034026    4.541257   -0.939321
    133          1           0       20.951213    5.492727    0.158162
    134          1           0       18.349341    5.683672    1.128023
    135          1           0       18.149526    5.764633   -0.610516
    136          1           0       14.873931   -1.226245    3.556933
    137          1           0       14.347650   -0.205738    2.223588
    138          1           0       15.461851    0.426790    3.405756
    139          1           0       13.971353   -3.589991    3.252694
    140          1           0       13.280609   -4.214394    1.633019
    141          1           0       13.546374   -2.500878    1.993349
    142          1           0       19.429412   -5.595677   -1.664220
    143          1           0       22.314899   -5.187644   -1.055401
    144          1           0       19.692259   -5.864006    1.173976
    145          1           0       21.206957   -6.388317    0.510400
    146          1           0       19.672647   -7.102083   -0.121046
    147          1           0       21.210788   -6.190256   -3.227865
    148          1           0       22.647388   -5.332337   -3.202901
    149          1           0       20.129790   -3.751880   -3.625936
    150          1           0       20.503592   -4.714105   -4.958647
    151          1           0       21.786715   -3.679843   -4.424843
    152          1           0       25.748197   -1.635082   -1.744731
    153          1           0       25.923004   -0.078937   -2.252470
    154          1           0       25.128386   -1.260013   -3.400574
    155          1           0       22.705003    3.767521   -1.321952
    156          1           0       22.955182    6.457030    1.641055
    157          1           0       24.559359    6.873780    0.873132
    158          1           0       24.496834    5.589354    2.199599
 ---------------------------------------------------------------------

 SCF Done:  E(RwB97XD) =  -4070.60442747     A.U. after   20 cycles

 Excitation energies and oscillator strengths:

 Excited State   1:      Singlet-A      1.6417 eV  755.23 nm  f=0.3826  <S**2>=0.000
     310 -> 315        0.19301
     312 -> 314        0.68166
     310 <- 315        0.12002
 This state for optimization and/or second-order correction.
 Total Energy, E(TD-HF/TD-DFT) =  -4070.54409696
 Copying the excited state density for this state as the 1-particle RhoCI density.

 Excited State   2:      Singlet-A      1.6906 eV  733.39 nm  f=0.3925  <S**2>=0.000
     309 -> 316       -0.18170
     311 -> 313        0.68421
     309 <- 316       -0.11473

 Excited State   3:      Singlet-A      2.1319 eV  581.57 nm  f=0.1047  <S**2>=0.000
     310 -> 314        0.64023
     312 -> 315       -0.28529

 Excited State   4:      Singlet-A      2.1645 eV  572.80 nm  f=0.1466  <S**2>=0.000
     309 -> 313        0.65219
     311 -> 316        0.26037

 Excited State   5:      Singlet-A      3.3484 eV  370.28 nm  f=0.0010  <S**2>=0.000
     306 -> 314       -0.21658
     308 -> 314        0.65066

 The electronic state is 1-A.
 Alpha  occ. eigenvalues --  -46.96316 -46.94153 -19.29967 -19.29182 -19.25610
 Alpha  occ. eigenvalues --  -19.24941 -19.24586 -19.24441 -19.23665 -19.22950
 Alpha  occ. eigenvalues --  -14.46782 -14.46649 -14.46360 -14.46066 -14.44788
 Alpha  occ. eigenvalues --  -14.44097 -14.43374 -14.43233 -10.42950 -10.42758
 Alpha  occ. eigenvalues --  -10.41329 -10.39675 -10.38799 -10.38115 -10.35663
 Alpha  occ. eigenvalues --  -10.35450 -10.35290 -10.35175 -10.35129 -10.34979
 Alpha  occ. eigenvalues --  -10.34954 -10.34827 -10.34729 -10.34684 -10.34613
 Alpha  occ. eigenvalues --  -10.34488 -10.34336 -10.33833 -10.33593 -10.33469
 Alpha  occ. eigenvalues --  -10.33271 -10.33015 -10.32815 -10.32788 -10.32651
 Alpha  occ. eigenvalues --  -10.32541 -10.32307 -10.32304 -10.32082 -10.32069
 Alpha  occ. eigenvalues --  -10.32067 -10.32056 -10.32054 -10.31863 -10.31683
 Alpha  occ. eigenvalues --  -10.31682 -10.31656 -10.31631 -10.31628 -10.31387
 Alpha  occ. eigenvalues --  -10.31380 -10.31308 -10.31302 -10.31117 -10.31019
 Alpha  occ. eigenvalues --  -10.30953 -10.30816 -10.30744 -10.30738 -10.30432
 Alpha  occ. eigenvalues --  -10.30419 -10.30405 -10.30267 -10.30243 -10.30034
 Alpha  occ. eigenvalues --  -10.29890 -10.29674 -10.29636 -10.29622 -10.29570
 Alpha  occ. eigenvalues --  -10.29251 -10.28933 -10.28899 -10.28758 -10.28328
 Alpha  occ. eigenvalues --  -10.28208  -3.22111  -3.20319  -1.95663  -1.95233
 Alpha  occ. eigenvalues --   -1.95060  -1.93929  -1.93416  -1.93342  -1.18441
 Alpha  occ. eigenvalues --   -1.16670  -1.15112  -1.12802  -1.11813  -1.11427
 Alpha  occ. eigenvalues --   -1.10728  -1.08975  -1.07621  -1.06778  -1.06212
 Alpha  occ. eigenvalues --   -1.06202  -1.05272  -1.05120  -1.04501  -1.03858
 Alpha  occ. eigenvalues --   -0.94126  -0.93558  -0.91145  -0.91131  -0.90723
 Alpha  occ. eigenvalues --   -0.90484  -0.90252  -0.90174  -0.89309  -0.89290
 Alpha  occ. eigenvalues --   -0.89100  -0.89078  -0.88207  -0.88018  -0.86250
 Alpha  occ. eigenvalues --   -0.85864  -0.85579  -0.85552  -0.84736  -0.84555
 Alpha  occ. eigenvalues --   -0.84436  -0.83888  -0.82924  -0.82766  -0.82350
 Alpha  occ. eigenvalues --   -0.82076  -0.80626  -0.80249  -0.79183  -0.79044
 Alpha  occ. eigenvalues --   -0.78997  -0.78610  -0.77800  -0.77790  -0.77037
 Alpha  occ. eigenvalues --   -0.76583  -0.74842  -0.74303  -0.73416  -0.73195
 Alpha  occ. eigenvalues --   -0.71711  -0.71174  -0.71163  -0.70770  -0.70194
 Alpha  occ. eigenvalues --   -0.69930  -0.68918  -0.68702  -0.67061  -0.66913
 Alpha  occ. eigenvalues --   -0.66618  -0.66220  -0.66214  -0.66072  -0.65999
 Alpha  occ. eigenvalues --   -0.65989  -0.63672  -0.63286  -0.62728  -0.62029
 Alpha  occ. eigenvalues --   -0.61585  -0.61492  -0.61158  -0.60787  -0.60301
 Alpha  occ. eigenvalues --   -0.60047  -0.59990  -0.59962  -0.59609  -0.59371
 Alpha  occ. eigenvalues --   -0.58032  -0.57874  -0.57831  -0.57692  -0.57394
 Alpha  occ. eigenvalues --   -0.57316  -0.56976  -0.56717  -0.56512  -0.55982
 Alpha  occ. eigenvalues --   -0.55922  -0.55657  -0.55610  -0.55368  -0.55280
 Alpha  occ. eigenvalues --   -0.54986  -0.54695  -0.54621  -0.54277  -0.54276
 Alpha  occ. eigenvalues --   -0.54121  -0.53771  -0.53660  -0.53171  -0.53125
 Alpha  occ. eigenvalues --   -0.52861  -0.52753  -0.52744  -0.52733  -0.52502
 Alpha  occ. eigenvalues --   -0.52263  -0.52218  -0.51938  -0.51854  -0.51451
 Alpha  occ. eigenvalues --   -0.51415  -0.51146  -0.51091  -0.51022  -0.50919
 Alpha  occ. eigenvalues --   -0.50827  -0.50651  -0.50520  -0.50505  -0.50446
 Alpha  occ. eigenvalues --   -0.50278  -0.49787  -0.49631  -0.49348  -0.49161
 Alpha  occ. eigenvalues --   -0.49056  -0.48831  -0.48711  -0.48387  -0.48210
 Alpha  occ. eigenvalues --   -0.47974  -0.47951  -0.47739  -0.47738  -0.47484
 Alpha  occ. eigenvalues --   -0.47446  -0.47355  -0.46892  -0.46616  -0.46541
 Alpha  occ. eigenvalues --   -0.46494  -0.46296  -0.46232  -0.45990  -0.45969
 Alpha  occ. eigenvalues --   -0.45918  -0.45629  -0.45555  -0.45473  -0.45304
 Alpha  occ. eigenvalues --   -0.45205  -0.45192  -0.44968  -0.44963  -0.44891
 Alpha  occ. eigenvalues --   -0.44504  -0.44467  -0.44316  -0.44062  -0.43949
 Alpha  occ. eigenvalues --   -0.43779  -0.43754  -0.43402  -0.43340  -0.42995
 Alpha  occ. eigenvalues --   -0.42896  -0.42791  -0.42467  -0.42458  -0.42127
 Alpha  occ. eigenvalues --   -0.42006  -0.41913  -0.41141  -0.41085  -0.40828
 Alpha  occ. eigenvalues --   -0.40235  -0.40025  -0.40012  -0.39829  -0.39485
 Alpha  occ. eigenvalues --   -0.39321  -0.38983  -0.38677  -0.38163  -0.37903
 Alpha  occ. eigenvalues --   -0.37658  -0.37651  -0.36583  -0.36477  -0.35928
 Alpha  occ. eigenvalues --   -0.35546  -0.35475  -0.35357  -0.34238  -0.33739
 Alpha  occ. eigenvalues --   -0.33426  -0.33017  -0.32755  -0.32615  -0.32194
 Alpha  occ. eigenvalues --   -0.32001  -0.31731  -0.31492  -0.25860  -0.25723
 Alpha  occ. eigenvalues --   -0.23251  -0.22836
 Alpha virt. eigenvalues --   -0.07210  -0.06986   0.00307   0.00625   0.01966
 Alpha virt. eigenvalues --    0.02484   0.04263   0.04539   0.04652   0.06571
 Alpha virt. eigenvalues --    0.06938   0.07025   0.07811   0.08003   0.08516

 Mulliken charges:
               1
     1  Mg   0.985998
     2  C   -0.033917
     3  C   -0.089478
     4  C   -0.081506
     5  C   -0.113063
     6  N   -0.312386
     7  C   -0.022013
     8  C   -0.084740
     9  C   -0.106225
    10  C    0.035590
    11  C    0.056886
    12  C    0.017378
    13  C   -0.109402
    14  H    0.037405
    15  N   -0.477435
    16  C    0.190106
    17  C   -0.158458
    18  C   -0.108855
    19  C    0.127335
    20  C    0.048982
    21  C    0.101644
    22  O   -0.227630
    23  C   -0.029517
    24  N   -0.378879
    25  C    0.080969
    26  C   -0.097541
    27  C   -0.032471
    28  C    0.052983
    29  C    0.021172
    30  C   -0.006321
    31  C   -0.048381
    32  N   -0.374743
    33  C    0.116131
    34  C   -0.174796
    35  C   -0.023304
    36  C    0.102073
    37  C    0.084903
    38  C    0.096571
    39  O   -0.204587
    40  C   -0.019832
    41  C    0.245595
    42  O   -0.251798
    43  O   -0.402693
    44  C    0.147372
    45  H    0.004649
    46  H    0.017877
    47  H   -0.007191
    48  H    0.021220
    49  H    0.004273
    50  H    0.035489
    51  H    0.070936
    52  H    0.036978
    53  H    0.035405
    54  H    0.041326
    55  H    0.045593
    56  H    0.053117
    57  H    0.040780
    58  H    0.065823
    59  H    0.031077
    60  H    0.059201
    61  H    0.056252
    62  H    0.081394
    63  H    0.037198
    64  H    0.030687
    65  H    0.038438
    66  H    0.045388
    67  H    0.041200
    68  H    0.033891
    69  H    0.028043
    70  H    0.018049
    71  H    0.047765
    72  H    0.040871
    73  H    0.015400
    74  H    0.065984
    75  H    0.046124
    76  H    0.068338
    77  H    0.063929
    78  H    0.057294
    79  H    0.048076
    80  Mg   0.948192
    81  C   -0.025513
    82  C   -0.065375
    83  C   -0.063914
    84  C   -0.102206
    85  N   -0.370900
    86  C   -0.015727
    87  C   -0.028435
    88  C   -0.134473
    89  C    0.098563
    90  C    0.020639
    91  C   -0.030100
    92  C   -0.123641
    93  H    0.053552
    94  N   -0.508433
    95  C    0.144537
    96  C   -0.142095
    97  C   -0.082440
    98  C    0.113032
    99  C    0.033083
   100  C    0.056494
   101  O   -0.199135
   102  C   -0.017946
   103  N   -0.306662
   104  C    0.065663
   105  C   -0.068806
   106  C   -0.047993
   107  C    0.007236
   108  C    0.036403
   109  C   -0.047560
   110  C   -0.031099
   111  N   -0.393402
   112  C    0.166278
   113  C   -0.184937
   114  C   -0.031346
   115  C    0.105777
   116  C    0.061915
   117  C    0.130897
   118  O   -0.210245
   119  C   -0.060558
   120  C    0.252709
   121  O   -0.228673
   122  O   -0.379421
   123  C    0.117910
   124  H   -0.017340
   125  H    0.026212
   126  H   -0.005191
   127  H    0.048815
   128  H    0.042227
   129  H    0.042675
   130  H    0.050089
   131  H    0.032127
   132  H    0.030230
   133  H    0.046369
   134  H    0.034836
   135  H    0.055880
   136  H    0.037121
   137  H    0.055407
   138  H    0.058268
   139  H    0.064509
   140  H    0.073693
   141  H    0.037413
   142  H    0.039952
   143  H    0.035204
   144  H    0.044158
   145  H    0.034836
   146  H    0.041323
   147  H    0.023716
   148  H    0.022404
   149  H    0.035775
   150  H    0.033365
   151  H    0.037200
   152  H    0.045441
   153  H    0.051367
   154  H    0.052644
   155  H    0.070895
   156  H    0.051491
   157  H    0.068784
   158  H    0.086264
 Sum of Mulliken charges =  -0.00000

 Dipole moment (field-independent basis, Debye):
    X=             -7.2825    Y=             -0.7939    Z=              5.2753  Tot=              9.0274
 Quadrupole moment (field-independent basis, Debye-Ang):
   XX=           -663.7981   YY=           -496.1974   ZZ=           -485.7363
   XY=             10.6729   XZ=           -113.5442   YZ=             45.2371

 Normal termination of Gaussian 16 at Mon Sep 20 19:34:19 2021.
