 Gaussian 16, Revision A.03,
 Gaussian 16:  ES64L-G16RevA.03 25-Dec-2016

 --------------------------------
 #p wB97XD/Def2SVP td=(nstates=5)
 --------------------------------

 --------------------------------
 TDDFT excited states in gaussian
 --------------------------------
 Symbolic Z-matrix:
 Charge =  0 Multiplicity = 1

                         Standard orientation:
 ---------------------------------------------------------------------
 Center     Atomic      Atomic             Coordinates (Angstroms)
 Number     Number       Type             X           Y           Z
 ---------------------------------------------------------------------
      1         12           0       17.664830   -0.619964    0.224778
      2          6           0       15.850497    2.285519    0.602138
      3          6           0       20.500344    1.277282    0.484318
      4          6           0       19.448844   -3.410765   -0.433348
      5          6           0       14.754729   -2.333602   -0.602197
      6          7           0       18.044215    1.614479    0.380502
      7          6           0       17.212170    2.526166    0.709179
      8          6           0       17.828447    3.983099    1.034647
      9          6           0       19.335303    3.666427    0.681495
     10          6           0       19.328553    2.087591    0.410383
     11          6           0       19.895131    4.393819   -0.650640
     12          6           0       17.609955    4.500865    2.522091
     13          6           0       17.472770    6.048891    2.744380
     14          1           0       17.813940    6.927774    1.579137
     15          7           0       19.635329   -1.030049    0.126523
     16          6           0       20.728849   -0.104331    0.351098
     17          6           0       21.969980   -0.867527    0.271026
     18          6           0       21.688465   -2.204433   -0.105646
     19          6           0       20.209893   -2.278139   -0.109429
     20          6           0       23.227551   -0.147361    0.601363
     21          6           0       22.622571   -3.414609   -0.340567
     22          8           0       22.288028   -4.484186   -0.755661
     23          6           0       24.126380   -3.115412   -0.175911
     24          7           0       17.238196   -2.605202   -0.535619
     25          6           0       18.093166   -3.559794   -0.725502
     26          6           0       17.447667   -4.775819   -1.448583
     27          6           0       15.930710   -4.474123   -1.397130
     28          6           0       15.935203   -3.050992   -0.790964
     29          6           0       18.008282   -4.932859   -2.878108
     30          6           0       15.135899   -5.542398   -0.585196
     31          6           0       15.000820   -6.911337   -1.271446
     32          7           0       15.663657   -0.158813    0.026458
     33          6           0       14.590911   -0.997693   -0.217956
     34          6           0       13.404938   -0.190609   -0.101740
     35          6           0       13.799334    1.150828    0.183765
     36          6           0       15.214070    1.047873    0.277119
     37          6           0       12.082472   -0.654331   -0.310297
     38          6           0       13.400672    2.486605    0.494559
     39          8           0       12.236408    2.986221    0.473266
     40          6           0       14.748668    3.289941    0.660057
     41          6           0       14.752830    4.336132   -0.340069
     42          8           0       15.075779    4.172604   -1.516383
     43          8           0       14.194681    5.448393    0.236879
     44          6           0       13.894652    6.518353   -0.737948
     45          1           0       21.422004    1.859710    0.537770
     46          1           0       20.090415   -4.277362   -0.610013
     47          1           0       13.863954   -2.934188   -0.800174
     48          1           0       17.389743    4.619638    0.265813
     49          1           0       19.984415    3.974873    1.500775
     50          1           0       19.038091    4.694325   -1.254034
     51          1           0       20.518284    3.699017   -1.213483
     52          1           0       20.517033    5.275992   -0.495156
     53          1           0       18.509985    4.170665    3.040074
     54          1           0       16.894212    3.944402    3.128182
     55          1           0       18.056530    6.425745    3.584117
     56          1           0       16.425163    6.288167    2.927281
     57          1           0       23.608406    0.381692   -0.272693
     58          1           0       23.951460   -0.771821    1.125106
     59          1           0       22.972793    0.598308    1.354099
     60          1           0       24.457200   -3.002647    0.857005
     61          1           0       24.224126   -2.195949   -0.752203
     62          1           0       24.806185   -3.821850   -0.651329
     63          1           0       17.705641   -5.602990   -0.787698
     64          1           0       15.541962   -4.385748   -2.411581
     65          1           0       18.410369   -4.026479   -3.331299
     66          1           0       17.318990   -5.230120   -3.669131
     67          1           0       18.799823   -5.677497   -2.794469
     68          1           0       14.117471   -5.184638   -0.440297
     69          1           0       15.590594   -5.671191    0.397611
     70          1           0       15.596406   -6.881451   -2.183863
     71          1           0       13.997988   -6.995967   -1.690364
     72          1           0       15.168609   -7.814811   -0.685697
     73          1           0       12.043188   -1.608031    0.216165
     74          1           0       11.798770   -0.858427   -1.342620
     75          1           0       11.389030    0.121190    0.016610
     76          1           0       14.640902    3.741666    1.646527
     77          1           0       13.106416    6.126604   -1.381461
     78          1           0       14.793545    6.878236   -1.237427
     79          1           0       13.486070    7.359249   -0.177324
     80         12           0      -17.339175   -0.797057    0.321451
     81          6           0      -17.644704    2.372320   -1.147039
     82          6           0      -16.341250    0.755826    3.227807
     83          6           0      -17.029259   -3.792469    1.671689
     84          6           0      -18.222134   -2.207845   -2.772536
     85          7           0      -17.130984    1.323380    0.927940
     86          6           0      -17.280155    2.491685    0.180393
     87          6           0      -17.315809    3.798949    1.065521
     88          6           0      -16.758824    3.221714    2.352484
     89          6           0      -16.741493    1.646648    2.180402
     90          6           0      -15.245740    3.684284    2.571261
     91          6           0      -18.869014    4.118301    1.219108
     92          6           0      -19.309111    5.644505    1.113673
     93          1           0      -18.222509    6.525731    1.674746
     94          7           0      -16.640332   -1.404402    2.095908
     95          6           0      -16.277521   -0.665356    3.140554
     96          6           0      -15.911370   -1.461322    4.282065
     97          6           0      -16.267763   -2.779844    3.936139
     98          6           0      -16.623677   -2.719941    2.468458
     99          6           0      -15.365954   -0.952449    5.565917
    100          6           0      -16.393219   -4.021720    4.794435
    101          8           0      -16.958802   -5.050780    4.407714
    102          6           0      -15.710599   -4.075197    6.164020
    103          7           0      -17.552464   -2.745855   -0.490242
    104          6           0      -17.421415   -3.808476    0.372381
    105          6           0      -17.849368   -5.079119   -0.358846
    106          6           0      -18.363369   -4.565133   -1.790954
    107          6           0      -18.102270   -3.084771   -1.697703
    108          6           0      -16.680282   -6.126176   -0.335717
    109          6           0      -19.786394   -4.930316   -2.183444
    110          6           0      -19.897024   -5.612698   -3.582833
    111          7           0      -17.808310   -0.076124   -1.573290
    112          6           0      -18.135476   -0.786026   -2.771053
    113          6           0      -18.346378    0.121986   -3.841342
    114          6           0      -18.161896    1.371924   -3.226646
    115          6           0      -17.792121    1.174406   -1.880060
    116          6           0      -18.727111   -0.119959   -5.266454
    117          6           0      -18.186763    2.784677   -3.432739
    118          8           0      -18.384979    3.468861   -4.409134
    119          6           0      -17.958107    3.467843   -2.054778
    120          6           0      -16.932135    4.531134   -2.208887
    121          8           0      -15.728166    4.388834   -2.402904
    122          8           0      -17.558311    5.699614   -2.038734
    123          6           0      -16.738321    6.892697   -2.061692
    124          1           0      -16.145965    1.115488    4.240082
    125          1           0      -16.896633   -4.753954    2.174064
    126          1           0      -18.559887   -2.599599   -3.734325
    127          1           0      -16.818556    4.558079    0.462522
    128          1           0      -17.399734    3.487328    3.192522
    129          1           0      -14.877608    4.303455    1.752973
    130          1           0      -14.624032    2.792581    2.649206
    131          1           0      -15.269780    4.221318    3.519543
    132          1           0      -19.283691    3.791940    2.172395
    133          1           0      -19.375868    3.519887    0.461622
    134          1           0      -20.121754    5.857475    1.808290
    135          1           0      -19.760458    5.865048    0.145987
    136          1           0      -16.138920   -1.118029    6.317624
    137          1           0      -15.173102    0.118482    5.520351
    138          1           0      -14.450907   -1.455503    5.877115
    139          1           0      -15.682353   -5.154878    6.309151
    140          1           0      -16.247790   -3.540584    6.948310
    141          1           0      -14.661489   -3.783918    6.211611
    142          1           0      -18.676308   -5.627583    0.092126
    143          1           0      -17.696080   -4.962689   -2.555770
    144          1           0      -17.142589   -7.075271   -0.064207
    145          1           0      -15.857555   -5.857478    0.326946
    146          1           0      -16.359411   -6.382492   -1.346082
    147          1           0      -20.485359   -4.094752   -2.163549
    148          1           0      -20.045204   -5.741123   -1.501014
    149          1           0      -18.907274   -5.817428   -3.991302
    150          1           0      -20.292971   -4.929228   -4.333689
    151          1           0      -20.457721   -6.545906   -3.525669
    152          1           0      -19.782655   -0.372689   -5.162428
    153          1           0      -18.060466   -0.898117   -5.637496
    154          1           0      -18.674421    0.783823   -5.871868
    155          1           0      -18.899314    3.991052   -1.880820
    156          1           0      -16.148043    6.920991   -2.978019
    157          1           0      -15.981133    6.983769   -1.282197
    158          1           0      -17.430482    7.734534   -2.036198
 ---------------------------------------------------------------------

 SCF Done:  E(RwB97XD) =  -4070.64749040     A.U. after   19 cycles

 Excitation energies and oscillator strengths:

 Excited State   1:      Singlet-A      1.6810 eV  737.55 nm  f=0.3835  <S**2>=0.000
     309 -> 316        0.16570
     312 -> 313        0.68556
     309 <- 316        0.10523
 This state for optimization and/or second-order correction.
 Total Energy, E(TD-HF/TD-DFT) =  -4070.58571359
 Copying the excited state density for this state as the 1-particle RhoCI density.

 Excited State   2:      Singlet-A      1.7221 eV  719.94 nm  f=0.3797  <S**2>=0.000
     310 -> 315        0.20374
     311 -> 314        0.67761
     310 <- 315        0.11868

 Excited State   3:      Singlet-A      2.1613 eV  573.66 nm  f=0.1070  <S**2>=0.000
     310 -> 314        0.64085
     311 -> 315       -0.28351

 Excited State   4:      Singlet-A      2.2342 eV  554.95 nm  f=0.1202  <S**2>=0.000
     309 -> 313        0.63518
     312 -> 316       -0.28425

 Excited State   5:      Singlet-A      3.4791 eV  356.37 nm  f=0.0348  <S**2>=0.000
     306 -> 320       -0.10567
     308 -> 313        0.60553
     308 -> 318       -0.13947
     308 -> 320       -0.13294
     312 -> 316       -0.21814

 The electronic state is 1-A.
 Alpha  occ. eigenvalues --  -46.94724 -46.94066 -19.30391 -19.29985 -19.25186
 Alpha  occ. eigenvalues --  -19.24966 -19.24213 -19.23669 -19.23268 -19.22328
 Alpha  occ. eigenvalues --  -14.46801 -14.46775 -14.46177 -14.46088 -14.44805
 Alpha  occ. eigenvalues --  -14.44322 -14.43482 -14.42978 -10.42357 -10.42084
 Alpha  occ. eigenvalues --  -10.40253 -10.40227 -10.38760 -10.37046 -10.35952
 Alpha  occ. eigenvalues --  -10.35915 -10.35098 -10.35031 -10.34965 -10.34793
 Alpha  occ. eigenvalues --  -10.34747 -10.34697 -10.34694 -10.34447 -10.34421
 Alpha  occ. eigenvalues --  -10.34408 -10.34290 -10.34006 -10.33608 -10.33243
 Alpha  occ. eigenvalues --  -10.33136 -10.33046 -10.32987 -10.32918 -10.32865
 Alpha  occ. eigenvalues --  -10.32816 -10.32454 -10.32343 -10.32227 -10.32118
 Alpha  occ. eigenvalues --  -10.32116 -10.31829 -10.31771 -10.31717 -10.31622
 Alpha  occ. eigenvalues --  -10.31583 -10.31566 -10.31561 -10.31376 -10.31135
 Alpha  occ. eigenvalues --  -10.31131 -10.31127 -10.31074 -10.31053 -10.31051
 Alpha  occ. eigenvalues --  -10.31015 -10.30650 -10.30638 -10.30544 -10.30506
 Alpha  occ. eigenvalues --  -10.30466 -10.30150 -10.30109 -10.30093 -10.30011
 Alpha  occ. eigenvalues --  -10.29903 -10.29854 -10.29567 -10.29541 -10.29503
 Alpha  occ. eigenvalues --  -10.29359 -10.29194 -10.29180 -10.28448 -10.28441
 Alpha  occ. eigenvalues --  -10.27492  -3.20768  -3.20184  -1.94352  -1.93898
 Alpha  occ. eigenvalues --   -1.93791  -1.93741  -1.93293  -1.93189  -1.19209
 Alpha  occ. eigenvalues --   -1.17650  -1.14747  -1.12582  -1.11483  -1.09375
 Alpha  occ. eigenvalues --   -1.09191  -1.08923  -1.07376  -1.07032  -1.06284
 Alpha  occ. eigenvalues --   -1.05849  -1.05452  -1.04866  -1.04306  -1.02924
 Alpha  occ. eigenvalues --   -0.94543  -0.94471  -0.91565  -0.91175  -0.90366
 Alpha  occ. eigenvalues --   -0.90254  -0.90238  -0.89847  -0.89703  -0.89369
 Alpha  occ. eigenvalues --   -0.88889  -0.88874  -0.88775  -0.88534  -0.85832
 Alpha  occ. eigenvalues --   -0.85825  -0.85371  -0.85326  -0.84211  -0.84203
 Alpha  occ. eigenvalues --   -0.83721  -0.83628  -0.83160  -0.82968  -0.82266
 Alpha  occ. eigenvalues --   -0.82222  -0.80863  -0.80515  -0.79287  -0.79277
 Alpha  occ. eigenvalues --   -0.78622  -0.78269  -0.77641  -0.77451  -0.76862
 Alpha  occ. eigenvalues --   -0.76748  -0.75034  -0.74171  -0.73423  -0.73338
 Alpha  occ. eigenvalues --   -0.71293  -0.71122  -0.70743  -0.70714  -0.70141
 Alpha  occ. eigenvalues --   -0.69560  -0.69281  -0.68986  -0.67730  -0.67320
 Alpha  occ. eigenvalues --   -0.67288  -0.67114  -0.66945  -0.66748  -0.66435
 Alpha  occ. eigenvalues --   -0.66057  -0.64376  -0.63515  -0.62779  -0.62026
 Alpha  occ. eigenvalues --   -0.61487  -0.61347  -0.61098  -0.61064  -0.60553
 Alpha  occ. eigenvalues --   -0.60245  -0.59834  -0.59655  -0.59606  -0.59228
 Alpha  occ. eigenvalues --   -0.58616  -0.57969  -0.57570  -0.57521  -0.57252
 Alpha  occ. eigenvalues --   -0.57145  -0.56427  -0.56305  -0.55866  -0.55701
 Alpha  occ. eigenvalues --   -0.55447  -0.55295  -0.55102  -0.55098  -0.54890
 Alpha  occ. eigenvalues --   -0.54664  -0.54502  -0.54427  -0.54011  -0.53993
 Alpha  occ. eigenvalues --   -0.53782  -0.53625  -0.53229  -0.53166  -0.53054
 Alpha  occ. eigenvalues --   -0.52973  -0.52832  -0.52639  -0.52636  -0.52341
 Alpha  occ. eigenvalues --   -0.52291  -0.52170  -0.51900  -0.51492  -0.51300
 Alpha  occ. eigenvalues --   -0.51150  -0.51044  -0.50821  -0.50561  -0.50468
 Alpha  occ. eigenvalues --   -0.50438  -0.50392  -0.50355  -0.50110  -0.49753
 Alpha  occ. eigenvalues --   -0.49736  -0.49683  -0.49510  -0.49410  -0.49049
 Alpha  occ. eigenvalues --   -0.48952  -0.48596  -0.48555  -0.48407  -0.48349
 Alpha  occ. eigenvalues --   -0.48260  -0.48132  -0.47955  -0.47940  -0.47517
 Alpha  occ. eigenvalues --   -0.47159  -0.47057  -0.46881  -0.46748  -0.46574
 Alpha  occ. eigenvalues --   -0.46428  -0.46336  -0.46292  -0.46189  -0.46180
 Alpha  occ. eigenvalues --   -0.46061  -0.45720  -0.45614  -0.45551  -0.45442
 Alpha  occ. eigenvalues --   -0.45148  -0.44931  -0.44866  -0.44850  -0.44653
 Alpha  occ. eigenvalues --   -0.44536  -0.44488  -0.44222  -0.44195  -0.43806
 Alpha  occ. eigenvalues --   -0.43638  -0.43610  -0.43492  -0.43365  -0.43071
 Alpha  occ. eigenvalues --   -0.42971  -0.42649  -0.42507  -0.42254  -0.42097
 Alpha  occ. eigenvalues --   -0.41929  -0.41686  -0.41572  -0.41249  -0.40672
 Alpha  occ. eigenvalues --   -0.40143  -0.40116  -0.39872  -0.39562  -0.39513
 Alpha  occ. eigenvalues --   -0.39315  -0.39032  -0.38835  -0.38533  -0.38397
 Alpha  occ. eigenvalues --   -0.38269  -0.38214  -0.36271  -0.36173  -0.35850
 Alpha  occ. eigenvalues --   -0.35821  -0.35597  -0.34911  -0.34262  -0.33800
 Alpha  occ. eigenvalues --   -0.33526  -0.33328  -0.33067  -0.32422  -0.32251
 Alpha  occ. eigenvalues --   -0.31625  -0.31285  -0.31253  -0.26000  -0.25575
 Alpha  occ. eigenvalues --   -0.23035  -0.22826
 Alpha virt. eigenvalues --   -0.06875  -0.06746   0.00242   0.00282   0.02046
 Alpha virt. eigenvalues --    0.02587   0.04221   0.05016   0.05720   0.06504
 Alpha virt. eigenvalues --    0.07674   0.08168   0.08309   0.08488   0.08844

 Mulliken charges:
               1
     1  Mg   0.972862
     2  C    0.036677
     3  C   -0.076530
     4  C   -0.083447
     5  C   -0.099923
     6  N   -0.274739
     7  C   -0.097074
     8  C   -0.014306
     9  C   -0.137621
    10  C    0.065885
    11  C    0.000625
    12  C    0.023652
    13  C   -0.131714
    14  H    0.035263
    15  N   -0.532153
    16  C    0.160553
    17  C   -0.146785
    18  C   -0.099967
    19  C    0.147743
    20  C    0.050259
    21  C    0.084633
    22  O   -0.192557
    23  C   -0.045181
    24  N   -0.332477
    25  C    0.039996
    26  C   -0.054399
    27  C   -0.067563
    28  C    0.054829
    29  C    0.016553
    30  C   -0.022556
    31  C   -0.039118
    32  N   -0.427639
    33  C    0.163590
    34  C   -0.180235
    35  C    0.016140
    36  C    0.116694
    37  C    0.057373
    38  C    0.086106
    39  O   -0.253816
    40  C   -0.075521
    41  C    0.267903
    42  O   -0.262053
    43  O   -0.366915
    44  C    0.144974
    45  H   -0.003022
    46  H    0.012720
    47  H   -0.006227
    48  H    0.049174
    49  H    0.040240
    50  H    0.048208
    51  H    0.038279
    52  H    0.039839
    53  H    0.016271
    54  H    0.039497
    55  H    0.057624
    56  H    0.064717
    57  H    0.067857
    58  H    0.043800
    59  H    0.042660
    60  H    0.070866
    61  H    0.053241
    62  H    0.049657
    63  H    0.038189
    64  H    0.035375
    65  H    0.043626
    66  H    0.034066
    67  H    0.050524
    68  H    0.028770
    69  H    0.032043
    70  H    0.024475
    71  H    0.026150
    72  H    0.050529
    73  H    0.038238
    74  H    0.050115
    75  H    0.057935
    76  H    0.063316
    77  H    0.068156
    78  H    0.056065
    79  H    0.049007
    80  Mg   0.983685
    81  C    0.006720
    82  C   -0.113427
    83  C   -0.075984
    84  C   -0.074169
    85  N   -0.350940
    86  C   -0.049234
    87  C   -0.050188
    88  C   -0.097947
    89  C    0.098234
    90  C    0.023310
    91  C    0.001675
    92  C   -0.114937
    93  H    0.031986
    94  N   -0.466335
    95  C    0.153995
    96  C   -0.174239
    97  C   -0.070290
    98  C    0.138033
    99  C    0.077905
   100  C    0.062868
   101  O   -0.243592
   102  C   -0.045664
   103  N   -0.389956
   104  C    0.116348
   105  C   -0.106947
   106  C   -0.048731
   107  C    0.073111
   108  C    0.009963
   109  C    0.001464
   110  C   -0.071379
   111  N   -0.414162
   112  C    0.082152
   113  C   -0.193405
   114  C   -0.037904
   115  C    0.139115
   116  C    0.088151
   117  C    0.083180
   118  O   -0.205377
   119  C   -0.074079
   120  C    0.226067
   121  O   -0.256739
   122  O   -0.333949
   123  C    0.142489
   124  H   -0.000089
   125  H    0.028400
   126  H   -0.008091
   127  H    0.049797
   128  H    0.040004
   129  H    0.052060
   130  H    0.043640
   131  H    0.040185
   132  H    0.030952
   133  H    0.043307
   134  H    0.042721
   135  H    0.062644
   136  H    0.053121
   137  H    0.041109
   138  H    0.058482
   139  H    0.058566
   140  H    0.065454
   141  H    0.052990
   142  H    0.043180
   143  H    0.032389
   144  H    0.027596
   145  H    0.060904
   146  H    0.025936
   147  H    0.049318
   148  H    0.028121
   149  H    0.020882
   150  H    0.037397
   151  H    0.045707
   152  H    0.054180
   153  H    0.052889
   154  H    0.061487
   155  H    0.067043
   156  H    0.054693
   157  H    0.045197
   158  H    0.056947
 Sum of Mulliken charges =  -0.00000

 Dipole moment (field-independent basis, Debye):
    X=              3.9411    Y=             -0.9339    Z=              7.6051  Tot=              8.6164
 Quadrupole moment (field-independent basis, Debye-Ang):
   XX=           -334.9019   YY=           -481.2898   ZZ=           -501.5977
   XY=             42.0849   XZ=            -41.7648   YZ=             38.5768

 Normal termination of Gaussian 16 at Mon Sep 20 11:04:38 2021.
