 Gaussian 16, Revision A.03,
 Gaussian 16:  ES64L-G16RevA.03 25-Dec-2016

 --------------------------------
 #p wB97XD/Def2SVP td=(nstates=5)
 --------------------------------

 --------------------------------
 TDDFT excited states in gaussian
 --------------------------------
 Symbolic Z-matrix:
 Charge =  0 Multiplicity = 1

                         Standard orientation:
 ---------------------------------------------------------------------
 Center     Atomic      Atomic             Coordinates (Angstroms)
 Number     Number       Type             X           Y           Z
 ---------------------------------------------------------------------
      1         12           0      -18.471776   -0.468169    0.338924
      2          6           0      -16.314967    2.206729   -0.381755
      3          6           0      -20.275983    0.362850   -2.417264
      4          6           0      -20.122134   -3.238682    0.883873
      5          6           0      -15.903025   -1.547953    2.619711
      6          7           0      -18.328166    1.131174   -1.142242
      7          6           0      -17.369136    2.096654   -1.264492
      8          6           0      -17.522750    2.753569   -2.644424
      9          6           0      -19.006009    2.542822   -2.927651
     10          6           0      -19.180892    1.205039   -2.183548
     11          6           0      -19.897473    3.653717   -2.326119
     12          6           0      -16.603615    2.059776   -3.716671
     13          6           0      -15.388738    2.904960   -4.343515
     14          1           0      -13.948339    2.403385   -4.144157
     15          7           0      -19.952350   -1.353789   -0.662260
     16          6           0      -20.587994   -0.845632   -1.771786
     17          6           0      -21.711441   -1.680354   -2.062548
     18          6           0      -21.810922   -2.701947   -1.060933
     19          6           0      -20.604202   -2.486093   -0.211044
     20          6           0      -22.672955   -1.437316   -3.275944
     21          6           0      -22.979944   -3.747356   -0.955589
     22          8           0      -23.919287   -3.669071   -1.686071
     23          6           0      -23.024072   -4.618150    0.212777
     24          7           0      -17.906689   -2.312199    1.351509
     25          6           0      -18.972153   -3.080740    1.680321
     26          6           0      -18.786986   -3.833984    2.986944
     27          6           0      -17.325362   -3.584821    3.326343
     28          6           0      -16.994524   -2.392801    2.362457
     29          6           0      -19.754437   -3.337401    4.124183
     30          6           0      -16.269564   -4.781662    3.199789
     31          6           0      -15.670465   -5.447842    4.409275
     32          7           0      -16.637731    0.247603    1.151240
     33          6           0      -15.711803   -0.285060    2.057435
     34          6           0      -14.550451    0.566653    2.196951
     35          6           0      -14.768225    1.563519    1.277924
     36          6           0      -16.027813    1.350456    0.626892
     37          6           0      -13.399348    0.306679    3.076889
     38          6           0      -14.196642    2.775309    0.710864
     39          8           0      -13.170161    3.387359    1.030968
     40          6           0      -15.207849    3.292466   -0.290547
     41          6           0      -15.665410    4.663334    0.195668
     42          8           0      -16.181726    4.799795    1.302455
     43          8           0      -15.298737    5.678906   -0.701055
     44          6           0      -15.670242    7.005526   -0.287073
     45          1           0      -20.918109    0.748690   -3.211385
     46          1           0      -20.870729   -3.954230    1.227492
     47          1           0      -15.183764   -1.825536    3.393324
     48          1           0      -17.136932    3.769088   -2.551716
     49          1           0      -19.137510    2.481099   -4.007210
     50          1           0      -20.484428    3.887743   -3.213586
     51          1           0      -19.199653    4.440164   -2.037259
     52          1           0      -20.520787    3.378677   -1.475191
     53          1           0      -17.237030    1.804000   -4.565972
     54          1           0      -16.267387    1.111395   -3.298345
     55          1           0      -15.411998    3.864344   -3.826103
     56          1           0      -15.495344    3.137304   -5.402443
     57          1           0      -22.895581   -2.280463   -3.929156
     58          1           0      -22.196344   -0.660430   -3.874652
     59          1           0      -23.643864   -1.046245   -2.971280
     60          1           0      -22.139827   -5.242523    0.342562
     61          1           0      -23.900236   -5.260965    0.128202
     62          1           0      -23.303576   -4.045984    1.096364
     63          1           0      -19.025121   -4.894355    2.896821
     64          1           0      -17.235915   -3.176040    4.332835
     65          1           0      -20.635750   -3.966849    4.246211
     66          1           0      -19.966092   -2.277266    3.984916
     67          1           0      -19.202132   -3.404382    5.062606
     68          1           0      -15.472589   -4.686270    2.463126
     69          1           0      -16.973483   -5.488792    2.760159
     70          1           0      -15.978030   -6.485975    4.530873
     71          1           0      -15.978380   -4.914713    5.309079
     72          1           0      -14.594696   -5.366666    4.255312
     73          1           0      -13.343693   -0.769920    3.240215
     74          1           0      -13.649708    0.775771    4.028823
     75          1           0      -12.488271    0.756713    2.685206
     76          1           0      -14.608197    3.400597   -1.193316
     77          1           0      -16.725497    7.244450   -0.421853
     78          1           0      -15.107672    7.766063   -0.827819
     79          1           0      -15.453427    7.227731    0.757428
     80         12           0       18.479069   -0.422868   -0.319315
     81          6           0       15.515175    1.311271   -0.626009
     82          6           0       19.469149    2.096510    2.025972
     83          6           0       21.451499   -1.764064   -0.181416
     84          6           0       17.527750   -2.589620   -2.842286
     85          7           0       17.612214    1.639058    0.430018
     86          6           0       16.332416    1.952569    0.317202
     87          6           0       15.913823    2.984287    1.402528
     88          6           0       17.323965    3.556400    1.783494
     89          6           0       18.245960    2.384153    1.411500
     90          6           0       17.672690    4.866248    0.991078
     91          6           0       15.234668    2.171058    2.526901
     92          6           0       14.593021    2.977566    3.664119
     93          1           0       14.854927    4.465330    3.785642
     94          7           0       20.195695   -0.049970    0.792468
     95          6           0       20.372760    1.024797    1.730266
     96          6           0       21.637579    0.763034    2.403442
     97          6           0       22.171101   -0.435103    1.833730
     98          6           0       21.287624   -0.801104    0.727593
     99          6           0       22.229147    1.633730    3.573962
    100          6           0       23.434743   -1.224641    2.310583
    101          8           0       23.809263   -2.147542    1.640350
    102          6           0       24.169951   -0.809975    3.543577
    103          7           0       19.339549   -2.037291   -1.314326
    104          6           0       20.614313   -2.429592   -1.092222
    105          6           0       21.060115   -3.575053   -2.000335
    106          6           0       19.750008   -3.917450   -2.746943
    107          6           0       18.791432   -2.754097   -2.264478
    108          6           0       22.254563   -3.249625   -2.970564
    109          6           0       19.229185   -5.326616   -2.623038
    110          6           0       19.137910   -6.032590   -1.248687
    111          7           0       16.893439   -0.661543   -1.544416
    112          6           0       16.617244   -1.579900   -2.516541
    113          6           0       15.256295   -1.344868   -2.950624
    114          6           0       14.722084   -0.224682   -2.225554
    115          6           0       15.802049    0.154370   -1.382050
    116          6           0       14.559961   -2.155224   -3.998992
    117          6           0       13.623968    0.666008   -2.053756
    118          8           0       12.505467    0.754932   -2.605459
    119          6           0       14.262436    1.870345   -1.169439
    120          6           0       13.164270    2.332055   -0.210038
    121          8           0       12.561317    1.641750    0.519477
    122          8           0       12.985966    3.674154   -0.390593
    123          6           0       12.271948    4.409170    0.633107
    124          1           0       19.788670    2.903275    2.688227
    125          1           0       22.443626   -2.219241   -0.212831
    126          1           0       17.174552   -3.227829   -3.654009
    127          1           0       15.314516    3.796286    0.990976
    128          1           0       17.255622    3.695896    2.862638
    129          1           0       17.564076    5.726578    1.650335
    130          1           0       16.999110    4.926740    0.136034
    131          1           0       18.708186    4.907622    0.653117
    132          1           0       16.010903    1.578594    3.010506
    133          1           0       14.560060    1.411412    2.133195
    134          1           0       14.611298    2.457488    4.622130
    135          1           0       13.521858    2.876922    3.488241
    136          1           0       23.265418    1.921521    3.394243
    137          1           0       22.096527    1.036930    4.476228
    138          1           0       21.597906    2.509391    3.729883
    139          1           0       24.595956   -1.756762    3.876309
    140          1           0       23.502569   -0.504576    4.348640
    141          1           0       24.797724    0.081050    3.542022
    142          1           0       21.356501   -4.372614   -1.319415
    143          1           0       19.800252   -3.703184   -3.814471
    144          1           0       22.047621   -3.807737   -3.883295
    145          1           0       23.107391   -3.662753   -2.431543
    146          1           0       22.389988   -2.171862   -3.060502
    147          1           0       20.060434   -5.871760   -3.068927
    148          1           0       18.291006   -5.564906   -3.125296
    149          1           0       19.727848   -6.934697   -1.092091
    150          1           0       18.142851   -6.443795   -1.078944
    151          1           0       19.436646   -5.333492   -0.467449
    152          1           0       13.585643   -1.685474   -4.130625
    153          1           0       14.376522   -3.164909   -3.629141
    154          1           0       15.124232   -2.313657   -4.917541
    155          1           0       14.571116    2.617236   -1.901149
    156          1           0       11.583272    4.818284   -0.106256
    157          1           0       12.905755    5.073318    1.221111
    158          1           0       11.703772    3.784860    1.323174
 ---------------------------------------------------------------------

 SCF Done:  E(RwB97XD) =  -4070.60903158     A.U. after   19 cycles

 Excitation energies and oscillator strengths:

 Excited State   1:      Singlet-A      1.6667 eV  743.89 nm  f=0.4250  <S**2>=0.000
     309 -> 315       -0.19669
     312 -> 314        0.67820
     309 <- 315       -0.12016
 This state for optimization and/or second-order correction.
 Total Energy, E(TD-HF/TD-DFT) =  -4070.54778130
 Copying the excited state density for this state as the 1-particle RhoCI density.

 Excited State   2:      Singlet-A      1.6763 eV  739.62 nm  f=0.3110  <S**2>=0.000
     310 -> 316       -0.20100
     311 -> 313        0.67599
     310 <- 316       -0.11991

 Excited State   3:      Singlet-A      2.1629 eV  573.23 nm  f=0.0891  <S**2>=0.000
     310 -> 313        0.63319
     311 -> 316        0.30172

 Excited State   4:      Singlet-A      2.2261 eV  556.95 nm  f=0.0509  <S**2>=0.000
     309 -> 314        0.60366
     312 -> 315        0.35678

 Excited State   5:      Singlet-A      3.3456 eV  370.59 nm  f=0.0452  <S**2>=0.000
     302 -> 313        0.24612
     302 -> 317       -0.17700
     304 -> 313       -0.41145
     304 -> 317        0.24652
     304 -> 320        0.11284
     306 -> 313        0.15832
     308 -> 313       -0.18536
     311 -> 316       -0.18035

 The electronic state is 1-A.
 Alpha  occ. eigenvalues --  -46.94992 -46.94591 -19.31250 -19.29608 -19.25518
 Alpha  occ. eigenvalues --  -19.25168 -19.24111 -19.24051 -19.24033 -19.23814
 Alpha  occ. eigenvalues --  -14.46691 -14.46640 -14.46306 -14.46272 -14.43953
 Alpha  occ. eigenvalues --  -14.43938 -14.43885 -14.43880 -10.44115 -10.42752
 Alpha  occ. eigenvalues --  -10.39182 -10.39122 -10.38945 -10.38572 -10.35220
 Alpha  occ. eigenvalues --  -10.35179 -10.35136 -10.35103 -10.34836 -10.34725
 Alpha  occ. eigenvalues --  -10.34656 -10.34615 -10.34566 -10.34532 -10.34423
 Alpha  occ. eigenvalues --  -10.34290 -10.33800 -10.33664 -10.33506 -10.33358
 Alpha  occ. eigenvalues --  -10.33237 -10.32940 -10.32779 -10.32722 -10.32589
 Alpha  occ. eigenvalues --  -10.32558 -10.32451 -10.32162 -10.32134 -10.32109
 Alpha  occ. eigenvalues --  -10.31908 -10.31906 -10.31904 -10.31882 -10.31826
 Alpha  occ. eigenvalues --  -10.31788 -10.31747 -10.31710 -10.31684 -10.31618
 Alpha  occ. eigenvalues --  -10.31607 -10.31526 -10.31174 -10.30988 -10.30904
 Alpha  occ. eigenvalues --  -10.30898 -10.30868 -10.30697 -10.30683 -10.30567
 Alpha  occ. eigenvalues --  -10.30502 -10.30374 -10.30325 -10.30115 -10.30092
 Alpha  occ. eigenvalues --  -10.30080 -10.30051 -10.30039 -10.29832 -10.29828
 Alpha  occ. eigenvalues --  -10.29687 -10.29460 -10.29391 -10.29164 -10.29058
 Alpha  occ. eigenvalues --  -10.28910  -3.21037  -3.20656  -1.94603  -1.94248
 Alpha  occ. eigenvalues --   -1.94176  -1.94005  -1.93798  -1.93616  -1.19762
 Alpha  occ. eigenvalues --   -1.18132  -1.14069  -1.13683  -1.11994  -1.11315
 Alpha  occ. eigenvalues --   -1.10427  -1.10270  -1.07206  -1.06744  -1.06241
 Alpha  occ. eigenvalues --   -1.06068  -1.05094  -1.04875  -1.04074  -1.04073
 Alpha  occ. eigenvalues --   -0.95022  -0.95019  -0.91196  -0.90976  -0.90807
 Alpha  occ. eigenvalues --   -0.90576  -0.90419  -0.90371  -0.89535  -0.89229
 Alpha  occ. eigenvalues --   -0.89014  -0.88381  -0.87578  -0.86899  -0.86466
 Alpha  occ. eigenvalues --   -0.86106  -0.85966  -0.85594  -0.84426  -0.84410
 Alpha  occ. eigenvalues --   -0.84299  -0.83638  -0.83355  -0.82971  -0.82789
 Alpha  occ. eigenvalues --   -0.82228  -0.79922  -0.79912  -0.79249  -0.79138
 Alpha  occ. eigenvalues --   -0.78714  -0.78304  -0.78183  -0.77804  -0.77422
 Alpha  occ. eigenvalues --   -0.77008  -0.74840  -0.74661  -0.74075  -0.73965
 Alpha  occ. eigenvalues --   -0.72158  -0.70916  -0.70845  -0.70560  -0.70063
 Alpha  occ. eigenvalues --   -0.70063  -0.68719  -0.68165  -0.67754  -0.67525
 Alpha  occ. eigenvalues --   -0.67137  -0.66845  -0.66828  -0.66436  -0.66262
 Alpha  occ. eigenvalues --   -0.66107  -0.64690  -0.64327  -0.62462  -0.62172
 Alpha  occ. eigenvalues --   -0.62015  -0.61609  -0.61125  -0.61069  -0.60843
 Alpha  occ. eigenvalues --   -0.60803  -0.60447  -0.60137  -0.59860  -0.59671
 Alpha  occ. eigenvalues --   -0.58183  -0.58104  -0.58080  -0.58027  -0.57617
 Alpha  occ. eigenvalues --   -0.57264  -0.57213  -0.56854  -0.56173  -0.55884
 Alpha  occ. eigenvalues --   -0.55605  -0.55443  -0.55443  -0.55069  -0.54903
 Alpha  occ. eigenvalues --   -0.54877  -0.54680  -0.54582  -0.54295  -0.54186
 Alpha  occ. eigenvalues --   -0.54090  -0.53985  -0.53691  -0.53690  -0.52916
 Alpha  occ. eigenvalues --   -0.52776  -0.52694  -0.52627  -0.52348  -0.52059
 Alpha  occ. eigenvalues --   -0.52046  -0.51888  -0.51700  -0.51603  -0.51541
 Alpha  occ. eigenvalues --   -0.51474  -0.51230  -0.51218  -0.51195  -0.51003
 Alpha  occ. eigenvalues --   -0.50730  -0.50573  -0.50226  -0.50159  -0.50060
 Alpha  occ. eigenvalues --   -0.49982  -0.49879  -0.49543  -0.49403  -0.48996
 Alpha  occ. eigenvalues --   -0.48804  -0.48528  -0.48481  -0.48446  -0.48270
 Alpha  occ. eigenvalues --   -0.48173  -0.48002  -0.47901  -0.47861  -0.47738
 Alpha  occ. eigenvalues --   -0.47517  -0.47339  -0.47246  -0.47145  -0.46920
 Alpha  occ. eigenvalues --   -0.46601  -0.46350  -0.46206  -0.46059  -0.45776
 Alpha  occ. eigenvalues --   -0.45758  -0.45492  -0.45273  -0.45230  -0.45186
 Alpha  occ. eigenvalues --   -0.44994  -0.44890  -0.44833  -0.44611  -0.44501
 Alpha  occ. eigenvalues --   -0.44346  -0.44246  -0.44053  -0.44032  -0.43936
 Alpha  occ. eigenvalues --   -0.43851  -0.43772  -0.43614  -0.43554  -0.43489
 Alpha  occ. eigenvalues --   -0.43315  -0.42963  -0.42835  -0.42723  -0.42567
 Alpha  occ. eigenvalues --   -0.42253  -0.42096  -0.41916  -0.41472  -0.41309
 Alpha  occ. eigenvalues --   -0.40859  -0.40280  -0.39904  -0.39834  -0.39544
 Alpha  occ. eigenvalues --   -0.39430  -0.39150  -0.39132  -0.38584  -0.38548
 Alpha  occ. eigenvalues --   -0.38355  -0.37739  -0.37156  -0.36795  -0.36680
 Alpha  occ. eigenvalues --   -0.35926  -0.35702  -0.35553  -0.33651  -0.33515
 Alpha  occ. eigenvalues --   -0.33163  -0.33003  -0.32908  -0.32485  -0.32287
 Alpha  occ. eigenvalues --   -0.32003  -0.31783  -0.31492  -0.26285  -0.25713
 Alpha  occ. eigenvalues --   -0.22886  -0.22765
 Alpha virt. eigenvalues --   -0.06772  -0.06619  -0.00295   0.00043   0.02256
 Alpha virt. eigenvalues --    0.02628   0.04639   0.04732   0.05225   0.06122
 Alpha virt. eigenvalues --    0.06401   0.07515   0.08023   0.08245   0.08523

 Mulliken charges:
               1
     1  Mg   0.956624
     2  C   -0.054751
     3  C   -0.098104
     4  C   -0.053068
     5  C   -0.094305
     6  N   -0.331542
     7  C   -0.023852
     8  C   -0.115101
     9  C   -0.115599
    10  C    0.039102
    11  C    0.060850
    12  C    0.025489
    13  C   -0.134670
    14  H    0.045011
    15  N   -0.518588
    16  C    0.210471
    17  C   -0.172937
    18  C   -0.106235
    19  C    0.151594
    20  C    0.083385
    21  C    0.062088
    22  O   -0.196938
    23  C   -0.021453
    24  N   -0.326697
    25  C    0.062297
    26  C   -0.102097
    27  C   -0.070053
    28  C    0.069801
    29  C    0.021108
    30  C   -0.022394
    31  C   -0.034784
    32  N   -0.429078
    33  C    0.127826
    34  C   -0.206672
    35  C   -0.016820
    36  C    0.192943
    37  C    0.097470
    38  C    0.099214
    39  O   -0.220757
    40  C   -0.022098
    41  C    0.288756
    42  O   -0.244409
    43  O   -0.362487
    44  C    0.139857
    45  H    0.001567
    46  H   -0.029269
    47  H   -0.001517
    48  H    0.017284
    49  H    0.023677
    50  H    0.042876
    51  H    0.038768
    52  H    0.055088
    53  H    0.032682
    54  H    0.055684
    55  H    0.047930
    56  H    0.058776
    57  H    0.056006
    58  H    0.011832
    59  H    0.051485
    60  H    0.070931
    61  H    0.041957
    62  H    0.069524
    63  H    0.033417
    64  H    0.024298
    65  H    0.046083
    66  H    0.041554
    67  H    0.029627
    68  H    0.044046
    69  H    0.016320
    70  H    0.044019
    71  H    0.026300
    72  H    0.041644
    73  H    0.036709
    74  H    0.058270
    75  H    0.066148
    76  H    0.061153
    77  H    0.042268
    78  H    0.050459
    79  H    0.054005
    80  Mg   0.965730
    81  C   -0.025785
    82  C   -0.077117
    83  C   -0.088070
    84  C   -0.117622
    85  N   -0.288332
    86  C   -0.035960
    87  C   -0.084049
    88  C   -0.089710
    89  C    0.019731
    90  C    0.040472
    91  C    0.000403
    92  C   -0.089424
    93  H    0.044152
    94  N   -0.478625
    95  C    0.175981
    96  C   -0.189419
    97  C   -0.081148
    98  C    0.188702
    99  C    0.062469
   100  C    0.064863
   101  O   -0.213743
   102  C   -0.007259
   103  N   -0.342016
   104  C    0.014516
   105  C   -0.099261
   106  C   -0.054326
   107  C    0.091062
   108  C    0.035517
   109  C   -0.009968
   110  C   -0.072559
   111  N   -0.486652
   112  C    0.144457
   113  C   -0.184401
   114  C   -0.030981
   115  C    0.180605
   116  C    0.067909
   117  C    0.153315
   118  O   -0.233638
   119  C   -0.147509
   120  C    0.242930
   121  O   -0.185811
   122  O   -0.368654
   123  C    0.110518
   124  H    0.003770
   125  H    0.009593
   126  H   -0.005507
   127  H    0.019591
   128  H    0.022933
   129  H    0.039847
   130  H    0.043894
   131  H    0.040330
   132  H    0.025748
   133  H    0.065876
   134  H    0.042732
   135  H    0.038211
   136  H    0.059010
   137  H    0.057761
   138  H    0.030220
   139  H    0.058125
   140  H    0.020572
   141  H    0.069240
   142  H    0.047922
   143  H    0.031229
   144  H    0.046293
   145  H    0.047881
   146  H    0.054226
   147  H    0.029190
   148  H    0.040702
   149  H    0.032748
   150  H    0.032888
   151  H    0.039582
   152  H    0.062313
   153  H    0.042940
   154  H    0.047392
   155  H    0.085742
   156  H    0.070165
   157  H    0.062593
   158  H    0.062958
 Sum of Mulliken charges =  -0.00000

 Dipole moment (field-independent basis, Debye):
    X=              2.0261    Y=             -0.1260    Z=              3.7771  Tot=              4.2881
 Quadrupole moment (field-independent basis, Debye-Ang):
   XX=           -401.4727   YY=           -464.7611   ZZ=           -479.2585
   XY=             22.6827   XZ=              4.6118   YZ=            -13.0999

 Normal termination of Gaussian 16 at Mon Sep 20 16:15:51 2021.
