 Gaussian 16, Revision A.03,
 Gaussian 16:  ES64L-G16RevA.03 25-Dec-2016

 --------------------------------
 #p wB97XD/Def2SVP td=(nstates=5)
 --------------------------------

 --------------------------------
 TDDFT excited states in gaussian
 --------------------------------
 Symbolic Z-matrix:
 Charge =  0 Multiplicity = 1

                         Standard orientation:
 ---------------------------------------------------------------------
 Center     Atomic      Atomic             Coordinates (Angstroms)
 Number     Number       Type             X           Y           Z
 ---------------------------------------------------------------------
      1         12           0      -28.953686    0.298686   -0.110330
      2          6           0      -25.840117   -1.149080    0.098317
      3          6           0      -30.498084   -2.756043   -0.006093
      4          6           0      -32.115025    1.807689   -0.126346
      5          6           0      -27.591465    3.384722    0.629229
      6          7           0      -28.172439   -1.691532    0.250185
      7          6           0      -26.850516   -2.128810    0.130202
      8          6           0      -26.744699   -3.645859    0.305250
      9          6           0      -28.229276   -4.030637    0.081660
     10          6           0      -29.076142   -2.746438    0.194698
     11          6           0      -28.453376   -4.862375   -1.200166
     12          6           0      -26.198113   -4.036794    1.692612
     13          6           0      -25.154297   -5.205607    1.738060
     14          1           0      -25.162706   -6.041173    2.958177
     15          7           0      -30.963356   -0.382259   -0.125776
     16          6           0      -31.390283   -1.665010   -0.171673
     17          6           0      -32.788979   -1.778599   -0.458301
     18          6           0      -33.269367   -0.470739   -0.635910
     19          6           0      -32.075080    0.415986   -0.316027
     20          6           0      -33.519186   -3.103035   -0.690020
     21          6           0      -34.734927   -0.040493   -1.006412
     22          8           0      -35.618121   -0.932546   -1.083317
     23          6           0      -35.151814    1.448584   -1.373131
     24          7           0      -29.770205    2.269000    0.504444
     25          6           0      -31.047791    2.648991    0.259311
     26          6           0      -31.253822    4.136266    0.390116
     27          6           0      -29.831711    4.662645    0.680470
     28          6           0      -28.994843    3.386169    0.563639
     29          6           0      -31.976941    4.805497   -0.825478
     30          6           0      -29.726012    5.474788    2.058120
     31          6           0      -29.614632    6.995353    1.897474
     32          7           0      -27.104149    1.027024    0.232346
     33          6           0      -26.641291    2.334484    0.498567
     34          6           0      -25.175287    2.356392    0.409715
     35          6           0      -24.853434    1.025927    0.180335
     36          6           0      -26.044564    0.282236    0.212236
     37          6           0      -24.222359    3.488278    0.556010
     38          6           0      -23.722710    0.106491   -0.010944
     39          8           0      -22.523146    0.311081   -0.259618
     40          6           0      -24.323655   -1.352250   -0.117864
     41          6           0      -24.011489   -1.983618   -1.467987
     42          8           0      -24.108490   -1.463938   -2.584190
     43          8           0      -23.538795   -3.219172   -1.138665
     44          6           0      -22.985021   -4.012309   -2.223288
     45          1           0      -31.002067   -3.724329    0.020315
     46          1           0      -33.028231    2.401760   -0.201838
     47          1           0      -27.095840    4.331644    0.852401
     48          1           0      -26.064965   -4.053211   -0.443904
     49          1           0      -28.449006   -4.676813    0.931472
     50          1           0      -27.616660   -5.402401   -1.643261
     51          1           0      -28.740545   -4.142602   -1.966543
     52          1           0      -29.236623   -5.609603   -1.074758
     53          1           0      -26.986758   -4.235314    2.417864
     54          1           0      -25.796203   -3.110827    2.104601
     55          1           0      -24.153903   -4.790410    1.616201
     56          1           0      -25.379520   -5.899456    0.926948
     57          1           0      -33.964097   -3.020858   -1.681428
     58          1           0      -34.139837   -3.336619    0.175128
     59          1           0      -32.720019   -3.838963   -0.778129
     60          1           0      -35.346251    1.948278   -0.424856
     61          1           0      -36.074317    1.370945   -1.948037
     62          1           0      -34.398574    1.811627   -2.072890
     63          1           0      -31.893911    4.310405    1.255118
     64          1           0      -29.363136    5.253018   -0.106582
     65          1           0      -31.476328    5.722658   -1.134587
     66          1           0      -33.016386    5.052997   -0.610845
     67          1           0      -32.049827    4.082332   -1.636723
     68          1           0      -28.834528    5.213678    2.628219
     69          1           0      -30.552878    5.204348    2.714730
     70          1           0      -30.197456    7.490107    2.674615
     71          1           0      -29.998396    7.290892    0.921248
     72          1           0      -28.593754    7.372613    1.954432
     73          1           0      -24.812144    4.400498    0.646283
     74          1           0      -23.435201    3.411173   -0.194278
     75          1           0      -23.775596    3.374466    1.544291
     76          1           0      -23.984587   -2.001763    0.689585
     77          1           0      -23.589144   -4.002752   -3.131395
     78          1           0      -22.765267   -5.058533   -2.010712
     79          1           0      -22.002387   -3.625855   -2.495024
     80         12           0       28.473904    0.614937   -0.535067
     81          6           0       27.956243   -2.623106    0.609550
     82          6           0       25.776887    1.686418    1.498792
     83          6           0       29.608104    3.754713   -0.674882
     84          6           0       31.509854   -0.501707   -1.936775
     85          7           0       27.218986   -0.355968    1.206948
     86          6           0       27.061858   -1.720696    1.241040
     87          6           0       25.954124   -2.122829    2.163422
     88          6           0       25.099824   -0.775149    2.242876
     89          6           0       26.074661    0.299607    1.644232
     90          6           0       23.678056   -0.795659    1.484701
     91          6           0       26.548602   -2.734662    3.534442
     92          6           0       25.671040   -3.657303    4.216228
     93          1           0       25.382268   -3.268067    5.681565
     94          7           0       27.721423    2.479353    0.123433
     95          6           0       26.585567    2.711536    0.948625
     96          6           0       26.439868    4.149741    1.097044
     97          6           0       27.528029    4.791495    0.457167
     98          6           0       28.311737    3.664084   -0.150666
     99          6           0       25.388689    4.749440    1.954654
    100          6           0       27.787599    6.355767    0.488989
    101          8           0       26.969324    7.042782    1.098438
    102          6           0       28.795386    7.027340   -0.437525
    103          7           0       30.334163    1.431504   -1.120968
    104          6           0       30.464853    2.780828   -1.185022
    105          6           0       31.970207    3.254593   -1.675824
    106          6           0       32.500889    1.871472   -2.289785
    107          6           0       31.423074    0.848611   -1.809949
    108          6           0       32.011402    4.396663   -2.760538
    109          6           0       33.896546    1.489439   -1.793176
    110          6           0       35.061742    1.274894   -2.788728
    111          7           0       29.375490   -1.207609   -0.894661
    112          6           0       30.565634   -1.496502   -1.496733
    113          6           0       30.698956   -2.922415   -1.614383
    114          6           0       29.672617   -3.396442   -0.713380
    115          6           0       28.938784   -2.277196   -0.284767
    116          6           0       31.837890   -3.663759   -2.252731
    117          6           0       29.172249   -4.584748   -0.054299
    118          8           0       29.415284   -5.735258   -0.258382
    119          6           0       27.940947   -4.166530    0.840276
    120          6           0       26.583746   -4.744298    0.381994
    121          8           0       26.158784   -4.688558   -0.751966
    122          8           0       25.974070   -5.426457    1.455080
    123          6           0       24.788309   -6.170937    1.155607
    124          1           0       24.894030    1.942261    2.087010
    125          1           0       30.130266    4.704316   -0.541786
    126          1           0       32.451412   -0.803024   -2.399520
    127          1           0       25.227012   -2.775835    1.679620
    128          1           0       24.926687   -0.548887    3.295602
    129          1           0       22.939405   -0.599379    2.261751
    130          1           0       23.479831   -1.740831    0.980219
    131          1           0       23.700090    0.032538    0.775798
    132          1           0       26.688153   -1.853599    4.160600
    133          1           0       27.519516   -3.096201    3.194666
    134          1           0       26.167513   -4.626253    4.179951
    135          1           0       24.699868   -3.684075    3.722130
    136          1           0       24.626282    4.019548    2.226278
    137          1           0       24.841488    5.508917    1.395646
    138          1           0       25.808483    5.137584    2.882970
    139          1           0       29.831252    6.757016   -0.230158
    140          1           0       28.653967    8.104778   -0.346384
    141          1           0       28.526360    6.754752   -1.458089
    142          1           0       32.477919    3.474839   -0.737171
    143          1           0       32.432499    1.794302   -3.375116
    144          1           0       32.444490    5.298238   -2.328276
    145          1           0       30.996527    4.617908   -3.093128
    146          1           0       32.627906    4.024959   -3.579693
    147          1           0       33.862594    0.634674   -1.118039
    148          1           0       34.323849    2.176499   -1.062969
    149          1           0       35.431956    0.257672   -2.919269
    150          1           0       35.897510    1.830692   -2.362978
    151          1           0       34.804229    1.639989   -3.783686
    152          1           0       31.487922   -4.678228   -2.445313
    153          1           0       32.636443   -3.958687   -1.572700
    154          1           0       32.291810   -3.164479   -3.108348
    155          1           0       28.189944   -4.598413    1.810000
    156          1           0       24.295642   -6.144577    2.128098
    157          1           0       24.998968   -7.228073    0.994734
    158          1           0       24.263673   -5.741425    0.303095
 ---------------------------------------------------------------------

 SCF Done:  E(RwB97XD) =  -4070.59954067     A.U. after   19 cycles

 Excitation energies and oscillator strengths:

 Excited State   1:      Singlet-A      1.6352 eV  758.21 nm  f=0.3876  <S**2>=0.000
     309 -> 316       -0.17852
     311 -> 313        0.68607
     309 <- 316       -0.11658
 This state for optimization and/or second-order correction.
 Total Energy, E(TD-HF/TD-DFT) =  -4070.53944712
 Copying the excited state density for this state as the 1-particle RhoCI density.

 Excited State   2:      Singlet-A      1.6650 eV  744.65 nm  f=0.3628  <S**2>=0.000
     310 -> 315        0.17867
     312 -> 314        0.68381
     310 <- 315        0.11336

 Excited State   3:      Singlet-A      2.1962 eV  564.55 nm  f=0.1081  <S**2>=0.000
     309 -> 313        0.62902
     311 -> 316        0.29157

 Excited State   4:      Singlet-A      2.1966 eV  564.45 nm  f=0.0874  <S**2>=0.000
     310 -> 314        0.61788
     312 -> 315       -0.31453

 Excited State   5:      Singlet-A      3.3903 eV  365.71 nm  f=0.0210  <S**2>=0.000
     304 -> 313        0.56161
     307 -> 313       -0.12490
     308 -> 313       -0.35071
     311 -> 316       -0.15660

 The electronic state is 1-A.
 Alpha  occ. eigenvalues --  -46.96140 -46.95530 -19.31578 -19.30338 -19.25646
 Alpha  occ. eigenvalues --  -19.25210 -19.24793 -19.24754 -19.23474 -19.23237
 Alpha  occ. eigenvalues --  -14.47030 -14.46916 -14.46759 -14.46603 -14.44876
 Alpha  occ. eigenvalues --  -14.44825 -14.43675 -14.43617 -10.43932 -10.43809
 Alpha  occ. eigenvalues --  -10.40766 -10.40408 -10.38756 -10.37965 -10.36327
 Alpha  occ. eigenvalues --  -10.35897 -10.35784 -10.35746 -10.35697 -10.35289
 Alpha  occ. eigenvalues --  -10.35241 -10.35166 -10.35115 -10.35107 -10.34527
 Alpha  occ. eigenvalues --  -10.34517 -10.34445 -10.34433 -10.33642 -10.33590
 Alpha  occ. eigenvalues --  -10.33345 -10.32768 -10.32713 -10.32702 -10.32687
 Alpha  occ. eigenvalues --  -10.32559 -10.32551 -10.32540 -10.32404 -10.32335
 Alpha  occ. eigenvalues --  -10.32246 -10.32203 -10.32139 -10.32088 -10.32066
 Alpha  occ. eigenvalues --  -10.32015 -10.32000 -10.31986 -10.31981 -10.31790
 Alpha  occ. eigenvalues --  -10.31773 -10.31714 -10.31698 -10.31673 -10.31410
 Alpha  occ. eigenvalues --  -10.31395 -10.31003 -10.30940 -10.30838 -10.30733
 Alpha  occ. eigenvalues --  -10.30635 -10.30574 -10.30513 -10.30486 -10.30355
 Alpha  occ. eigenvalues --  -10.30351 -10.30265 -10.30199 -10.29940 -10.29795
 Alpha  occ. eigenvalues --  -10.29658 -10.29562 -10.29518 -10.29416 -10.28622
 Alpha  occ. eigenvalues --  -10.28570  -3.22024  -3.21507  -1.95555  -1.95197
 Alpha  occ. eigenvalues --   -1.95061  -1.94955  -1.94616  -1.94504  -1.19018
 Alpha  occ. eigenvalues --   -1.18219  -1.12979  -1.12547  -1.10913  -1.10910
 Alpha  occ. eigenvalues --   -1.10545  -1.09951  -1.06887  -1.06675  -1.06030
 Alpha  occ. eigenvalues --   -1.05593  -1.04960  -1.04375  -1.04174  -1.03625
 Alpha  occ. eigenvalues --   -0.94182  -0.93361  -0.91093  -0.90818  -0.90720
 Alpha  occ. eigenvalues --   -0.90568  -0.90258  -0.90059  -0.89190  -0.88962
 Alpha  occ. eigenvalues --   -0.88796  -0.88393  -0.88376  -0.87756  -0.86238
 Alpha  occ. eigenvalues --   -0.85987  -0.85773  -0.85232  -0.84608  -0.84409
 Alpha  occ. eigenvalues --   -0.84152  -0.83576  -0.83090  -0.83089  -0.82215
 Alpha  occ. eigenvalues --   -0.82140  -0.79869  -0.79744  -0.79437  -0.79290
 Alpha  occ. eigenvalues --   -0.78695  -0.78681  -0.78042  -0.77811  -0.77246
 Alpha  occ. eigenvalues --   -0.76884  -0.74697  -0.74643  -0.73720  -0.73322
 Alpha  occ. eigenvalues --   -0.71133  -0.71125  -0.70918  -0.70403  -0.69835
 Alpha  occ. eigenvalues --   -0.69397  -0.69286  -0.68468  -0.68050  -0.67841
 Alpha  occ. eigenvalues --   -0.67077  -0.66977  -0.66825  -0.66573  -0.66444
 Alpha  occ. eigenvalues --   -0.66090  -0.64786  -0.64667  -0.61914  -0.61689
 Alpha  occ. eigenvalues --   -0.61612  -0.61427  -0.60974  -0.60945  -0.60604
 Alpha  occ. eigenvalues --   -0.60517  -0.59970  -0.59699  -0.59446  -0.59221
 Alpha  occ. eigenvalues --   -0.58323  -0.57997  -0.57732  -0.57275  -0.57240
 Alpha  occ. eigenvalues --   -0.56964  -0.56934  -0.56678  -0.55918  -0.55718
 Alpha  occ. eigenvalues --   -0.55327  -0.55172  -0.55112  -0.54770  -0.54668
 Alpha  occ. eigenvalues --   -0.54541  -0.54490  -0.54403  -0.54031  -0.53915
 Alpha  occ. eigenvalues --   -0.53684  -0.53579  -0.53532  -0.53292  -0.53173
 Alpha  occ. eigenvalues --   -0.53043  -0.52947  -0.52785  -0.52697  -0.52149
 Alpha  occ. eigenvalues --   -0.52005  -0.51866  -0.51671  -0.51571  -0.51381
 Alpha  occ. eigenvalues --   -0.51245  -0.51139  -0.51037  -0.51026  -0.50702
 Alpha  occ. eigenvalues --   -0.50432  -0.50355  -0.50247  -0.50089  -0.49915
 Alpha  occ. eigenvalues --   -0.49790  -0.49753  -0.49691  -0.49400  -0.49212
 Alpha  occ. eigenvalues --   -0.49121  -0.48983  -0.48911  -0.48823  -0.48515
 Alpha  occ. eigenvalues --   -0.48343  -0.48293  -0.48068  -0.47980  -0.47872
 Alpha  occ. eigenvalues --   -0.47566  -0.47455  -0.47160  -0.47153  -0.46872
 Alpha  occ. eigenvalues --   -0.46737  -0.46727  -0.46419  -0.46354  -0.46075
 Alpha  occ. eigenvalues --   -0.46013  -0.45886  -0.45705  -0.45660  -0.45459
 Alpha  occ. eigenvalues --   -0.45440  -0.45343  -0.45208  -0.45064  -0.44934
 Alpha  occ. eigenvalues --   -0.44712  -0.44608  -0.44514  -0.44415  -0.44375
 Alpha  occ. eigenvalues --   -0.44163  -0.44101  -0.43896  -0.43493  -0.43375
 Alpha  occ. eigenvalues --   -0.43079  -0.42940  -0.42872  -0.42720  -0.42507
 Alpha  occ. eigenvalues --   -0.42348  -0.41699  -0.41612  -0.41275  -0.40686
 Alpha  occ. eigenvalues --   -0.40601  -0.40294  -0.40165  -0.40074  -0.39682
 Alpha  occ. eigenvalues --   -0.39421  -0.39029  -0.38918  -0.38664  -0.38389
 Alpha  occ. eigenvalues --   -0.38224  -0.37556  -0.36852  -0.36780  -0.36737
 Alpha  occ. eigenvalues --   -0.36232  -0.35525  -0.35282  -0.33749  -0.33572
 Alpha  occ. eigenvalues --   -0.33440  -0.33310  -0.32697  -0.32419  -0.32409
 Alpha  occ. eigenvalues --   -0.31945  -0.31928  -0.31284  -0.26246  -0.26137
 Alpha  occ. eigenvalues --   -0.22971  -0.22906
 Alpha virt. eigenvalues --   -0.07109  -0.06919  -0.00126   0.00266   0.02236
 Alpha virt. eigenvalues --    0.02527   0.04059   0.04269   0.04508   0.04811
 Alpha virt. eigenvalues --    0.06743   0.07100   0.07151   0.07410   0.08444

 Mulliken charges:
               1
     1  Mg   0.973319
     2  C   -0.080602
     3  C   -0.110044
     4  C   -0.086158
     5  C   -0.082908
     6  N   -0.403984
     7  C   -0.008482
     8  C   -0.052747
     9  C   -0.092049
    10  C    0.125870
    11  C    0.013994
    12  C    0.023140
    13  C   -0.127672
    14  H    0.043595
    15  N   -0.430288
    16  C    0.152949
    17  C   -0.190512
    18  C   -0.078389
    19  C    0.194502
    20  C    0.116168
    21  C    0.044316
    22  O   -0.256204
    23  C   -0.009249
    24  N   -0.324917
    25  C    0.022937
    26  C   -0.076413
    27  C   -0.052246
    28  C    0.038381
    29  C    0.010523
    30  C   -0.007598
    31  C   -0.058077
    32  N   -0.440831
    33  C    0.101336
    34  C   -0.206381
    35  C   -0.044034
    36  C    0.153182
    37  C    0.107346
    38  C    0.155510
    39  O   -0.229702
    40  C   -0.059824
    41  C    0.289174
    42  O   -0.247456
    43  O   -0.356450
    44  C    0.133483
    45  H    0.007815
    46  H   -0.019738
    47  H   -0.011109
    48  H    0.025035
    49  H    0.032695
    50  H    0.036834
    51  H    0.034837
    52  H    0.038401
    53  H    0.030651
    54  H    0.030143
    55  H    0.066458
    56  H    0.049599
    57  H    0.065679
    58  H    0.072158
    59  H    0.012163
    60  H    0.080686
    61  H    0.058289
    62  H    0.060683
    63  H    0.046735
    64  H    0.034046
    65  H    0.046868
    66  H    0.033548
    67  H    0.037721
    68  H    0.032978
    69  H    0.028778
    70  H    0.039097
    71  H    0.028609
    72  H    0.041138
    73  H    0.021221
    74  H    0.075385
    75  H    0.050507
    76  H    0.064463
    77  H    0.055247
    78  H    0.052200
    79  H    0.053675
    80  Mg   0.961004
    81  C   -0.078439
    82  C   -0.075626
    83  C   -0.094044
    84  C   -0.091026
    85  N   -0.325390
    86  C   -0.039316
    87  C   -0.084364
    88  C   -0.134130
    89  C    0.034667
    90  C    0.014953
    91  C    0.052822
    92  C   -0.094171
    93  H    0.019835
    94  N   -0.466650
    95  C    0.174793
    96  C   -0.161780
    97  C   -0.102819
    98  C    0.203924
    99  C    0.095295
   100  C    0.076012
   101  O   -0.234451
   102  C   -0.028096
   103  N   -0.403805
   104  C    0.073664
   105  C   -0.123910
   106  C   -0.024110
   107  C    0.034386
   108  C    0.024329
   109  C   -0.029733
   110  C   -0.054245
   111  N   -0.416367
   112  C    0.139628
   113  C   -0.160902
   114  C   -0.085617
   115  C    0.221810
   116  C    0.066563
   117  C    0.108972
   118  O   -0.181753
   119  C   -0.079657
   120  C    0.276342
   121  O   -0.220981
   122  O   -0.387234
   123  C    0.130546
   124  H    0.011445
   125  H   -0.019698
   126  H   -0.007333
   127  H    0.027342
   128  H    0.037137
   129  H    0.043872
   130  H    0.052440
   131  H    0.042183
   132  H    0.036910
   133  H    0.036986
   134  H    0.063388
   135  H    0.049679
   136  H    0.010713
   137  H    0.056813
   138  H    0.066390
   139  H    0.071070
   140  H    0.057622
   141  H    0.067763
   142  H    0.055933
   143  H    0.043568
   144  H    0.039922
   145  H    0.046126
   146  H    0.045227
   147  H    0.031551
   148  H    0.018900
   149  H    0.040051
   150  H    0.034067
   151  H    0.032258
   152  H    0.049866
   153  H    0.043563
   154  H    0.043552
   155  H    0.072446
   156  H    0.046058
   157  H    0.054211
   158  H    0.067053
 Sum of Mulliken charges =  -0.00000

 Dipole moment (field-independent basis, Debye):
    X=             -1.6487    Y=              3.4315    Z=             -0.0364  Tot=              3.8072
 Quadrupole moment (field-independent basis, Debye-Ang):
   XX=           -327.0821   YY=           -497.1144   ZZ=           -511.1721
   XY=             60.2114   XZ=            -41.1682   YZ=            -12.4050

 Normal termination of Gaussian 16 at Mon Sep 20 16:44:30 2021.
