 Gaussian 16, Revision A.03,
 Gaussian 16:  ES64L-G16RevA.03 25-Dec-2016

 --------------------------------
 #p wB97XD/Def2SVP td=(nstates=5)
 --------------------------------

 --------------------------------
 TDDFT excited states in gaussian
 --------------------------------
 Symbolic Z-matrix:
 Charge =  0 Multiplicity = 1

                         Standard orientation:
 ---------------------------------------------------------------------
 Center     Atomic      Atomic             Coordinates (Angstroms)
 Number     Number       Type             X           Y           Z
 ---------------------------------------------------------------------
      1         12           0        0.675377    0.204888   -0.109655
      2          6           0       -2.728843    0.317183   -0.277950
      3          6           0        0.483683   -3.323030   -0.285640
      4          6           0        3.996189    0.036366    0.286631
      5          6           0        0.741296    3.637796   -0.011830
      6          7           0       -0.917181   -1.336812    0.053133
      7          6           0       -2.266643   -1.020048   -0.148547
      8          6           0       -3.159683   -2.291591   -0.208640
      9          6           0       -2.047795   -3.371679   -0.135770
     10          6           0       -0.717139   -2.645975   -0.051876
     11          6           0       -2.100119   -4.548544    0.929251
     12          6           0       -4.090119   -2.454256   -1.490193
     13          6           0       -4.903623   -3.775734   -1.452939
     14          1           0       -6.393425   -3.560435   -1.182785
     15          7           0        2.078006   -1.464076   -0.060949
     16          6           0        1.788956   -2.771777   -0.386677
     17          6           0        3.043408   -3.501092   -0.242280
     18          6           0        4.060145   -2.507943   -0.067217
     19          6           0        3.419256   -1.235180    0.040480
     20          6           0        3.087292   -4.974250   -0.378280
     21          6           0        5.575067   -2.860242    0.136449
     22          8           0        6.434832   -2.031735    0.498815
     23          6           0        6.045917   -4.281219   -0.032708
     24          7           0        2.074484    1.550975    0.123034
     25          6           0        3.458816    1.264913    0.289084
     26          6           0        4.216081    2.495754    0.733460
     27          6           0        3.302335    3.582696    0.170596
     28          6           0        1.948136    2.903475    0.023893
     29          6           0        4.382759    2.583556    2.287731
     30          6           0        3.743836    4.070732   -1.227324
     31          6           0        4.780084    5.159029   -1.312677
     32          7           0       -0.662108    1.773761   -0.092610
     33          6           0       -0.517412    3.103998   -0.204999
     34          6           0       -1.809868    3.722995   -0.220517
     35          6           0       -2.719892    2.688558   -0.271706
     36          6           0       -1.969009    1.503321   -0.235176
     37          6           0       -1.990687    5.199573   -0.283455
     38          6           0       -4.089940    2.408447   -0.349518
     39          8           0       -5.060775    3.135156   -0.437561
     40          6           0       -4.164175    0.809720   -0.359613
     41          6           0       -5.024899    0.385582    0.777263
     42          8           0       -4.782308    0.490957    1.954899
     43          8           0       -6.093925   -0.291892    0.348205
     44          6           0       -7.024284   -0.825453    1.416384
     45          1           0        0.353551   -4.385552   -0.500761
     46          1           0        5.080345   -0.002395    0.410051
     47          1           0        0.685936    4.723314   -0.113477
     48          1           0       -3.770976   -2.326027    0.693213
     49          1           0       -1.986276   -3.893008   -1.091504
     50          1           0       -1.738473   -5.520684    0.593150
     51          1           0       -3.071992   -4.556258    1.423033
     52          1           0       -1.354767   -4.263720    1.671712
     53          1           0       -3.390847   -2.361975   -2.320313
     54          1           0       -4.767266   -1.601089   -1.529074
     55          1           0       -4.428071   -4.485995   -0.776563
     56          1           0       -4.848243   -4.199198   -2.455361
     57          1           0        3.314904   -5.393612    0.601921
     58          1           0        3.773151   -5.174955   -1.201348
     59          1           0        2.128842   -5.359495   -0.726516
     60          1           0        7.128414   -4.329403    0.085570
     61          1           0        5.869566   -4.488994   -1.088983
     62          1           0        5.561395   -5.040377    0.580750
     63          1           0        5.215720    2.521807    0.298820
     64          1           0        3.198111    4.444799    0.829078
     65          1           0        3.444693    2.858918    2.768145
     66          1           0        5.167058    3.296159    2.544400
     67          1           0        4.703098    1.589683    2.598351
     68          1           0        2.906537    4.373687   -1.854731
     69          1           0        4.107125    3.223319   -1.808881
     70          1           0        5.620573    4.744072   -1.868263
     71          1           0        5.134923    5.239041   -0.285045
     72          1           0        4.407356    6.112310   -1.687769
     73          1           0       -2.163142    5.516553   -1.311254
     74          1           0       -1.264898    5.833617    0.226708
     75          1           0       -2.928587    5.390171    0.238482
     76          1           0       -4.611893    0.495194   -1.302615
     77          1           0       -6.406918   -1.368464    2.132334
     78          1           0       -7.754742   -1.538575    1.033402
     79          1           0       -7.515078    0.027981    1.884737
 ---------------------------------------------------------------------

 SCF Done:  E(RwB97XD) =  -2035.32821470     A.U. after   19 cycles

 Excitation energies and oscillator strengths:

 Excited State   1:      Singlet-A      1.5970 eV  776.37 nm  f=0.3901  <S**2>=0.000
     155 ->158        -0.16570
     156 ->157         0.68827
     155 <-158        -0.11239
 This state for optimization and/or second-order correction.
 Total Energy, E(TD-HF/TD-DFT) =  -2035.26952734
 Copying the excited state density for this state as the 1-particle RhoCI density.

 Excited State   2:      Singlet-A      2.1949 eV  564.87 nm  f=0.1057  <S**2>=0.000
     155 ->157         0.63719
     156 ->158         0.28944

 Excited State   3:      Singlet-A      3.2155 eV  385.58 nm  f=0.0018  <S**2>=0.000
     154 ->157         0.67726

 Excited State   4:      Singlet-A      3.4913 eV  355.13 nm  f=0.2077  <S**2>=0.000
     151 ->157         0.17408
     151 ->159        -0.12236
     152 ->157         0.44809
     153 ->157        -0.11631
     155 ->157         0.15534
     156 ->158        -0.44150

 Excited State   5:      Singlet-A      3.5074 eV  353.49 nm  f=0.0944  <S**2>=0.000
     151 ->157         0.53066
     151 ->158        -0.11766
     151 ->159        -0.30129
     151 ->160         0.14145
     155 ->157        -0.10206
     156 ->158         0.24806

 The electronic state is 1-A.
 Alpha  occ. eigenvalues --  -46.93869 -19.30166 -19.24506 -19.23715 -19.23565
 Alpha  occ. eigenvalues --  -14.47353 -14.46381 -14.43496 -14.43449 -10.42394
 Alpha  occ. eigenvalues --  -10.39182 -10.39018 -10.36154 -10.36083 -10.35419
 Alpha  occ. eigenvalues --  -10.34541 -10.34042 -10.33556 -10.33480 -10.33270
 Alpha  occ. eigenvalues --  -10.33049 -10.33039 -10.32690 -10.32667 -10.32287
 Alpha  occ. eigenvalues --  -10.32164 -10.31885 -10.31809 -10.31533 -10.31408
 Alpha  occ. eigenvalues --  -10.31368 -10.31173 -10.30742 -10.30682 -10.30425
 Alpha  occ. eigenvalues --  -10.30394 -10.30104 -10.29693 -10.29604 -10.29527
 Alpha  occ. eigenvalues --  -10.29508 -10.29116 -10.28909  -3.20055  -1.93654
 Alpha  occ. eigenvalues --   -1.93199  -1.93029  -1.19116  -1.12749  -1.10471
 Alpha  occ. eigenvalues --   -1.09371  -1.07534  -1.05948  -1.05110  -1.03991
 Alpha  occ. eigenvalues --   -0.95374  -0.90958  -0.90686  -0.90565  -0.89889
 Alpha  occ. eigenvalues --   -0.89131  -0.88499  -0.86299  -0.85859  -0.84436
 Alpha  occ. eigenvalues --   -0.83515  -0.83183  -0.82594  -0.80358  -0.79493
 Alpha  occ. eigenvalues --   -0.79160  -0.78164  -0.77151  -0.75245  -0.73799
 Alpha  occ. eigenvalues --   -0.71445  -0.70945  -0.70235  -0.68066  -0.67786
 Alpha  occ. eigenvalues --   -0.66893  -0.66656  -0.66170  -0.64121  -0.62225
 Alpha  occ. eigenvalues --   -0.62038  -0.61144  -0.60887  -0.60336  -0.60013
 Alpha  occ. eigenvalues --   -0.58546  -0.58014  -0.57035  -0.56703  -0.56226
 Alpha  occ. eigenvalues --   -0.55401  -0.55341  -0.54845  -0.54664  -0.54243
 Alpha  occ. eigenvalues --   -0.53745  -0.53606  -0.53286  -0.52305  -0.52190
 Alpha  occ. eigenvalues --   -0.51943  -0.51847  -0.51695  -0.51191  -0.50895
 Alpha  occ. eigenvalues --   -0.50699  -0.50182  -0.49998  -0.49702  -0.49452
 Alpha  occ. eigenvalues --   -0.49099  -0.48852  -0.48464  -0.48422  -0.47967
 Alpha  occ. eigenvalues --   -0.47866  -0.47460  -0.47236  -0.46668  -0.46191
 Alpha  occ. eigenvalues --   -0.45696  -0.45685  -0.45501  -0.45286  -0.44821
 Alpha  occ. eigenvalues --   -0.43923  -0.43736  -0.43552  -0.43545  -0.43116
 Alpha  occ. eigenvalues --   -0.42841  -0.42565  -0.42305  -0.41976  -0.41749
 Alpha  occ. eigenvalues --   -0.40327  -0.40047  -0.39406  -0.39048  -0.38679
 Alpha  occ. eigenvalues --   -0.38584  -0.36268  -0.36010  -0.35480  -0.33694
 Alpha  occ. eigenvalues --   -0.33304  -0.32823  -0.32444  -0.31259  -0.26554
 Alpha  occ. eigenvalues --   -0.22938
 Alpha virt. eigenvalues --   -0.07438   0.00358   0.02433   0.04460   0.06363
 Alpha virt. eigenvalues --    0.07286   0.07985   0.08376   0.09516   0.10349
 Alpha virt. eigenvalues --    0.11250   0.12186   0.12908   0.13693   0.13992

 Mulliken charges:
               1
     1  Mg   0.971142
     2  C   -0.006157
     3  C   -0.072461
     4  C   -0.076296
     5  C   -0.099557
     6  N   -0.340956
     7  C   -0.009342
     8  C   -0.022433
     9  C   -0.153829
    10  C    0.065496
    11  C    0.013345
    12  C   -0.005965
    13  C   -0.111438
    14  H    0.047875
    15  N   -0.435233
    16  C    0.162734
    17  C   -0.218545
    18  C   -0.077926
    19  C    0.134352
    20  C    0.083862
    21  C    0.066601
    22  O   -0.256636
    23  C   -0.006752
    24  N   -0.468423
    25  C    0.098749
    26  C   -0.069406
    27  C   -0.080667
    28  C    0.140056
    29  C    0.040728
    30  C   -0.043652
    31  C   -0.003971
    32  N   -0.428039
    33  C    0.106770
    34  C   -0.178923
    35  C    0.017641
    36  C    0.136961
    37  C    0.064716
    38  C    0.098812
    39  O   -0.191647
    40  C   -0.123741
    41  C    0.249390
    42  O   -0.247089
    43  O   -0.362904
    44  C    0.139190
    45  H   -0.004138
    46  H    0.019904
    47  H   -0.001733
    48  H    0.044519
    49  H    0.034731
    50  H    0.042247
    51  H    0.043408
    52  H    0.037650
    53  H    0.035425
    54  H    0.054606
    55  H    0.050966
    56  H    0.052990
    57  H    0.065752
    58  H    0.049287
    59  H    0.025682
    60  H    0.051268
    61  H    0.045783
    62  H    0.060795
    63  H    0.028074
    64  H    0.023077
    65  H    0.041819
    66  H    0.042125
    67  H    0.041576
    68  H    0.022334
    69  H    0.020621
    70  H    0.035338
    71  H    0.017905
    72  H    0.051248
    73  H    0.062385
    74  H    0.045002
    75  H    0.051490
    76  H    0.073877
    77  H    0.057980
    78  H    0.059952
    79  H    0.069623
 Sum of Mulliken charges =  -0.00000

 Dipole moment (field-independent basis, Debye):
    X=              0.0372    Y=             -3.2263    Z=             -2.1268  Tot=              3.8644
 Quadrupole moment (field-independent basis, Debye-Ang):
   XX=           -273.7775   YY=           -223.5066   ZZ=           -257.3594
   XY=             25.8070   XZ=             -4.6151   YZ=              1.3606

 Normal termination of Gaussian 16 at Mon Sep 20 04:38:50 2021.
