 Gaussian 16, Revision A.03,
 Gaussian 16:  ES64L-G16RevA.03 25-Dec-2016

 --------------------------------
 #p wB97XD/Def2SVP td=(nstates=5)
 --------------------------------

 --------------------------------
 TDDFT excited states in gaussian
 --------------------------------
 Symbolic Z-matrix:
 Charge =  0 Multiplicity = 1

                         Standard orientation:
 ---------------------------------------------------------------------
 Center     Atomic      Atomic             Coordinates (Angstroms)
 Number     Number       Type             X           Y           Z
 ---------------------------------------------------------------------
      1         12           0       17.002495    0.573653   -0.225875
      2          6           0       16.234264   -2.144159    1.721714
      3          6           0       14.211450    2.152908    0.987982
      4          6           0       17.700181    3.285703   -2.271887
      5          6           0       19.546279   -1.228529   -1.742998
      6          7           0       15.332148    0.056614    1.180390
      7          6           0       15.326256   -1.100096    1.906623
      8          6           0       14.202219   -1.133683    2.824874
      9          6           0       13.382423    0.107248    2.508574
     10          6           0       14.323461    0.846141    1.459644
     11          6           0       11.918406   -0.071028    1.976775
     12          6           0       14.674396   -1.217542    4.316365
     13          6           0       13.759744   -2.014095    5.309787
     14          1           0       12.252255   -2.064760    4.992697
     15          7           0       16.118046    2.504885   -0.484843
     16          6           0       14.965980    2.947265    0.142422
     17          6           0       14.669337    4.319333   -0.316830
     18          6           0       15.704103    4.675841   -1.285311
     19          6           0       16.578597    3.493315   -1.371414
     20          6           0       13.473160    5.142183    0.133057
     21          6           0       15.919874    6.014128   -1.952574
     22          8           0       16.905883    6.166504   -2.694874
     23          6           0       15.013477    7.180383   -1.820848
     24          7           0       18.367784    0.961182   -1.844615
     25          6           0       18.475245    2.146676   -2.451416
     26          6           0       19.689504    2.168374   -3.394723
     27          6           0       20.483901    0.789231   -3.066657
     28          6           0       19.430737    0.161783   -2.086900
     29          6           0       19.250706    2.332712   -4.882479
     30          6           0       21.857929    0.960219   -2.362653
     31          6           0       23.087397    0.578059   -3.200357
     32          7           0       17.738956   -1.337520   -0.129346
     33          6           0       18.782658   -1.956101   -0.821497
     34          6           0       18.943169   -3.352682   -0.359394
     35          6           0       17.931070   -3.431333    0.626147
     36          6           0       17.231199   -2.198596    0.718784
     37          6           0       19.927472   -4.332707   -0.771952
     38          6           0       17.384499   -4.306666    1.683598
     39          8           0       17.706957   -5.402167    2.059948
     40          6           0       16.235780   -3.509223    2.397886
     41          6           0       15.013452   -4.328260    2.368484
     42          8           0       14.398629   -4.498231    1.303293
     43          8           0       14.568481   -4.738371    3.587900
     44          6           0       13.260274   -5.379221    3.677683
     45          1           0       13.316474    2.628226    1.394873
     46          1           0       17.881412    4.135004   -2.934295
     47          1           0       20.435125   -1.710449   -2.155260
     48          1           0       13.610672   -2.020731    2.595732
     49          1           0       13.394542    0.813331    3.339692
     50          1           0       11.465257   -1.055602    1.856669
     51          1           0       11.852264    0.426805    1.009672
     52          1           0       11.178516    0.493842    2.544397
     53          1           0       14.884852   -0.215377    4.690020
     54          1           0       15.701738   -1.580633    4.338278
     55          1           0       13.872833   -1.618358    6.319491
     56          1           0       13.978439   -3.081414    5.324871
     57          1           0       12.907034    4.676486    0.938998
     58          1           0       12.758458    5.272490   -0.680032
     59          1           0       13.811096    6.052500    0.627935
     60          1           0       15.496363    8.003653   -2.346432
     61          1           0       14.811685    7.461128   -0.786307
     62          1           0       14.026841    6.917587   -2.202791
     63          1           0       20.348799    2.960739   -3.040100
     64          1           0       20.576379    0.142854   -3.939368
     65          1           0       19.794260    3.115355   -5.411910
     66          1           0       18.192835    2.588358   -4.948805
     67          1           0       19.390775    1.338786   -5.308104
     68          1           0       21.942844    0.388452   -1.439302
     69          1           0       22.020691    1.986886   -2.033952
     70          1           0       22.864169    0.720937   -4.257706
     71          1           0       23.290997   -0.479180   -3.033321
     72          1           0       23.925661    1.144814   -2.797234
     73          1           0       20.044191   -5.142883   -0.052506
     74          1           0       20.912928   -3.904132   -0.953376
     75          1           0       19.512367   -4.878653   -1.619268
     76          1           0       16.657965   -3.393591    3.396707
     77          1           0       13.200309   -6.347965    3.180909
     78          1           0       12.469883   -4.700036    3.358305
     79          1           0       13.042728   -5.613746    4.719570
     80         12           0      -16.860304    0.425023    0.699351
     81          6           0      -16.435015   -2.478067   -1.504468
     82          6           0      -13.424648    0.263201    1.086354
     83          6           0      -17.012274    3.449657    1.698533
     84          6           0      -20.286099    0.402471   -0.384709
     85          7           0      -15.084074   -0.955457   -0.297675
     86          6           0      -15.151284   -2.050806   -1.130713
     87          6           0      -13.694631   -2.514623   -1.499234
     88          6           0      -12.794856   -1.821490   -0.461363
     89          6           0      -13.811203   -0.781302    0.146025
     90          6           0      -12.170584   -2.695136    0.704790
     91          6           0      -13.304176   -2.239479   -2.991791
     92          6           0      -12.488852   -3.311428   -3.682431
     93          1           0      -10.958846   -3.041459   -3.833295
     94          7           0      -15.470898    1.637527    1.418166
     95          6           0      -14.138914    1.391063    1.612072
     96          6           0      -13.488981    2.582612    2.223294
     97          6           0      -14.544095    3.519585    2.375198
     98          6           0      -15.726614    2.898903    1.783300
     99          6           0      -11.994226    2.769719    2.530561
    100          6           0      -14.461638    4.986432    2.807278
    101          8           0      -13.366302    5.402534    3.174982
    102          6           0      -15.551446    5.879815    2.844369
    103          7           0      -18.414150    1.838000    0.402751
    104          6           0      -18.246829    2.960266    1.189537
    105          6           0      -19.612848    3.749465    1.211168
    106          6           0      -20.544934    2.899356    0.275240
    107          6           0      -19.727829    1.588874    0.175834
    108          6           0      -20.219862    4.006966    2.617671
    109          6           0      -20.958156    3.489987   -1.132853
    110          6           0      -22.094099    4.526769   -1.177314
    111          7           0      -18.194544   -0.763909   -0.610674
    112          6           0      -19.557574   -0.704993   -0.821988
    113          6           0      -20.037672   -1.848581   -1.559228
    114          6           0      -18.829650   -2.590879   -1.838615
    115          6           0      -17.685175   -1.900210   -1.306839
    116          6           0      -21.465324   -2.049937   -1.964496
    117          6           0      -18.345900   -3.707704   -2.519052
    118          8           0      -18.895822   -4.476499   -3.296034
    119          6           0      -16.792558   -3.634940   -2.459500
    120          6           0      -16.374270   -4.957514   -1.860663
    121          8           0      -15.495706   -5.675162   -2.345118
    122          8           0      -16.957704   -5.270032   -0.567235
    123          6           0      -16.255209   -6.356473    0.113699
    124          1           0      -12.353667    0.193318    1.285309
    125          1           0      -17.254279    4.405559    2.167715
    126          1           0      -21.360982    0.488540   -0.556465
    127          1           0      -13.589040   -3.565735   -1.226923
    128          1           0      -12.019061   -1.219823   -0.934889
    129          1           0      -11.117898   -2.792286    0.440085
    130          1           0      -12.589998   -3.700775    0.711365
    131          1           0      -12.324178   -2.312884    1.713891
    132          1           0      -12.639345   -1.387871   -3.138488
    133          1           0      -14.199997   -2.123037   -3.602128
    134          1           0      -12.981632   -3.520888   -4.631867
    135          1           0      -12.565878   -4.218570   -3.082201
    136          1           0      -11.875482    3.285221    3.483959
    137          1           0      -11.619227    3.321677    1.668769
    138          1           0      -11.496742    1.808537    2.652595
    139          1           0      -16.240201    5.538383    3.617776
    140          1           0      -16.039407    6.048068    1.884274
    141          1           0      -15.035969    6.819559    3.045466
    142          1           0      -19.553254    4.740983    0.763599
    143          1           0      -21.457449    2.599949    0.790203
    144          1           0      -21.212829    3.558398    2.584575
    145          1           0      -20.300720    5.083868    2.762144
    146          1           0      -19.511562    3.523037    3.291262
    147          1           0      -21.259638    2.606044   -1.695809
    148          1           0      -20.126999    4.028127   -1.589051
    149          1           0      -22.400315    4.532448   -0.130832
    150          1           0      -22.958652    4.142631   -1.720570
    151          1           0      -21.837496    5.531250   -1.513004
    152          1           0      -21.726432   -1.163948   -2.541751
    153          1           0      -22.162118   -2.031105   -1.126700
    154          1           0      -21.593261   -2.862754   -2.679482
    155          1           0      -16.439582   -3.598183   -3.489931
    156          1           0      -16.540522   -6.051690    1.121290
    157          1           0      -15.207032   -6.416711   -0.179134
    158          1           0      -16.815503   -7.265530   -0.105252
 ---------------------------------------------------------------------

 SCF Done:  E(RwB97XD) =  -4070.59655475     A.U. after   20 cycles

 Excitation energies and oscillator strengths:

 Excited State   1:      Singlet-A      1.6677 eV  743.42 nm  f=0.3054  <S**2>=0.000
     309 -> 315        0.17622
     311 -> 313        0.59090
     312 -> 314       -0.33238
     309 <- 315        0.10432
 This state for optimization and/or second-order correction.
 Total Energy, E(TD-HF/TD-DFT) =  -4070.53526614
 Copying the excited state density for this state as the 1-particle RhoCI density.

 Excited State   2:      Singlet-A      1.6702 eV  742.33 nm  f=0.4344  <S**2>=0.000
     310 -> 316        0.17006
     311 -> 313        0.33069
     312 -> 314        0.59353
     310 <- 316        0.10360

 Excited State   3:      Singlet-A      2.1894 eV  566.30 nm  f=0.0680  <S**2>=0.000
     309 -> 313        0.61422
     311 -> 315       -0.33142

 Excited State   4:      Singlet-A      2.1969 eV  564.36 nm  f=0.0824  <S**2>=0.000
     310 -> 314        0.62392
     312 -> 316       -0.31821

 Excited State   5:      Singlet-A      3.2136 eV  385.81 nm  f=0.0155  <S**2>=0.000
     308 -> 313        0.61835
     308 -> 317        0.12012
     311 -> 315        0.24267

 The electronic state is 1-A.
 Alpha  occ. eigenvalues --  -46.97121 -46.95227 -19.31194 -19.28957 -19.25050
 Alpha  occ. eigenvalues --  -19.24265 -19.24092 -19.23863 -19.23413 -19.22921
 Alpha  occ. eigenvalues --  -14.47369 -14.46592 -14.46412 -14.46295 -14.45441
 Alpha  occ. eigenvalues --  -14.44123 -14.43834 -14.43766 -10.43424 -10.43291
 Alpha  occ. eigenvalues --  -10.38938 -10.38924 -10.38876 -10.37508 -10.36435
 Alpha  occ. eigenvalues --  -10.36079 -10.35988 -10.35670 -10.35629 -10.35481
 Alpha  occ. eigenvalues --  -10.35029 -10.34926 -10.34695 -10.34670 -10.34512
 Alpha  occ. eigenvalues --  -10.34425 -10.34125 -10.34075 -10.33955 -10.33899
 Alpha  occ. eigenvalues --  -10.33391 -10.33348 -10.33300 -10.33258 -10.33088
 Alpha  occ. eigenvalues --  -10.33004 -10.32924 -10.32703 -10.32680 -10.32523
 Alpha  occ. eigenvalues --  -10.32469 -10.32394 -10.32336 -10.32324 -10.32294
 Alpha  occ. eigenvalues --  -10.32136 -10.32063 -10.31969 -10.31897 -10.31662
 Alpha  occ. eigenvalues --  -10.31618 -10.31439 -10.31435 -10.31423 -10.31336
 Alpha  occ. eigenvalues --  -10.31259 -10.31036 -10.30897 -10.30872 -10.30797
 Alpha  occ. eigenvalues --  -10.30752 -10.30649 -10.30535 -10.30529 -10.30148
 Alpha  occ. eigenvalues --  -10.30104 -10.30057 -10.29974 -10.29935 -10.29935
 Alpha  occ. eigenvalues --  -10.29928 -10.29672 -10.29363 -10.29319 -10.29278
 Alpha  occ. eigenvalues --  -10.29162  -3.23024  -3.21096  -1.96548  -1.96190
 Alpha  occ. eigenvalues --   -1.95944  -1.94706  -1.94201  -1.94072  -1.18621
 Alpha  occ. eigenvalues --   -1.16101  -1.13193  -1.12716  -1.11216  -1.11138
 Alpha  occ. eigenvalues --   -1.09318  -1.08571  -1.07134  -1.07120  -1.06062
 Alpha  occ. eigenvalues --   -1.05399  -1.05387  -1.05377  -1.03114  -1.03009
 Alpha  occ. eigenvalues --   -0.94898  -0.94459  -0.91016  -0.90921  -0.90847
 Alpha  occ. eigenvalues --   -0.90430  -0.90172  -0.89597  -0.89132  -0.89012
 Alpha  occ. eigenvalues --   -0.88910  -0.88664  -0.88215  -0.87880  -0.86951
 Alpha  occ. eigenvalues --   -0.85891  -0.85795  -0.85625  -0.85453  -0.84507
 Alpha  occ. eigenvalues --   -0.84213  -0.83795  -0.83159  -0.83139  -0.82516
 Alpha  occ. eigenvalues --   -0.81871  -0.80408  -0.80269  -0.79494  -0.79304
 Alpha  occ. eigenvalues --   -0.79248  -0.78984  -0.78155  -0.77790  -0.77255
 Alpha  occ. eigenvalues --   -0.76823  -0.74853  -0.74601  -0.73946  -0.73493
 Alpha  occ. eigenvalues --   -0.71174  -0.71126  -0.70577  -0.70271  -0.70025
 Alpha  occ. eigenvalues --   -0.69738  -0.69028  -0.68930  -0.67781  -0.67537
 Alpha  occ. eigenvalues --   -0.67354  -0.67344  -0.67051  -0.67026  -0.66335
 Alpha  occ. eigenvalues --   -0.66058  -0.64716  -0.63909  -0.62444  -0.61842
 Alpha  occ. eigenvalues --   -0.61838  -0.61569  -0.61290  -0.61220  -0.60935
 Alpha  occ. eigenvalues --   -0.60720  -0.60220  -0.59283  -0.59214  -0.59027
 Alpha  occ. eigenvalues --   -0.58692  -0.58047  -0.57838  -0.57618  -0.57357
 Alpha  occ. eigenvalues --   -0.56775  -0.56677  -0.56328  -0.55922  -0.55862
 Alpha  occ. eigenvalues --   -0.55708  -0.55502  -0.55401  -0.55253  -0.54881
 Alpha  occ. eigenvalues --   -0.54878  -0.54731  -0.54467  -0.54348  -0.54153
 Alpha  occ. eigenvalues --   -0.53932  -0.53705  -0.53554  -0.53449  -0.53417
 Alpha  occ. eigenvalues --   -0.53240  -0.53077  -0.52996  -0.52549  -0.52137
 Alpha  occ. eigenvalues --   -0.51916  -0.51842  -0.51825  -0.51814  -0.51541
 Alpha  occ. eigenvalues --   -0.51298  -0.51128  -0.50934  -0.50926  -0.50592
 Alpha  occ. eigenvalues --   -0.50460  -0.50385  -0.50362  -0.50113  -0.50021
 Alpha  occ. eigenvalues --   -0.49925  -0.49856  -0.49690  -0.49410  -0.49270
 Alpha  occ. eigenvalues --   -0.49164  -0.49067  -0.48685  -0.48647  -0.48497
 Alpha  occ. eigenvalues --   -0.48188  -0.48070  -0.47880  -0.47817  -0.47633
 Alpha  occ. eigenvalues --   -0.47450  -0.47343  -0.47160  -0.46934  -0.46848
 Alpha  occ. eigenvalues --   -0.46634  -0.46477  -0.46466  -0.46344  -0.46261
 Alpha  occ. eigenvalues --   -0.46051  -0.45761  -0.45751  -0.45591  -0.45563
 Alpha  occ. eigenvalues --   -0.45404  -0.45182  -0.45098  -0.44962  -0.44588
 Alpha  occ. eigenvalues --   -0.44549  -0.44411  -0.44288  -0.44078  -0.44073
 Alpha  occ. eigenvalues --   -0.43933  -0.43800  -0.43451  -0.43381  -0.43285
 Alpha  occ. eigenvalues --   -0.43141  -0.42843  -0.42587  -0.42249  -0.42196
 Alpha  occ. eigenvalues --   -0.42146  -0.41868  -0.41856  -0.41416  -0.41242
 Alpha  occ. eigenvalues --   -0.40804  -0.40090  -0.39839  -0.39643  -0.39427
 Alpha  occ. eigenvalues --   -0.39207  -0.39189  -0.38783  -0.38711  -0.38312
 Alpha  occ. eigenvalues --   -0.37939  -0.37366  -0.36572  -0.36028  -0.35964
 Alpha  occ. eigenvalues --   -0.35922  -0.35369  -0.35293  -0.33871  -0.33557
 Alpha  occ. eigenvalues --   -0.33284  -0.33237  -0.32898  -0.32705  -0.32235
 Alpha  occ. eigenvalues --   -0.32143  -0.31704  -0.30894  -0.26429  -0.25802
 Alpha  occ. eigenvalues --   -0.23296  -0.22610
 Alpha virt. eigenvalues --   -0.07165  -0.06658  -0.00831   0.00180   0.01849
 Alpha virt. eigenvalues --    0.02584   0.03614   0.04289   0.04681   0.06115
 Alpha virt. eigenvalues --    0.06605   0.06788   0.06957   0.07931   0.08125

 Mulliken charges:
               1
     1  Mg   0.952585
     2  C   -0.030131
     3  C   -0.087572
     4  C   -0.053728
     5  C   -0.079055
     6  N   -0.317145
     7  C   -0.008974
     8  C   -0.053934
     9  C   -0.041534
    10  C   -0.009123
    11  C    0.019997
    12  C    0.021099
    13  C   -0.115120
    14  H    0.015577
    15  N   -0.461329
    16  C    0.197408
    17  C   -0.169653
    18  C   -0.061118
    19  C    0.119858
    20  C    0.061211
    21  C    0.038465
    22  O   -0.262805
    23  C    0.013422
    24  N   -0.333135
    25  C    0.064118
    26  C   -0.091899
    27  C   -0.098999
    28  C    0.041301
    29  C    0.031132
    30  C   -0.015246
    31  C   -0.053809
    32  N   -0.449210
    33  C    0.129849
    34  C   -0.162271
    35  C   -0.055484
    36  C    0.145008
    37  C    0.075978
    38  C    0.096397
    39  O   -0.183886
    40  C   -0.041925
    41  C    0.280472
    42  O   -0.276021
    43  O   -0.352445
    44  C    0.141013
    45  H   -0.023852
    46  H    0.028244
    47  H   -0.002373
    48  H    0.045935
    49  H    0.034437
    50  H    0.048863
    51  H    0.031155
    52  H    0.026822
    53  H    0.018627
    54  H    0.024824
    55  H    0.055059
    56  H    0.066996
    57  H    0.025612
    58  H    0.064197
    59  H    0.051423
    60  H    0.063682
    61  H    0.041606
    62  H    0.053104
    63  H    0.040548
    64  H    0.038391
    65  H    0.048247
    66  H    0.046073
    67  H    0.029745
    68  H    0.031752
    69  H    0.025731
    70  H    0.040610
    71  H    0.032182
    72  H    0.041542
    73  H    0.049759
    74  H    0.047512
    75  H    0.057531
    76  H    0.066865
    77  H    0.067242
    78  H    0.052471
    79  H    0.050099
    80  Mg   0.966334
    81  C   -0.023686
    82  C   -0.063312
    83  C   -0.092061
    84  C   -0.101016
    85  N   -0.282648
    86  C   -0.034175
    87  C    0.018287
    88  C   -0.119630
    89  C   -0.008096
    90  C    0.015373
    91  C    0.017535
    92  C   -0.125821
    93  H    0.022196
    94  N   -0.499486
    95  C    0.163285
    96  C   -0.190226
    97  C   -0.055725
    98  C    0.215161
    99  C    0.097111
   100  C    0.017744
   101  O   -0.245881
   102  C    0.020290
   103  N   -0.384816
   104  C    0.048325
   105  C   -0.125749
   106  C   -0.090078
   107  C    0.045201
   108  C    0.037756
   109  C   -0.003803
   110  C   -0.042746
   111  N   -0.423497
   112  C    0.155292
   113  C   -0.159535
   114  C   -0.021034
   115  C    0.159176
   116  C    0.093585
   117  C    0.074469
   118  O   -0.216277
   119  C   -0.098799
   120  C    0.286688
   121  O   -0.256765
   122  O   -0.417819
   123  C    0.139063
   124  H   -0.001344
   125  H   -0.023759
   126  H   -0.001886
   127  H    0.034669
   128  H    0.044235
   129  H    0.048528
   130  H    0.036672
   131  H    0.049325
   132  H    0.048441
   133  H    0.043941
   134  H    0.057413
   135  H    0.052639
   136  H    0.068129
   137  H    0.069280
   138  H    0.030801
   139  H    0.075416
   140  H    0.063999
   141  H    0.054763
   142  H    0.035889
   143  H    0.019962
   144  H    0.037869
   145  H    0.042223
   146  H    0.042215
   147  H    0.028962
   148  H    0.036389
   149  H    0.015403
   150  H    0.040224
   151  H    0.050256
   152  H    0.034146
   153  H    0.047850
   154  H    0.062868
   155  H    0.072119
   156  H    0.050722
   157  H    0.068833
   158  H    0.052623
 Sum of Mulliken charges =  -0.00000

 Dipole moment (field-independent basis, Debye):
    X=             -2.5816    Y=              6.5025    Z=              6.2352  Tot=              9.3714
 Quadrupole moment (field-independent basis, Debye-Ang):
   XX=           -481.5926   YY=           -551.2055   ZZ=           -514.6983
   XY=            -59.5802   XZ=            -54.4129   YZ=            -19.7935

 Normal termination of Gaussian 16 at Mon Sep 20 00:32:40 2021.
