 Gaussian 16, Revision A.03,
 Gaussian 16:  ES64L-G16RevA.03 25-Dec-2016

 --------------------------------
 #p wB97XD/Def2SVP td=(nstates=5)
 --------------------------------

 --------------------------------
 TDDFT excited states in gaussian
 --------------------------------
 Symbolic Z-matrix:
 Charge =  0 Multiplicity = 1

                         Standard orientation:
 ---------------------------------------------------------------------
 Center     Atomic      Atomic             Coordinates (Angstroms)
 Number     Number       Type             X           Y           Z
 ---------------------------------------------------------------------
      1         12           0       -0.827820    0.127544    0.151705
      2          6           0        2.707985    0.030713    0.332579
      3          6           0       -0.670713   -3.356199   -0.087978
      4          6           0       -4.108718    0.024778    0.083290
      5          6           0       -0.678853    3.555167   -0.413220
      6          7           0        0.844101   -1.429879    0.163509
      7          6           0        2.175338   -1.255952    0.393046
      8          6           0        3.030417   -2.534697    0.400389
      9          6           0        1.845050   -3.593205    0.129773
     10          6           0        0.627649   -2.720099    0.053550
     11          6           0        1.999300   -4.414463   -1.211087
     12          6           0        3.761720   -2.773890    1.761495
     13          6           0        5.271184   -2.700396    1.956180
     14          1           0        5.989221   -3.628836    2.926706
     15          7           0       -2.235293   -1.439187    0.093238
     16          6           0       -1.977665   -2.807296   -0.075504
     17          6           0       -3.253160   -3.470397   -0.230339
     18          6           0       -4.270667   -2.542110   -0.023972
     19          6           0       -3.554206   -1.259635    0.118442
     20          6           0       -3.272810   -4.957463   -0.331405
     21          6           0       -5.792046   -2.684392   -0.053094
     22          8           0       -6.587592   -1.755432    0.116627
     23          6           0       -6.336015   -4.055079   -0.151977
     24          7           0       -2.227810    1.547136   -0.226576
     25          6           0       -3.558999    1.336368    0.004214
     26          6           0       -4.326067    2.693254    0.158728
     27          6           0       -3.241256    3.730572   -0.100528
     28          6           0       -1.950228    2.898718   -0.337577
     29          6           0       -5.601652    2.796547   -0.739830
     30          6           0       -3.145061    4.687781    1.097237
     31          6           0       -3.021898    6.143840    0.830127
     32          7           0        0.666019    1.540091   -0.117805
     33          6           0        0.589286    2.896460   -0.309325
     34          6           0        1.891122    3.491844   -0.358637
     35          6           0        2.843617    2.415299   -0.004445
     36          6           0        2.000020    1.243657    0.134767
     37          6           0        2.194667    4.970003   -0.657382
     38          6           0        4.256370    2.030096    0.240439
     39          8           0        5.272693    2.736606    0.351339
     40          6           0        4.196544    0.464160    0.472387
     41          6           0        5.102995    0.005880   -0.627017
     42          8           0        4.824343   -0.232819   -1.795840
     43          8           0        6.296198   -0.252709   -0.166296
     44          6           0        7.397629   -0.563921   -1.109479
     45          1           0       -0.481314   -4.427611    0.001490
     46          1           0       -5.192720    0.136397    0.017852
     47          1           0       -0.656579    4.641337   -0.520287
     48          1           0        3.700915   -2.487780   -0.458623
     49          1           0        1.616121   -4.322511    0.907439
     50          1           0        2.707126   -4.034984   -1.947519
     51          1           0        1.041021   -4.462502   -1.727099
     52          1           0        2.294905   -5.432367   -0.956287
     53          1           0        3.497750   -3.783842    2.075632
     54          1           0        3.401758   -2.070203    2.510985
     55          1           0        5.358027   -1.723017    2.431051
     56          1           0        5.627737   -2.776134    0.928885
     57          1           0       -3.809001   -5.414599    0.499093
     58          1           0       -2.261328   -5.364445   -0.334523
     59          1           0       -3.764395   -5.321567   -1.233045
     60          1           0       -5.853141   -4.691817    0.589414
     61          1           0       -6.044444   -4.553476   -1.076581
     62          1           0       -7.405536   -4.130266    0.041812
     63          1           0       -4.639028    2.646908    1.201676
     64          1           0       -3.502725    4.371663   -0.942230
     65          1           0       -5.881946    1.863630   -1.228692
     66          1           0       -5.515129    3.526000   -1.544281
     67          1           0       -6.419927    3.232979   -0.167259
     68          1           0       -2.248176    4.335005    1.604801
     69          1           0       -3.997010    4.655055    1.775915
     70          1           0       -2.120022    6.443173    1.363576
     71          1           0       -3.941882    6.657642    1.108770
     72          1           0       -2.795842    6.403818   -0.204221
     73          1           0        2.337631    5.091981   -1.730427
     74          1           0        3.080496    5.256787   -0.090873
     75          1           0        1.363066    5.623107   -0.391910
     76          1           0        4.643060    0.276846    1.448761
     77          1           0        7.224062   -1.451629   -1.716728
     78          1           0        8.374327   -0.665026   -0.636664
     79          1           0        7.647216    0.201804   -1.843329
 ---------------------------------------------------------------------

 SCF Done:  E(RwB97XD) =  -2035.29913267     A.U. after   17 cycles

 Excitation energies and oscillator strengths:

 Excited State   1:      Singlet-A      1.7236 eV  719.32 nm  f=0.3802  <S**2>=0.000
     155 ->158         0.18643
     156 ->157         0.68176
     155 <-158         0.11198
 This state for optimization and/or second-order correction.
 Total Energy, E(TD-HF/TD-DFT) =  -2035.23579069
 Copying the excited state density for this state as the 1-particle RhoCI density.

 Excited State   2:      Singlet-A      2.1685 eV  571.76 nm  f=0.1031  <S**2>=0.000
     155 ->157         0.63395
     156 ->158        -0.29497

 Excited State   3:      Singlet-A      3.4477 eV  359.62 nm  f=0.0937  <S**2>=0.000
     150 ->157        -0.10584
     152 ->157         0.24722
     153 ->157        -0.18315
     154 ->157         0.57268
     155 ->157        -0.10029
     156 ->158        -0.18513

 Excited State   4:      Singlet-A      3.4846 eV  355.80 nm  f=0.3956  <S**2>=0.000
     150 ->157         0.13081
     152 ->157        -0.11802
     154 ->157         0.30531
     155 ->157         0.22250
     156 ->158         0.55817

 Excited State   5:      Singlet-A      3.6701 eV  337.83 nm  f=0.0027  <S**2>=0.000
     151 ->157         0.51468
     151 ->158         0.10638
     151 ->159         0.33966
     151 ->160         0.23094

 The electronic state is 1-A.
 Alpha  occ. eigenvalues --  -46.94879 -19.30469 -19.24689 -19.23884 -19.23112
 Alpha  occ. eigenvalues --  -14.47179 -14.46497 -14.44471 -14.43554 -10.42457
 Alpha  occ. eigenvalues --  -10.40016 -10.39441 -10.35760 -10.35682 -10.35477
 Alpha  occ. eigenvalues --  -10.35291 -10.34902 -10.34877 -10.34501 -10.33672
 Alpha  occ. eigenvalues --  -10.33121 -10.32822 -10.32784 -10.32720 -10.32658
 Alpha  occ. eigenvalues --  -10.32370 -10.32226 -10.32151 -10.32031 -10.32016
 Alpha  occ. eigenvalues --  -10.31759 -10.31537 -10.31069 -10.31004 -10.30434
 Alpha  occ. eigenvalues --  -10.30432 -10.30326 -10.29909 -10.29737 -10.29709
 Alpha  occ. eigenvalues --  -10.29456 -10.29124 -10.28652  -3.20908  -1.94499
 Alpha  occ. eigenvalues --   -1.94034  -1.93885  -1.19955  -1.12370  -1.10579
 Alpha  occ. eigenvalues --   -1.08640  -1.07498  -1.06123  -1.04786  -1.03338
 Alpha  occ. eigenvalues --   -0.93778  -0.91492  -0.90965  -0.90696  -0.89711
 Alpha  occ. eigenvalues --   -0.88686  -0.87048  -0.86213  -0.85362  -0.84776
 Alpha  occ. eigenvalues --   -0.84674  -0.82766  -0.82502  -0.80798  -0.79414
 Alpha  occ. eigenvalues --   -0.78778  -0.78091  -0.77131  -0.74196  -0.73809
 Alpha  occ. eigenvalues --   -0.71231  -0.70118  -0.69597  -0.68973  -0.67775
 Alpha  occ. eigenvalues --   -0.67198  -0.66879  -0.66198  -0.64370  -0.63020
 Alpha  occ. eigenvalues --   -0.61490  -0.60943  -0.60467  -0.59779  -0.59646
 Alpha  occ. eigenvalues --   -0.58751  -0.57547  -0.56934  -0.56218  -0.56126
 Alpha  occ. eigenvalues --   -0.55769  -0.55555  -0.54910  -0.54591  -0.54495
 Alpha  occ. eigenvalues --   -0.54056  -0.53355  -0.52559  -0.52415  -0.51977
 Alpha  occ. eigenvalues --   -0.51866  -0.51674  -0.51394  -0.51048  -0.50600
 Alpha  occ. eigenvalues --   -0.50462  -0.50126  -0.50017  -0.49735  -0.49336
 Alpha  occ. eigenvalues --   -0.48568  -0.48266  -0.48012  -0.47771  -0.47531
 Alpha  occ. eigenvalues --   -0.47398  -0.47067  -0.46974  -0.46556  -0.46305
 Alpha  occ. eigenvalues --   -0.46207  -0.45937  -0.45176  -0.45008  -0.44752
 Alpha  occ. eigenvalues --   -0.44284  -0.43976  -0.43631  -0.43305  -0.43153
 Alpha  occ. eigenvalues --   -0.42703  -0.42325  -0.41976  -0.41734  -0.41411
 Alpha  occ. eigenvalues --   -0.40355  -0.39877  -0.39282  -0.38708  -0.38370
 Alpha  occ. eigenvalues --   -0.37779  -0.36421  -0.35528  -0.35150  -0.34134
 Alpha  occ. eigenvalues --   -0.33828  -0.32612  -0.32493  -0.30830  -0.25868
 Alpha  occ. eigenvalues --   -0.23016
 Alpha virt. eigenvalues --   -0.06866   0.00052   0.01849   0.04162   0.05773
 Alpha virt. eigenvalues --    0.07694   0.08333   0.08534   0.09450   0.10436
 Alpha virt. eigenvalues --    0.11061   0.12365   0.12655   0.13060   0.13812

 Mulliken charges:
               1
     1  Mg   0.972688
     2  C    0.039561
     3  C   -0.094859
     4  C   -0.084794
     5  C   -0.089012
     6  N   -0.280158
     7  C   -0.033650
     8  C   -0.039331
     9  C   -0.125392
    10  C    0.009553
    11  C    0.001860
    12  C   -0.006391
    13  C   -0.125669
    14  H    0.045860
    15  N   -0.445299
    16  C    0.189157
    17  C   -0.135251
    18  C   -0.078154
    19  C    0.174023
    20  C    0.050447
    21  C    0.084207
    22  O   -0.232490
    23  C   -0.006749
    24  N   -0.424759
    25  C    0.030703
    26  C   -0.065443
    27  C   -0.064748
    28  C    0.113814
    29  C    0.012664
    30  C   -0.040743
    31  C   -0.047839
    32  N   -0.454772
    33  C    0.145665
    34  C   -0.198944
    35  C   -0.045511
    36  C    0.123227
    37  C    0.077732
    38  C    0.112877
    39  O   -0.226549
    40  C   -0.112989
    41  C    0.233046
    42  O   -0.268641
    43  O   -0.310169
    44  C    0.148254
    45  H    0.001902
    46  H    0.016048
    47  H   -0.006147
    48  H    0.060621
    49  H    0.045614
    50  H    0.052689
    51  H    0.037787
    52  H    0.037490
    53  H    0.038498
    54  H    0.032704
    55  H    0.062085
    56  H    0.051833
    57  H    0.054675
    58  H    0.035494
    59  H    0.048410
    60  H    0.039619
    61  H    0.049801
    62  H    0.061285
    63  H    0.053976
    64  H    0.031670
    65  H    0.057285
    66  H    0.025270
    67  H    0.035166
    68  H    0.036546
    69  H    0.031246
    70  H    0.037262
    71  H    0.043613
    72  H    0.025476
    73  H    0.056354
    74  H    0.061400
    75  H    0.025328
    76  H    0.075636
    77  H    0.050765
    78  H    0.052462
    79  H    0.053105
 Sum of Mulliken charges =  -0.00000

 Dipole moment (field-independent basis, Debye):
    X=             -2.3758    Y=             -4.5287    Z=              1.1218  Tot=              5.2356
 Quadrupole moment (field-independent basis, Debye-Ang):
   XX=           -265.8957   YY=           -220.8284   ZZ=           -259.0424
   XY=            -18.5586   XZ=             -0.1916   YZ=              0.3487

 Normal termination of Gaussian 16 at Mon Sep 20 15:10:22 2021.
