 Gaussian 16, Revision A.03,
 Gaussian 16:  ES64L-G16RevA.03 25-Dec-2016

 --------------------------------
 #p wB97XD/Def2SVP td=(nstates=5)
 --------------------------------

 --------------------------------
 TDDFT excited states in gaussian
 --------------------------------
 Symbolic Z-matrix:
 Charge =  0 Multiplicity = 1

                         Standard orientation:
 ---------------------------------------------------------------------
 Center     Atomic      Atomic             Coordinates (Angstroms)
 Number     Number       Type             X           Y           Z
 ---------------------------------------------------------------------
      1         12           0       20.070302   -0.771341    0.380439
      2          6           0       19.291875    2.172644   -1.540292
      3          6           0       20.909656    1.323398    2.941961
      4          6           0       21.079283   -3.498970    2.051804
      5          6           0       19.643582   -2.609630   -2.446178
      6          7           0       20.038304    1.589727    0.666774
      7          6           0       19.636276    2.500282   -0.266873
      8          6           0       19.582733    3.819946    0.404662
      9          6           0       20.228766    3.596627    1.800061
     10          6           0       20.485340    2.066137    1.865213
     11          6           0       21.565496    4.389210    1.956330
     12          6           0       18.222083    4.466310    0.479472
     13          6           0       18.111818    5.912568    0.934577
     14          1           0       17.309333    6.814059    0.093589
     15          7           0       20.766105   -1.052612    2.252089
     16          6           0       21.152651   -0.026998    3.158446
     17          6           0       21.522263   -0.699333    4.418195
     18          6           0       21.646648   -2.050868    4.107093
     19          6           0       21.208326   -2.246064    2.713203
     20          6           0       21.863235    0.095356    5.661458
     21          6           0       22.062068   -3.234482    5.007318
     22          8           0       22.358635   -4.365967    4.580106
     23          6           0       22.072718   -2.993088    6.461609
     24          7           0       20.399700   -2.802074   -0.126447
     25          6           0       20.794771   -3.761087    0.685540
     26          6           0       20.913973   -5.146613   -0.006686
     27          6           0       20.217104   -4.858103   -1.338165
     28          6           0       20.035319   -3.358341   -1.289280
     29          6           0       22.409690   -5.576271   -0.181600
     30          6           0       18.917610   -5.585011   -1.601415
     31          6           0       18.719539   -6.153757   -3.017717
     32          7           0       19.486665   -0.326993   -1.542474
     33          6           0       19.349763   -1.213520   -2.588224
     34          6           0       18.850503   -0.529267   -3.818995
     35          6           0       18.864707    0.777782   -3.375487
     36          6           0       19.292355    0.878426   -2.046096
     37          6           0       18.339574   -1.139666   -5.084444
     38          6           0       18.583483    2.132743   -3.826561
     39          8           0       18.145186    2.482171   -4.916744
     40          6           0       18.842858    3.113298   -2.659905
     41          6           0       19.694099    4.152555   -3.180346
     42          8           0       20.925326    4.075327   -3.408904
     43          8           0       19.013997    5.330584   -3.244964
     44          6           0       19.756928    6.549529   -3.479331
     45          1           0       21.099963    1.973929    3.797843
     46          1           0       21.557565   -4.355871    2.530462
     47          1           0       19.762687   -3.239142   -3.330261
     48          1           0       20.244723    4.427750   -0.210748
     49          1           0       19.575845    3.908583    2.615402
     50          1           0       21.782438    5.042346    2.802171
     51          1           0       21.602206    5.020872    1.068914
     52          1           0       22.471646    3.799336    1.815749
     53          1           0       17.586428    3.963723    1.208674
     54          1           0       17.614522    4.239358   -0.396140
     55          1           0       19.096579    6.373868    0.992087
     56          1           0       17.483445    5.883061    1.824354
     57          1           0       22.770219   -0.233309    6.168435
     58          1           0       21.068516    0.115587    6.406916
     59          1           0       22.096455    1.145685    5.485036
     60          1           0       21.114940   -2.556223    6.744649
     61          1           0       22.874160   -2.262759    6.567437
     62          1           0       22.122552   -3.973521    6.933853
     63          1           0       20.352003   -5.843694    0.615838
     64          1           0       20.809587   -5.029486   -2.236429
     65          1           0       22.704375   -5.585715   -1.230550
     66          1           0       22.572978   -6.594437    0.171676
     67          1           0       22.988255   -4.826299    0.357971
     68          1           0       18.052562   -4.966815   -1.363477
     69          1           0       18.828123   -6.271405   -0.760043
     70          1           0       18.058103   -7.013890   -2.918581
     71          1           0       19.658711   -6.334932   -3.541343
     72          1           0       18.243688   -5.308838   -3.515044
     73          1           0       17.252503   -1.181551   -5.154953
     74          1           0       18.878148   -2.081626   -5.184128
     75          1           0       18.781659   -0.619313   -5.934996
     76          1           0       17.884927    3.611276   -2.510214
     77          1           0       20.840643    6.429726   -3.474813
     78          1           0       19.427794    7.336494   -2.801312
     79          1           0       19.534505    6.982070   -4.455150
     80         12           0      -20.498080   -0.519237   -0.219107
     81          6           0      -18.509362    2.382965   -0.031698
     82          6           0      -23.171321    1.299827    0.817948
     83          6           0      -22.333016   -3.359265   -0.303941
     84          6           0      -17.625150   -2.369477   -0.836705
     85          7           0      -20.785369    1.539446    0.416198
     86          6           0      -19.859733    2.580305    0.302287
     87          6           0      -20.543942    3.886114    0.574857
     88          6           0      -21.838548    3.440020    1.295112
     89          6           0      -21.946410    1.972889    0.805335
     90          6           0      -21.843841    3.473628    2.856083
     91          6           0      -20.820230    4.793326   -0.682754
     92          6           0      -20.432214    6.227220   -0.508980
     93          1           0      -21.446828    7.278393   -0.996402
     94          7           0      -22.453335   -0.914727    0.092854
     95          6           0      -23.461851    0.000745    0.436878
     96          6           0      -24.708714   -0.652241    0.490686
     97          6           0      -24.507201   -2.072037    0.150251
     98          6           0      -23.088632   -2.162770   -0.047169
     99          6           0      -25.997834   -0.044896    0.961459
    100          6           0      -25.495827   -3.316365    0.094075
    101          8           0      -25.100319   -4.408392   -0.238713
    102          6           0      -26.985245   -3.146415    0.357360
    103          7           0      -20.016697   -2.591304   -0.419784
    104          6           0      -20.971355   -3.557067   -0.399034
    105          6           0      -20.298681   -5.002648   -0.566859
    106          6           0      -18.820624   -4.652977   -1.041403
    107          6           0      -18.795404   -3.092415   -0.748811
    108          6           0      -20.301618   -5.914152    0.691421
    109          6           0      -18.529285   -4.990754   -2.546953
    110          6           0      -17.326190   -5.825503   -2.686419
    111          7           0      -18.472551   -0.117141   -0.353788
    112          6           0      -17.425943   -0.961554   -0.721151
    113          6           0      -16.202978   -0.211562   -0.813489
    114          6           0      -16.576086    1.085500   -0.525748
    115          6           0      -17.914040    1.116635   -0.288099
    116          6           0      -14.861443   -0.854064   -1.252838
    117          6           0      -16.088350    2.441652   -0.354016
    118          8           0      -14.939859    2.826676   -0.352858
    119          6           0      -17.358558    3.360772    0.006880
    120          6           0      -17.135601    3.989418    1.321778
    121          8           0      -16.926181    3.355320    2.389094
    122          8           0      -17.157385    5.343720    1.159879
    123          6           0      -16.577548    6.105964    2.297329
    124          1           0      -23.973435    1.937621    1.195056
    125          1           0      -22.845771   -4.322688   -0.335874
    126          1           0      -16.724443   -2.973515   -0.960442
    127          1           0      -20.041360    4.503316    1.320537
    128          1           0      -22.716146    4.021924    1.012965
    129          1           0      -21.251366    4.283864    3.283054
    130          1           0      -21.480804    2.502672    3.194044
    131          1           0      -22.826664    3.498578    3.326069
    132          1           0      -21.882966    4.669296   -0.889993
    133          1           0      -20.339195    4.396308   -1.577145
    134          1           0      -19.495125    6.256624   -1.065171
    135          1           0      -20.325849    6.450511    0.552508
    136          1           0      -26.732448    0.166288    0.184074
    137          1           0      -25.795791    0.941178    1.377771
    138          1           0      -26.567593   -0.569242    1.728151
    139          1           0      -27.436159   -4.107610    0.113673
    140          1           0      -27.388332   -2.275147   -0.159718
    141          1           0      -27.139803   -2.787447    1.375305
    142          1           0      -20.871553   -5.597375   -1.278536
    143          1           0      -18.119767   -5.172119   -0.385956
    144          1           0      -20.690423   -5.473375    1.609968
    145          1           0      -19.309264   -6.279053    0.957507
    146          1           0      -20.912051   -6.783149    0.444388
    147          1           0      -18.321594   -4.060164   -3.076439
    148          1           0      -19.324228   -5.539637   -3.051404
    149          1           0      -17.637561   -6.862228   -2.816969
    150          1           0      -16.545390   -5.762152   -1.929327
    151          1           0      -16.756486   -5.493723   -3.554509
    152          1           0      -15.069102   -1.809569   -1.735081
    153          1           0      -14.141116   -0.876881   -0.433810
    154          1           0      -14.494055   -0.189223   -2.033688
    155          1           0      -17.525744    4.129590   -0.747913
    156          1           0      -16.503432    7.163570    2.044737
    157          1           0      -15.543488    5.766800    2.362608
    158          1           0      -17.174984    5.860717    3.175855
 ---------------------------------------------------------------------

 SCF Done:  E(RwB97XD) =  -4070.63764857     A.U. after   19 cycles

 Excitation energies and oscillator strengths:

 Excited State   1:      Singlet-A      1.6894 eV  733.91 nm  f=0.4096  <S**2>=0.000
     310 -> 316        0.18225
     311 -> 313        0.67822
     310 <- 316        0.11483
 This state for optimization and/or second-order correction.
 Total Energy, E(TD-HF/TD-DFT) =  -4070.57556554
 Copying the excited state density for this state as the 1-particle RhoCI density.

 Excited State   2:      Singlet-A      1.6935 eV  732.13 nm  f=0.3615  <S**2>=0.000
     309 -> 315        0.20325
     312 -> 314        0.67501
     309 <- 315        0.12177

 Excited State   3:      Singlet-A      2.1431 eV  578.53 nm  f=0.1535  <S**2>=0.000
     310 -> 313        0.65152
     311 -> 316       -0.25247

 Excited State   4:      Singlet-A      2.2626 eV  547.97 nm  f=0.0703  <S**2>=0.000
     309 -> 314        0.61593
     312 -> 315       -0.33989

 Excited State   5:      Singlet-A      3.1996 eV  387.49 nm  f=0.0021  <S**2>=0.000
     307 -> 313        0.29701
     308 -> 313        0.62284

 The electronic state is 1-A.
 Alpha  occ. eigenvalues --  -46.94820 -46.93551 -19.30881 -19.30385 -19.24940
 Alpha  occ. eigenvalues --  -19.24483 -19.24076 -19.24058 -19.23803 -19.23653
 Alpha  occ. eigenvalues --  -14.46683 -14.46456 -14.46099 -14.45691 -14.44369
 Alpha  occ. eigenvalues --  -14.44167 -14.43975 -14.43154 -10.43287 -10.42977
 Alpha  occ. eigenvalues --  -10.40364 -10.39204 -10.39045 -10.38459 -10.35919
 Alpha  occ. eigenvalues --  -10.35078 -10.34935 -10.34770 -10.34741 -10.34696
 Alpha  occ. eigenvalues --  -10.34658 -10.34585 -10.34564 -10.34539 -10.34441
 Alpha  occ. eigenvalues --  -10.34427 -10.34418 -10.34064 -10.34014 -10.33176
 Alpha  occ. eigenvalues --  -10.33158 -10.33086 -10.32621 -10.32513 -10.32356
 Alpha  occ. eigenvalues --  -10.32189 -10.32159 -10.32149 -10.32118 -10.32043
 Alpha  occ. eigenvalues --  -10.32015 -10.31996 -10.31854 -10.31836 -10.31824
 Alpha  occ. eigenvalues --  -10.31705 -10.31699 -10.31679 -10.31484 -10.31477
 Alpha  occ. eigenvalues --  -10.31411 -10.31235 -10.31203 -10.31091 -10.31034
 Alpha  occ. eigenvalues --  -10.31010 -10.30942 -10.30634 -10.30427 -10.30357
 Alpha  occ. eigenvalues --  -10.30202 -10.30068 -10.29980 -10.29962 -10.29942
 Alpha  occ. eigenvalues --  -10.29860 -10.29824 -10.29819 -10.29817 -10.29747
 Alpha  occ. eigenvalues --  -10.29613 -10.29542 -10.29192 -10.28623 -10.28445
 Alpha  occ. eigenvalues --  -10.28346  -3.20857  -3.19685  -1.94457  -1.93974
 Alpha  occ. eigenvalues --   -1.93838  -1.93286  -1.92803  -1.92686  -1.18289
 Alpha  occ. eigenvalues --   -1.17941  -1.13964  -1.12553  -1.11694  -1.11260
 Alpha  occ. eigenvalues --   -1.08523  -1.08137  -1.07749  -1.06959  -1.06595
 Alpha  occ. eigenvalues --   -1.05355  -1.05067  -1.04577  -1.04214  -1.03516
 Alpha  occ. eigenvalues --   -0.95138  -0.94550  -0.91930  -0.91166  -0.91079
 Alpha  occ. eigenvalues --   -0.90560  -0.90393  -0.89944  -0.89520  -0.88988
 Alpha  occ. eigenvalues --   -0.88969  -0.88556  -0.88389  -0.87773  -0.86607
 Alpha  occ. eigenvalues --   -0.86222  -0.85934  -0.85710  -0.84820  -0.84798
 Alpha  occ. eigenvalues --   -0.84509  -0.84058  -0.83177  -0.83149  -0.82841
 Alpha  occ. eigenvalues --   -0.82641  -0.80613  -0.80238  -0.79626  -0.79352
 Alpha  occ. eigenvalues --   -0.79250  -0.78696  -0.78463  -0.77656  -0.77161
 Alpha  occ. eigenvalues --   -0.76836  -0.74968  -0.74872  -0.73908  -0.72923
 Alpha  occ. eigenvalues --   -0.71435  -0.71205  -0.70610  -0.70033  -0.70019
 Alpha  occ. eigenvalues --   -0.69528  -0.68533  -0.68509  -0.68308  -0.67468
 Alpha  occ. eigenvalues --   -0.67351  -0.67108  -0.67087  -0.66592  -0.66545
 Alpha  occ. eigenvalues --   -0.66059  -0.64515  -0.63942  -0.62372  -0.62347
 Alpha  occ. eigenvalues --   -0.62104  -0.61878  -0.61471  -0.61261  -0.60741
 Alpha  occ. eigenvalues --   -0.60342  -0.60159  -0.59699  -0.59603  -0.59599
 Alpha  occ. eigenvalues --   -0.58452  -0.58193  -0.57677  -0.57652  -0.57501
 Alpha  occ. eigenvalues --   -0.57428  -0.56898  -0.56349  -0.55940  -0.55808
 Alpha  occ. eigenvalues --   -0.55726  -0.55542  -0.55400  -0.55395  -0.55107
 Alpha  occ. eigenvalues --   -0.54861  -0.54580  -0.54510  -0.53889  -0.53834
 Alpha  occ. eigenvalues --   -0.53779  -0.53755  -0.53617  -0.53522  -0.53106
 Alpha  occ. eigenvalues --   -0.52979  -0.52819  -0.52698  -0.52452  -0.52431
 Alpha  occ. eigenvalues --   -0.52200  -0.52064  -0.51842  -0.51752  -0.51563
 Alpha  occ. eigenvalues --   -0.51368  -0.51357  -0.51117  -0.50987  -0.50656
 Alpha  occ. eigenvalues --   -0.50581  -0.50291  -0.50248  -0.49900  -0.49860
 Alpha  occ. eigenvalues --   -0.49739  -0.49591  -0.49275  -0.49177  -0.49140
 Alpha  occ. eigenvalues --   -0.48955  -0.48765  -0.48580  -0.48448  -0.48395
 Alpha  occ. eigenvalues --   -0.48135  -0.48073  -0.47946  -0.47786  -0.47686
 Alpha  occ. eigenvalues --   -0.47492  -0.47326  -0.47069  -0.46998  -0.46992
 Alpha  occ. eigenvalues --   -0.46701  -0.46596  -0.46443  -0.46412  -0.46295
 Alpha  occ. eigenvalues --   -0.45856  -0.45811  -0.45610  -0.45361  -0.45318
 Alpha  occ. eigenvalues --   -0.45267  -0.45045  -0.44873  -0.44796  -0.44582
 Alpha  occ. eigenvalues --   -0.44443  -0.44331  -0.44309  -0.43960  -0.43884
 Alpha  occ. eigenvalues --   -0.43798  -0.43651  -0.43625  -0.43488  -0.43192
 Alpha  occ. eigenvalues --   -0.43147  -0.42957  -0.42890  -0.42746  -0.42357
 Alpha  occ. eigenvalues --   -0.42023  -0.41976  -0.41791  -0.41054  -0.40742
 Alpha  occ. eigenvalues --   -0.40690  -0.40283  -0.39908  -0.39820  -0.39766
 Alpha  occ. eigenvalues --   -0.39202  -0.38776  -0.38415  -0.37994  -0.37929
 Alpha  occ. eigenvalues --   -0.37893  -0.37644  -0.36245  -0.36113  -0.35862
 Alpha  occ. eigenvalues --   -0.35473  -0.35387  -0.35145  -0.33758  -0.33753
 Alpha  occ. eigenvalues --   -0.33493  -0.32970  -0.32841  -0.32735  -0.32511
 Alpha  occ. eigenvalues --   -0.32416  -0.32170  -0.31759  -0.25983  -0.25893
 Alpha  occ. eigenvalues --   -0.23350  -0.22704
 Alpha virt. eigenvalues --   -0.07380  -0.06489   0.00119   0.00630   0.02773
 Alpha virt. eigenvalues --    0.02808   0.04640   0.04862   0.06152   0.06465
 Alpha virt. eigenvalues --    0.06686   0.06703   0.08038   0.08151   0.08649

 Mulliken charges:
               1
     1  Mg   0.974493
     2  C    0.002903
     3  C   -0.074059
     4  C   -0.058852
     5  C   -0.108595
     6  N   -0.330633
     7  C   -0.063294
     8  C    0.015575
     9  C   -0.121652
    10  C    0.063824
    11  C    0.011231
    12  C    0.011701
    13  C   -0.119997
    14  H    0.035348
    15  N   -0.515779
    16  C    0.190022
    17  C   -0.128865
    18  C   -0.091737
    19  C    0.167137
    20  C    0.036567
    21  C    0.055304
    22  O   -0.254795
    23  C    0.008524
    24  N   -0.326383
    25  C   -0.014102
    26  C   -0.059998
    27  C   -0.104891
    28  C    0.037546
    29  C    0.034226
    30  C    0.005200
    31  C   -0.035306
    32  N   -0.421072
    33  C    0.133058
    34  C   -0.209193
    35  C   -0.009037
    36  C    0.152769
    37  C    0.108981
    38  C    0.073424
    39  O   -0.209171
    40  C   -0.032107
    41  C    0.264695
    42  O   -0.283671
    43  O   -0.351452
    44  C    0.134884
    45  H   -0.012376
    46  H    0.030611
    47  H    0.003564
    48  H    0.033937
    49  H    0.037538
    50  H    0.041010
    51  H    0.017655
    52  H    0.035907
    53  H    0.014318
    54  H    0.025792
    55  H    0.056553
    56  H    0.056731
    57  H    0.040346
    58  H    0.054030
    59  H    0.038958
    60  H    0.053211
    61  H    0.060475
    62  H    0.061917
    63  H    0.043784
    64  H    0.028134
    65  H    0.033553
    66  H    0.048010
    67  H    0.054500
    68  H    0.023109
    69  H    0.008876
    70  H    0.052211
    71  H    0.038525
    72  H    0.041141
    73  H    0.077513
    74  H    0.017101
    75  H    0.049437
    76  H    0.080890
    77  H    0.066817
    78  H    0.047344
    79  H    0.046106
    80  Mg   0.978528
    81  C   -0.032879
    82  C   -0.099683
    83  C   -0.063559
    84  C   -0.089547
    85  N   -0.322140
    86  C    0.015214
    87  C   -0.082508
    88  C   -0.128335
    89  C    0.030633
    90  C    0.020665
    91  C    0.044964
    92  C   -0.121243
    93  H    0.030841
    94  N   -0.522969
    95  C    0.241859
    96  C   -0.149178
    97  C   -0.081297
    98  C    0.154501
    99  C    0.041777
   100  C    0.076180
   101  O   -0.213754
   102  C   -0.007645
   103  N   -0.359197
   104  C    0.071726
   105  C   -0.108409
   106  C   -0.079654
   107  C    0.063556
   108  C    0.008325
   109  C    0.027454
   110  C   -0.074073
   111  N   -0.443900
   112  C    0.130190
   113  C   -0.214738
   114  C    0.007920
   115  C    0.121572
   116  C    0.094240
   117  C    0.108382
   118  O   -0.190850
   119  C   -0.041961
   120  C    0.275625
   121  O   -0.281963
   122  O   -0.372048
   123  C    0.141516
   124  H   -0.011139
   125  H    0.021682
   126  H   -0.003615
   127  H    0.026683
   128  H    0.025663
   129  H    0.045035
   130  H    0.043236
   131  H    0.033146
   132  H    0.030105
   133  H    0.030109
   134  H    0.065282
   135  H    0.054092
   136  H    0.051133
   137  H    0.023070
   138  H    0.045377
   139  H    0.070864
   140  H    0.046643
   141  H    0.048677
   142  H    0.037862
   143  H    0.037766
   144  H    0.044153
   145  H    0.029728
   146  H    0.037017
   147  H    0.035375
   148  H    0.037558
   149  H    0.038909
   150  H    0.028181
   151  H    0.026691
   152  H    0.030857
   153  H    0.066436
   154  H    0.049414
   155  H    0.057615
   156  H    0.060448
   157  H    0.064164
   158  H    0.067644
 Sum of Mulliken charges =  -0.00000

 Dipole moment (field-independent basis, Debye):
    X=             -5.3480    Y=              1.0092    Z=              4.3490  Tot=              6.9666
 Quadrupole moment (field-independent basis, Debye-Ang):
   XX=           -381.5363   YY=           -468.1339   ZZ=           -512.1099
   XY=            -35.4114   XZ=             77.7769   YZ=             41.9286

 Normal termination of Gaussian 16 at Mon Sep 20 01:44:51 2021.
