 Gaussian 16, Revision A.03,
 Gaussian 16:  ES64L-G16RevA.03 25-Dec-2016

 --------------------------------
 #p wB97XD/Def2SVP td=(nstates=5)
 --------------------------------

 --------------------------------
 TDDFT excited states in gaussian
 --------------------------------
 Symbolic Z-matrix:
 Charge =  0 Multiplicity = 1

                         Standard orientation:
 ---------------------------------------------------------------------
 Center     Atomic      Atomic             Coordinates (Angstroms)
 Number     Number       Type             X           Y           Z
 ---------------------------------------------------------------------
      1         12           0      -13.415985    0.663963   -0.025654
      2          6           0      -11.654236   -1.812591   -1.572447
      3          6           0      -14.693598   -1.758698    2.213170
      4          6           0      -15.339812    3.019538    1.375556
      5          6           0      -12.059712    2.937422   -2.214417
      6          7           0      -13.458552   -1.554451    0.102438
      7          6           0      -12.539441   -2.346331   -0.597720
      8          6           0      -12.619290   -3.840778   -0.175574
      9          6           0      -13.653225   -3.712290    0.974498
     10          6           0      -14.027974   -2.245350    1.083951
     11          6           0      -14.956782   -4.617893    1.025897
     12          6           0      -11.261435   -4.526677    0.293812
     13          6           0      -11.475092   -6.002864    0.723583
     14          1           0      -10.900064   -7.011098   -0.272235
     15          7           0      -14.817328    0.630794    1.644770
     16          6           0      -14.987382   -0.406888    2.535853
     17          6           0      -15.993654    0.050450    3.486991
     18          6           0      -16.179176    1.446163    3.225628
     19          6           0      -15.422312    1.780898    2.060566
     20          6           0      -16.536280   -0.861880    4.518410
     21          6           0      -17.191927    2.339437    4.023740
     22          8           0      -17.519939    3.492056    3.676168
     23          6           0      -17.885174    1.785955    5.241343
     24          7           0      -13.673670    2.571972   -0.367261
     25          6           0      -14.568270    3.413470    0.352011
     26          6           0      -14.740799    4.742801   -0.347275
     27          6           0      -13.415890    4.814402   -1.104029
     28          6           0      -12.961646    3.365891   -1.214470
     29          6           0      -15.986946    4.778644   -1.294421
     30          6           0      -12.328552    5.596692   -0.333961
     31          6           0      -12.280535    7.093611   -0.483668
     32          7           0      -12.138612    0.674905   -1.643900
     33          6           0      -11.551858    1.659860   -2.342958
     34          6           0      -10.674924    1.089944   -3.322765
     35          6           0      -10.652747   -0.263912   -3.063136
     36          6           0      -11.535386   -0.472449   -1.991965
     37          6           0       -9.912785    1.920101   -4.295864
     38          6           0      -10.074518   -1.471265   -3.474836
     39          8           0       -9.244997   -1.721884   -4.327750
     40          6           0      -10.713411   -2.566191   -2.497854
     41          6           0      -11.375982   -3.598184   -3.340005
     42          8           0      -12.357697   -3.458106   -4.028043
     43          8           0      -10.834535   -4.803961   -3.142993
     44          6           0      -11.458040   -5.953117   -3.905845
     45          1           0      -14.918916   -2.527585    2.954932
     46          1           0      -15.956340    3.799708    1.826508
     47          1           0      -11.492527    3.611411   -2.859232
     48          1           0      -13.049444   -4.409091   -1.000311
     49          1           0      -13.162385   -3.914721    1.926913
     50          1           0      -15.278437   -4.945940    2.014700
     51          1           0      -14.891199   -5.402003    0.271385
     52          1           0      -15.758189   -3.941071    0.729958
     53          1           0      -10.903213   -3.861213    1.078306
     54          1           0      -10.552770   -4.478351   -0.532862
     55          1           0      -12.523765   -6.170404    0.969185
     56          1           0      -10.903467   -6.141850    1.640734
     57          1           0      -17.581431   -1.055763    4.276467
     58          1           0      -16.302140   -0.397771    5.476485
     59          1           0      -15.984451   -1.801875    4.532641
     60          1           0      -18.500955    2.559230    5.700656
     61          1           0      -17.072073    1.617720    5.948839
     62          1           0      -18.459330    0.869019    5.111004
     63          1           0      -14.857373    5.554174    0.371719
     64          1           0      -13.511003    5.234405   -2.105144
     65          1           0      -15.806089    4.205410   -2.202872
     66          1           0      -16.247230    5.808986   -1.538251
     67          1           0      -16.800474    4.344213   -0.714483
     68          1           0      -11.323190    5.222040   -0.522038
     69          1           0      -12.407361    5.374211    0.730271
     70          1           0      -12.417164    7.509608    0.514111
     71          1           0      -13.208869    7.315958   -1.010070
     72          1           0      -11.409911    7.468248   -1.022209
     73          1           0       -8.899982    2.093453   -3.934246
     74          1           0      -10.376031    2.831292   -4.675576
     75          1           0       -9.800344    1.287932   -5.176841
     76          1           0       -9.907481   -3.019077   -1.919927
     77          1           0      -12.532109   -5.908730   -3.724212
     78          1           0      -11.125005   -6.931284   -3.557904
     79          1           0      -11.229521   -5.812114   -4.962482
     80         12           0       13.568462    0.597853   -0.057189
     81          6           0       11.171827   -1.787743    0.550172
     82          6           0       15.969310   -2.019893   -0.264452
     83          6           0       16.110074    2.826073   -0.127316
     84          6           0       11.366014    3.072222    0.469464
     85          7           0       13.558633   -1.656295    0.129531
     86          6           0       12.428637   -2.381395    0.397301
     87          6           0       12.715405   -3.883911    0.350923
     88          6           0       14.312211   -3.879466    0.283464
     89          6           0       14.647317   -2.437539    0.037066
     90          6           0       15.011819   -4.528568    1.533631
     91          6           0       12.055485   -4.624352   -0.900489
     92          6           0       11.361117   -5.959818   -0.783127
     93          1           0       12.036941   -7.044430   -0.021917
     94          7           0       15.765235    0.458367   -0.232429
     95          6           0       16.498181   -0.649596   -0.479213
     96          6           0       17.849883   -0.322270   -0.787778
     97          6           0       17.920893    1.106575   -0.788280
     98          6           0       16.567640    1.506130   -0.298997
     99          6           0       18.828544   -1.434425   -0.986154
    100          6           0       19.134685    1.998740   -0.984961
    101          8           0       19.129630    3.197438   -0.688014
    102          6           0       20.423616    1.424161   -1.545982
    103          7           0       13.753294    2.689710    0.297715
    104          6           0       14.898243    3.388282    0.078376
    105          6           0       14.629101    4.891673    0.115889
    106          6           0       13.054133    4.946155    0.132755
    107          6           0       12.689057    3.484629    0.302514
    108          6           0       15.321788    5.810506    1.165234
    109          6           0       12.351981    5.673640   -1.088784
    110          6           0       11.908439    4.882088   -2.300832
    111          7           0       11.703082    0.677358    0.505469
    112          6           0       10.827241    1.731788    0.559870
    113          6           0        9.514187    1.354782    0.938000
    114          6           0        9.579455   -0.034525    0.900099
    115          6           0       10.921139   -0.393627    0.611101
    116          6           0        8.239409    2.143450    1.207969
    117          6           0        8.871410   -1.225988    1.076797
    118          8           0        7.709252   -1.368588    1.409669
    119          6           0        9.872204   -2.498516    0.882334
    120          6           0        9.886283   -3.250366    2.131083
    121          8           0       10.322338   -2.842478    3.225828
    122          8           0        9.314456   -4.479371    2.029039
    123          6           0        8.975678   -5.207471    3.256987
    124          1           0       16.594582   -2.905630   -0.391799
    125          1           0       16.852217    3.568304   -0.427910
    126          1           0       10.576729    3.802460    0.282995
    127          1           0       12.266860   -4.346100    1.231219
    128          1           0       14.676779   -4.489972   -0.542828
    129          1           0       15.615284   -5.362876    1.177702
    130          1           0       14.191929   -4.771191    2.209881
    131          1           0       15.761465   -3.906558    2.023689
    132          1           0       12.918244   -4.731900   -1.558129
    133          1           0       11.457286   -3.932348   -1.492329
    134          1           0       11.046056   -6.303472   -1.768362
    135          1           0       10.476077   -5.771475   -0.176475
    136          1           0       19.390417   -1.153498   -1.876182
    137          1           0       18.313875   -2.364385   -1.229065
    138          1           0       19.510287   -1.631565   -0.158128
    139          1           0       20.277479    0.736971   -2.379881
    140          1           0       21.059412    1.083608   -0.727587
    141          1           0       20.930527    2.286887   -1.979296
    142          1           0       15.083864    5.243292   -0.810457
    143          1           0       12.662516    5.574218    0.932045
    144          1           0       14.596243    6.156675    1.901200
    145          1           0       15.700564    6.670096    0.612552
    146          1           0       16.114914    5.207436    1.605859
    147          1           0       13.049043    6.436293   -1.433339
    148          1           0       11.450288    6.181245   -0.745418
    149          1           0       12.292511    5.309528   -3.227353
    150          1           0       10.825055    4.794002   -2.392432
    151          1           0       12.322864    3.885687   -2.147306
    152          1           0        8.432611    3.202587    1.033403
    153          1           0        7.918428    1.963506    2.234286
    154          1           0        7.464361    1.788994    0.529020
    155          1           0        9.318408   -3.062088    0.130910
    156          1           0        8.187579   -5.949852    3.130261
    157          1           0        8.802709   -4.589557    4.137591
    158          1           0        9.831786   -5.857190    3.439426
 ---------------------------------------------------------------------

 SCF Done:  E(RwB97XD) =  -4070.65537239     A.U. after   19 cycles

 Excitation energies and oscillator strengths:

 Excited State   1:      Singlet-A      1.5970 eV  776.37 nm  f=0.4128  <S**2>=0.000
     309 -> 315       -0.16553
     312 -> 314        0.68790
     309 <- 315       -0.11231
 This state for optimization and/or second-order correction.
 Total Energy, E(TD-HF/TD-DFT) =  -4070.59668443
 Copying the excited state density for this state as the 1-particle RhoCI density.

 Excited State   2:      Singlet-A      1.6605 eV  746.65 nm  f=0.3989  <S**2>=0.000
     310 -> 316        0.18399
     311 -> 313        0.68393
     310 <- 316        0.11629

 Excited State   3:      Singlet-A      2.1344 eV  580.89 nm  f=0.1667  <S**2>=0.000
     310 -> 313        0.66022
     311 -> 316       -0.24163

 Excited State   4:      Singlet-A      2.1950 eV  564.84 nm  f=0.1069  <S**2>=0.000
     309 -> 314        0.63716
     312 -> 315        0.28948

 Excited State   5:      Singlet-A      3.2160 eV  385.53 nm  f=0.0019  <S**2>=0.000
     308 -> 314        0.67725

 The electronic state is 1-A.
 Alpha  occ. eigenvalues --  -46.95436 -46.93818 -19.30279 -19.30119 -19.24454
 Alpha  occ. eigenvalues --  -19.23925 -19.23667 -19.23644 -19.23518 -19.23477
 Alpha  occ. eigenvalues --  -14.47302 -14.46708 -14.46333 -14.46113 -14.44157
 Alpha  occ. eigenvalues --  -14.44085 -14.43444 -14.43401 -10.42776 -10.42346
 Alpha  occ. eigenvalues --  -10.39355 -10.39134 -10.38965 -10.38529 -10.36104
 Alpha  occ. eigenvalues --  -10.36038 -10.35370 -10.35363 -10.35078 -10.34893
 Alpha  occ. eigenvalues --  -10.34489 -10.34399 -10.34144 -10.34122 -10.34114
 Alpha  occ. eigenvalues --  -10.33993 -10.33884 -10.33505 -10.33423 -10.33220
 Alpha  occ. eigenvalues --  -10.33000 -10.32989 -10.32988 -10.32637 -10.32616
 Alpha  occ. eigenvalues --  -10.32523 -10.32522 -10.32520 -10.32312 -10.32236
 Alpha  occ. eigenvalues --  -10.32111 -10.32110 -10.32086 -10.32042 -10.31835
 Alpha  occ. eigenvalues --  -10.31776 -10.31757 -10.31595 -10.31542 -10.31482
 Alpha  occ. eigenvalues --  -10.31363 -10.31351 -10.31310 -10.31126 -10.30857
 Alpha  occ. eigenvalues --  -10.30803 -10.30692 -10.30644 -10.30634 -10.30376
 Alpha  occ. eigenvalues --  -10.30345 -10.30284 -10.30146 -10.30057 -10.30053
 Alpha  occ. eigenvalues --  -10.29925 -10.29647 -10.29564 -10.29562 -10.29478
 Alpha  occ. eigenvalues --  -10.29459 -10.29236 -10.29065 -10.28863 -10.28830
 Alpha  occ. eigenvalues --  -10.28634  -3.21489  -3.20004  -1.95062  -1.94574
 Alpha  occ. eigenvalues --   -1.94504  -1.93603  -1.93148  -1.92978  -1.19069
 Alpha  occ. eigenvalues --   -1.18027  -1.12696  -1.12119  -1.11689  -1.10424
 Alpha  occ. eigenvalues --   -1.09323  -1.08021  -1.07483  -1.07395  -1.06691
 Alpha  occ. eigenvalues --   -1.06157  -1.05897  -1.05503  -1.05061  -1.03941
 Alpha  occ. eigenvalues --   -0.95322  -0.94582  -0.90946  -0.90910  -0.90636
 Alpha  occ. eigenvalues --   -0.90513  -0.90102  -0.90054  -0.89838  -0.89719
 Alpha  occ. eigenvalues --   -0.89364  -0.89081  -0.88449  -0.88365  -0.86249
 Alpha  occ. eigenvalues --   -0.86212  -0.85810  -0.85653  -0.84561  -0.84387
 Alpha  occ. eigenvalues --   -0.83769  -0.83465  -0.83134  -0.83107  -0.82545
 Alpha  occ. eigenvalues --   -0.82275  -0.80351  -0.80308  -0.79446  -0.79400
 Alpha  occ. eigenvalues --   -0.79109  -0.79029  -0.78158  -0.78116  -0.77426
 Alpha  occ. eigenvalues --   -0.77102  -0.75529  -0.75195  -0.73750  -0.73520
 Alpha  occ. eigenvalues --   -0.71541  -0.71395  -0.71208  -0.70891  -0.70188
 Alpha  occ. eigenvalues --   -0.70088  -0.69119  -0.68017  -0.67735  -0.67551
 Alpha  occ. eigenvalues --   -0.67102  -0.66845  -0.66721  -0.66606  -0.66200
 Alpha  occ. eigenvalues --   -0.66119  -0.64233  -0.64072  -0.62198  -0.62178
 Alpha  occ. eigenvalues --   -0.61988  -0.61800  -0.61093  -0.61058  -0.60836
 Alpha  occ. eigenvalues --   -0.60286  -0.60267  -0.59962  -0.59874  -0.59272
 Alpha  occ. eigenvalues --   -0.58496  -0.58232  -0.57964  -0.57327  -0.56993
 Alpha  occ. eigenvalues --   -0.56986  -0.56771  -0.56654  -0.56176  -0.55987
 Alpha  occ. eigenvalues --   -0.55354  -0.55293  -0.55222  -0.55087  -0.54797
 Alpha  occ. eigenvalues --   -0.54739  -0.54616  -0.54477  -0.54193  -0.54164
 Alpha  occ. eigenvalues --   -0.54012  -0.53695  -0.53555  -0.53394  -0.53238
 Alpha  occ. eigenvalues --   -0.52679  -0.52520  -0.52254  -0.52185  -0.52142
 Alpha  occ. eigenvalues --   -0.51895  -0.51797  -0.51793  -0.51646  -0.51456
 Alpha  occ. eigenvalues --   -0.51157  -0.51139  -0.51003  -0.50847  -0.50725
 Alpha  occ. eigenvalues --   -0.50666  -0.50649  -0.50498  -0.50161  -0.50134
 Alpha  occ. eigenvalues --   -0.49950  -0.49770  -0.49653  -0.49496  -0.49404
 Alpha  occ. eigenvalues --   -0.49089  -0.49050  -0.48805  -0.48792  -0.48419
 Alpha  occ. eigenvalues --   -0.48414  -0.48373  -0.48088  -0.47918  -0.47879
 Alpha  occ. eigenvalues --   -0.47814  -0.47796  -0.47410  -0.47228  -0.47185
 Alpha  occ. eigenvalues --   -0.46948  -0.46618  -0.46450  -0.46141  -0.45853
 Alpha  occ. eigenvalues --   -0.45824  -0.45647  -0.45636  -0.45546  -0.45449
 Alpha  occ. eigenvalues --   -0.45284  -0.45239  -0.45162  -0.44921  -0.44772
 Alpha  occ. eigenvalues --   -0.44181  -0.43901  -0.43874  -0.43786  -0.43689
 Alpha  occ. eigenvalues --   -0.43503  -0.43496  -0.43450  -0.43224  -0.43068
 Alpha  occ. eigenvalues --   -0.43026  -0.42792  -0.42514  -0.42487  -0.42255
 Alpha  occ. eigenvalues --   -0.41928  -0.41916  -0.41748  -0.41698  -0.41446
 Alpha  occ. eigenvalues --   -0.40402  -0.40279  -0.40142  -0.39991  -0.39355
 Alpha  occ. eigenvalues --   -0.39267  -0.38999  -0.38652  -0.38631  -0.38534
 Alpha  occ. eigenvalues --   -0.38036  -0.37675  -0.36540  -0.36219  -0.35961
 Alpha  occ. eigenvalues --   -0.35430  -0.35415  -0.35075  -0.33644  -0.33530
 Alpha  occ. eigenvalues --   -0.33252  -0.33241  -0.33024  -0.32772  -0.32442
 Alpha  occ. eigenvalues --   -0.32396  -0.32248  -0.31209  -0.26503  -0.25739
 Alpha  occ. eigenvalues --   -0.23267  -0.22888
 Alpha virt. eigenvalues --   -0.07453  -0.07387   0.00408   0.00734   0.02319
 Alpha virt. eigenvalues --    0.02484   0.04509   0.04565   0.04951   0.06420
 Alpha virt. eigenvalues --    0.06878   0.07339   0.08036   0.08425   0.08562

 Mulliken charges:
               1
     1  Mg   0.971430
     2  C   -0.005896
     3  C   -0.072322
     4  C   -0.076363
     5  C   -0.099649
     6  N   -0.340984
     7  C   -0.009553
     8  C   -0.022211
     9  C   -0.153795
    10  C    0.065511
    11  C    0.013373
    12  C   -0.006120
    13  C   -0.111466
    14  H    0.047840
    15  N   -0.435339
    16  C    0.162654
    17  C   -0.218506
    18  C   -0.077981
    19  C    0.134570
    20  C    0.083742
    21  C    0.066499
    22  O   -0.256684
    23  C   -0.006640
    24  N   -0.468637
    25  C    0.098631
    26  C   -0.069388
    27  C   -0.080691
    28  C    0.140232
    29  C    0.040741
    30  C   -0.043678
    31  C   -0.003951
    32  N   -0.428168
    33  C    0.106801
    34  C   -0.178910
    35  C    0.017690
    36  C    0.137142
    37  C    0.064756
    38  C    0.098860
    39  O   -0.191603
    40  C   -0.123637
    41  C    0.249156
    42  O   -0.247201
    43  O   -0.362786
    44  C    0.139268
    45  H   -0.004165
    46  H    0.019861
    47  H   -0.001792
    48  H    0.044421
    49  H    0.034810
    50  H    0.042226
    51  H    0.043341
    52  H    0.037578
    53  H    0.035590
    54  H    0.054705
    55  H    0.050863
    56  H    0.053122
    57  H    0.065691
    58  H    0.049330
    59  H    0.025710
    60  H    0.051199
    61  H    0.045806
    62  H    0.060731
    63  H    0.028049
    64  H    0.022990
    65  H    0.041780
    66  H    0.042041
    67  H    0.041547
    68  H    0.022443
    69  H    0.020695
    70  H    0.035344
    71  H    0.017809
    72  H    0.051237
    73  H    0.062534
    74  H    0.044884
    75  H    0.051418
    76  H    0.074049
    77  H    0.057908
    78  H    0.059953
    79  H    0.069554
    80  Mg   0.974504
    81  C   -0.004162
    82  C   -0.064821
    83  C   -0.065427
    84  C   -0.074961
    85  N   -0.330647
    86  C    0.000544
    87  C   -0.084461
    88  C   -0.117731
    89  C    0.051554
    90  C    0.025236
    91  C    0.010958
    92  C   -0.102367
    93  H    0.032648
    94  N   -0.356405
    95  C    0.128915
    96  C   -0.163785
    97  C   -0.075487
    98  C    0.100005
    99  C    0.082223
   100  C    0.043256
   101  O   -0.246934
   102  C   -0.017001
   103  N   -0.351443
   104  C    0.050136
   105  C   -0.080570
   106  C   -0.041551
   107  C    0.061440
   108  C    0.035309
   109  C   -0.057967
   110  C   -0.043101
   111  N   -0.478623
   112  C    0.099571
   113  C   -0.189146
   114  C    0.040969
   115  C    0.137995
   116  C    0.096921
   117  C    0.037835
   118  O   -0.207887
   119  C   -0.056023
   120  C    0.260104
   121  O   -0.281359
   122  O   -0.359653
   123  C    0.146727
   124  H   -0.010911
   125  H    0.017298
   126  H   -0.000385
   127  H    0.048992
   128  H    0.042643
   129  H    0.031648
   130  H    0.050388
   131  H    0.040549
   132  H    0.012399
   133  H    0.032352
   134  H    0.056088
   135  H    0.054324
   136  H    0.030645
   137  H    0.036825
   138  H    0.063532
   139  H    0.053813
   140  H    0.071468
   141  H    0.050414
   142  H    0.036359
   143  H    0.036843
   144  H    0.036478
   145  H    0.040349
   146  H    0.051407
   147  H    0.029679
   148  H    0.029329
   149  H    0.038487
   150  H    0.037349
   151  H    0.035931
   152  H    0.026390
   153  H    0.066733
   154  H    0.061087
   155  H    0.060773
   156  H    0.053380
   157  H    0.075401
   158  H    0.036604
 Sum of Mulliken charges =  -0.00000

 Dipole moment (field-independent basis, Debye):
    X=              2.4371    Y=             -3.4335    Z=             -0.3035  Tot=              4.2215
 Quadrupole moment (field-independent basis, Debye-Ang):
   XX=           -484.6486   YY=           -452.8710   ZZ=           -519.5070
   XY=              0.5552   XZ=            -84.8901   YZ=            -24.0153

 Normal termination of Gaussian 16 at Mon Sep 20 04:39:15 2021.
