 Gaussian 16, Revision A.03,
 Gaussian 16:  ES64L-G16RevA.03 25-Dec-2016

 --------------------------------
 #p wB97XD/Def2SVP td=(nstates=5)
 --------------------------------

 --------------------------------
 TDDFT excited states in gaussian
 --------------------------------
 Symbolic Z-matrix:
 Charge =  0 Multiplicity = 1

                         Standard orientation:
 ---------------------------------------------------------------------
 Center     Atomic      Atomic             Coordinates (Angstroms)
 Number     Number       Type             X           Y           Z
 ---------------------------------------------------------------------
      1         12           0       29.467197    0.749206   -0.461581
      2          6           0       28.375636   -2.734796   -0.093013
      3          6           0       26.487794    1.539770    1.112538
      4          6           0       30.778431    3.579472    0.201839
      5          6           0       32.566941   -0.633135   -1.641620
      6          7           0       27.659901   -0.574691    0.556140
      7          6           0       27.432545   -1.933512    0.569357
      8          6           0       26.140930   -2.236951    1.413410
      9          6           0       25.430770   -0.877436    1.534224
     10          6           0       26.577682    0.086500    1.045046
     11          6           0       24.123863   -0.625592    0.673145
     12          6           0       26.433151   -2.946474    2.779818
     13          6           0       25.459195   -4.026615    3.198765
     14          1           0       24.404413   -3.638782    4.282085
     15          7           0       28.720196    2.369330    0.395444
     16          6           0       27.459914    2.571082    0.888912
     17          6           0       27.334116    3.964448    1.397339
     18          6           0       28.604786    4.545659    1.148633
     19          6           0       29.438751    3.479093    0.600108
     20          6           0       26.122056    4.587306    2.109149
     21          6           0       29.131042    5.913329    1.593226
     22          8           0       28.336582    6.666690    2.149453
     23          6           0       30.444313    6.380543    1.382938
     24          7           0       31.519145    1.286236   -0.457066
     25          6           0       31.693566    2.653181   -0.370194
     26          6           0       33.183163    2.981896   -0.773129
     27          6           0       33.809225    1.569238   -1.055749
     28          6           0       32.528664    0.705652   -1.152123
     29          6           0       33.357938    3.981027   -1.949655
     30          6           0       34.881201    0.992127   -0.045731
     31          6           0       36.328787    1.501134   -0.158270
     32          7           0       30.367902   -1.233021   -0.873200
     33          6           0       31.565529   -1.588595   -1.460765
     34          6           0       31.617672   -2.997854   -1.765852
     35          6           0       30.360431   -3.492404   -1.252873
     36          6           0       29.610981   -2.421789   -0.651424
     37          6           0       32.799339   -3.682926   -2.380113
     38          6           0       29.628935   -4.661505   -1.046901
     39          8           0       29.936385   -5.837570   -1.186570
     40          6           0       28.390849   -4.273995   -0.187429
     41          6           0       27.206268   -4.761902   -0.988359
     42          8           0       26.292277   -5.436338   -0.507374
     43          8           0       27.114278   -4.247529   -2.344078
     44          6           0       25.791478   -4.455492   -2.930998
     45          1           0       25.524660    1.823695    1.540587
     46          1           0       31.301201    4.538194    0.198698
     47          1           0       33.532693   -0.888096   -2.082755
     48          1           0       25.447084   -2.802067    0.789421
     49          1           0       25.252300   -0.604379    2.574261
     50          1           0       23.308278   -0.670637    1.394566
     51          1           0       23.960813   -1.432615   -0.040569
     52          1           0       24.119598    0.288525    0.079541
     53          1           0       26.365487   -2.297224    3.653118
     54          1           0       27.407683   -3.434416    2.752181
     55          1           0       26.052961   -4.898574    3.473106
     56          1           0       24.881041   -4.305535    2.317257
     57          1           0       25.981502    5.613418    1.768346
     58          1           0       26.365337    4.492047    3.167311
     59          1           0       25.203601    4.063056    1.848659
     60          1           0       30.587178    6.511048    0.309777
     61          1           0       31.225330    5.777265    1.845827
     62          1           0       30.431426    7.294792    1.977294
     63          1           0       33.769179    3.419526    0.034363
     64          1           0       34.235392    1.517405   -2.057353
     65          1           0       33.947926    3.444089   -2.692557
     66          1           0       33.913089    4.844361   -1.584153
     67          1           0       32.332308    4.207665   -2.243453
     68          1           0       34.863064   -0.079387   -0.247462
     69          1           0       34.620933    1.240914    0.983297
     70          1           0       36.248863    2.136914   -1.040496
     71          1           0       37.008011    0.699176   -0.450944
     72          1           0       36.726712    2.059402    0.688788
     73          1           0       33.633019   -3.468533   -1.712737
     74          1           0       33.107490   -3.249403   -3.331365
     75          1           0       32.724274   -4.769922   -2.347729
     76          1           0       28.449011   -4.859430    0.729966
     77          1           0       25.855635   -3.623774   -3.633611
     78          1           0       25.006765   -4.493084   -2.175441
     79          1           0       25.861478   -5.367706   -3.523636
     80         12           0      -29.937906   -0.083195   -0.593071
     81          6           0      -26.771025    1.034834    0.669896
     82          6           0      -29.208509   -3.149989    1.086999
     83          6           0      -33.162262   -1.017309   -0.733861
     84          6           0      -30.654154    3.147868   -1.455353
     85          7           0      -28.214874   -0.885781    0.728101
     86          6           0      -27.044801   -0.276304    1.075877
     87          6           0      -26.134848   -1.211823    1.946119
     88          6           0      -26.816578   -2.637616    1.675652
     89          6           0      -28.191986   -2.189992    1.207157
     90          6           0      -26.140174   -3.470334    0.610890
     91          6           0      -25.980248   -0.739667    3.382363
     92          6           0      -24.559187   -0.783638    4.001777
     93          1           0      -24.127219   -1.969645    4.983943
     94          7           0      -31.069034   -1.929693    0.004376
     95          6           0      -30.523981   -3.088701    0.595280
     96          6           0      -31.583492   -4.097623    0.716176
     97          6           0      -32.755871   -3.478046    0.128463
     98          6           0      -32.406518   -2.100229   -0.143008
     99          6           0      -31.477630   -5.435615    1.345456
    100          6           0      -34.064802   -4.178783   -0.136378
    101          8           0      -34.108757   -5.379738    0.008552
    102          6           0      -35.329829   -3.484382   -0.585338
    103          7           0      -31.593365    0.966048   -0.910624
    104          6           0      -32.801294    0.294051   -1.075292
    105          6           0      -33.851767    1.333843   -1.472321
    106          6           0      -33.004405    2.587175   -1.901363
    107          6           0      -31.645427    2.191988   -1.430748
    108          6           0      -34.969502    0.909693   -2.494359
    109          6           0      -33.476676    3.993281   -1.419606
    110          6           0      -33.702760    5.048515   -2.452726
    111          7           0      -28.938514    1.705961   -0.565081
    112          6           0      -29.321184    2.954365   -1.023826
    113          6           0      -28.170452    3.877853   -1.049177
    114          6           0      -27.166016    3.136303   -0.314088
    115          6           0      -27.706462    1.872653   -0.056867
    116          6           0      -28.056975    5.277268   -1.594073
    117          6           0      -25.764944    3.224100    0.193159
    118          8           0      -24.998614    4.144804    0.210379
    119          6           0      -25.541376    1.908924    0.932556
    120          6           0      -24.306010    1.271937    0.369669
    121          8           0      -24.316246    0.893307   -0.781926
    122          8           0      -23.230865    1.071914    1.286782
    123          6           0      -22.078847    0.256060    0.796351
    124          1           0      -29.002697   -4.120869    1.542858
    125          1           0      -34.235850   -1.165206   -0.862026
    126          1           0      -30.865309    4.111874   -1.922222
    127          1           0      -25.146959   -1.340455    1.504750
    128          1           0      -26.967400   -3.189253    2.603504
    129          1           0      -26.470842   -3.114248   -0.364524
    130          1           0      -26.393447   -4.511392    0.810787
    131          1           0      -25.053011   -3.440520    0.531069
    132          1           0      -26.586879   -1.414286    3.985718
    133          1           0      -26.490659    0.219064    3.473722
    134          1           0      -24.499966    0.161823    4.541476
    135          1           0      -23.762662   -0.766918    3.257788
    136          1           0      -31.325184   -6.142351    0.530305
    137          1           0      -32.445237   -5.709654    1.765973
    138          1           0      -30.732977   -5.622438    2.120134
    139          1           0      -36.219075   -4.113313   -0.622800
    140          1           0      -35.125096   -3.136470   -1.597905
    141          1           0      -35.652409   -2.578554   -0.073334
    142          1           0      -34.406778    1.444695   -0.540326
    143          1           0      -32.872884    2.550816   -2.982377
    144          1           0      -34.657750    0.033284   -3.063163
    145          1           0      -35.237948    1.748845   -3.135867
    146          1           0      -35.894375    0.680890   -1.965321
    147          1           0      -32.756934    4.374569   -0.695324
    148          1           0      -34.366158    3.837729   -0.809237
    149          1           0      -32.895456    5.778555   -2.398300
    150          1           0      -34.636656    5.569990   -2.243394
    151          1           0      -33.751172    4.732823   -3.494661
    152          1           0      -27.017081    5.537941   -1.789909
    153          1           0      -28.498690    5.935256   -0.845190
    154          1           0      -28.714068    5.350238   -2.460869
    155          1           0      -25.527100    2.133896    1.999099
    156          1           0      -21.443713    0.878757    0.166077
    157          1           0      -22.422868   -0.561413    0.163075
    158          1           0      -21.520227   -0.166035    1.631521
 ---------------------------------------------------------------------

 SCF Done:  E(RwB97XD) =  -4070.55739259     A.U. after   18 cycles

 Excitation energies and oscillator strengths:

 Excited State   1:      Singlet-A      1.6113 eV  769.45 nm  f=0.3975  <S**2>=0.000
     310 -> 316        0.17519
     312 -> 313        0.68624
     310 <- 316        0.11590
 This state for optimization and/or second-order correction.
 Total Energy, E(TD-HF/TD-DFT) =  -4070.49817697
 Copying the excited state density for this state as the 1-particle RhoCI density.

 Excited State   2:      Singlet-A      1.6685 eV  743.07 nm  f=0.3538  <S**2>=0.000
     309 -> 315        0.20209
     311 -> 314        0.67714
     309 <- 315        0.11956

 Excited State   3:      Singlet-A      2.1827 eV  568.04 nm  f=0.1259  <S**2>=0.000
     310 -> 313        0.63922
     312 -> 316       -0.28431

 Excited State   4:      Singlet-A      2.1895 eV  566.28 nm  f=0.0664  <S**2>=0.000
     309 -> 314        0.61434
     311 -> 315       -0.33144

 Excited State   5:      Singlet-A      3.1513 eV  393.43 nm  f=0.0019  <S**2>=0.000
     306 -> 313       -0.12221
     307 -> 313        0.66855
     312 -> 316        0.10230

 The electronic state is 1-A.
 Alpha  occ. eigenvalues --  -46.97094 -46.95672 -19.30517 -19.28935 -19.25683
 Alpha  occ. eigenvalues --  -19.25028 -19.24796 -19.23830 -19.22973 -19.22897
 Alpha  occ. eigenvalues --  -14.47407 -14.47345 -14.46567 -14.46274 -14.45413
 Alpha  occ. eigenvalues --  -14.43945 -14.43748 -14.43737 -10.44119 -10.43270
 Alpha  occ. eigenvalues --  -10.39447 -10.38892 -10.38452 -10.37484 -10.36410
 Alpha  occ. eigenvalues --  -10.36042 -10.35963 -10.35644 -10.35603 -10.35455
 Alpha  occ. eigenvalues --  -10.35427 -10.35338 -10.35003 -10.34707 -10.34490
 Alpha  occ. eigenvalues --  -10.34486 -10.34307 -10.34290 -10.33870 -10.33510
 Alpha  occ. eigenvalues --  -10.33363 -10.33231 -10.33231 -10.33120 -10.33063
 Alpha  occ. eigenvalues --  -10.32978 -10.32906 -10.32899 -10.32856 -10.32792
 Alpha  occ. eigenvalues --  -10.32702 -10.32677 -10.32444 -10.32370 -10.32297
 Alpha  occ. eigenvalues --  -10.32272 -10.32111 -10.32096 -10.32067 -10.31833
 Alpha  occ. eigenvalues --  -10.31633 -10.31590 -10.31396 -10.31300 -10.31048
 Alpha  occ. eigenvalues --  -10.30868 -10.30858 -10.30846 -10.30773 -10.30728
 Alpha  occ. eigenvalues --  -10.30614 -10.30607 -10.30510 -10.30496 -10.30397
 Alpha  occ. eigenvalues --  -10.30366 -10.30296 -10.30117 -10.30033 -10.29909
 Alpha  occ. eigenvalues --  -10.29745 -10.29649 -10.29630 -10.29543 -10.29280
 Alpha  occ. eigenvalues --  -10.29252  -3.22998  -3.21705  -1.96522  -1.96163
 Alpha  occ. eigenvalues --   -1.95917  -1.95236  -1.94827  -1.94676  -1.17534
 Alpha  occ. eigenvalues --   -1.16080  -1.13998  -1.12684  -1.12403  -1.11192
 Alpha  occ. eigenvalues --   -1.10104  -1.08549  -1.07106  -1.06584  -1.05597
 Alpha  occ. eigenvalues --   -1.05361  -1.05352  -1.04807  -1.03541  -1.03087
 Alpha  occ. eigenvalues --   -0.94873  -0.94760  -0.91269  -0.90895  -0.90822
 Alpha  occ. eigenvalues --   -0.90766  -0.90405  -0.90351  -0.89536  -0.88983
 Alpha  occ. eigenvalues --   -0.88884  -0.88177  -0.87854  -0.87591  -0.86924
 Alpha  occ. eigenvalues --   -0.86405  -0.85857  -0.85768  -0.85599  -0.84481
 Alpha  occ. eigenvalues --   -0.84411  -0.83742  -0.83113  -0.82499  -0.82179
 Alpha  occ. eigenvalues --   -0.81847  -0.80240  -0.80089  -0.79439  -0.79279
 Alpha  occ. eigenvalues --   -0.78958  -0.78749  -0.78261  -0.77766  -0.77230
 Alpha  occ. eigenvalues --   -0.77169  -0.74827  -0.74649  -0.73920  -0.73756
 Alpha  occ. eigenvalues --   -0.71448  -0.71101  -0.70901  -0.70552  -0.69921
 Alpha  occ. eigenvalues --   -0.69712  -0.69002  -0.68689  -0.67860  -0.67512
 Alpha  occ. eigenvalues --   -0.67329  -0.67067  -0.67001  -0.66557  -0.66325
 Alpha  occ. eigenvalues --   -0.66032  -0.64349  -0.63887  -0.62416  -0.61812
 Alpha  occ. eigenvalues --   -0.61807  -0.61508  -0.61264  -0.61196  -0.61048
 Alpha  occ. eigenvalues --   -0.60909  -0.60332  -0.59636  -0.59187  -0.59000
 Alpha  occ. eigenvalues --   -0.58668  -0.58500  -0.57606  -0.57591  -0.57426
 Alpha  occ. eigenvalues --   -0.56750  -0.56298  -0.56237  -0.55837  -0.55835
 Alpha  occ. eigenvalues --   -0.55684  -0.55477  -0.55315  -0.55229  -0.55060
 Alpha  occ. eigenvalues --   -0.54851  -0.54846  -0.54441  -0.54171  -0.53908
 Alpha  occ. eigenvalues --   -0.53771  -0.53680  -0.53674  -0.53420  -0.53241
 Alpha  occ. eigenvalues --   -0.53031  -0.52971  -0.52841  -0.52524  -0.52344
 Alpha  occ. eigenvalues --   -0.51870  -0.51816  -0.51813  -0.51799  -0.51679
 Alpha  occ. eigenvalues --   -0.51510  -0.51244  -0.51103  -0.51017  -0.50901
 Alpha  occ. eigenvalues --   -0.50649  -0.50565  -0.50531  -0.50336  -0.50096
 Alpha  occ. eigenvalues --   -0.50088  -0.49899  -0.49665  -0.49606  -0.49241
 Alpha  occ. eigenvalues --   -0.49012  -0.48936  -0.48659  -0.48470  -0.48373
 Alpha  occ. eigenvalues --   -0.48343  -0.48133  -0.48045  -0.47986  -0.47905
 Alpha  occ. eigenvalues --   -0.47853  -0.47753  -0.47317  -0.47202  -0.46906
 Alpha  occ. eigenvalues --   -0.46906  -0.46609  -0.46600  -0.46441  -0.46319
 Alpha  occ. eigenvalues --   -0.46026  -0.45725  -0.45721  -0.45569  -0.45565
 Alpha  occ. eigenvalues --   -0.45404  -0.45246  -0.45156  -0.44818  -0.44559
 Alpha  occ. eigenvalues --   -0.44554  -0.44488  -0.44396  -0.44386  -0.44261
 Alpha  occ. eigenvalues --   -0.44044  -0.43909  -0.43837  -0.43554  -0.43426
 Alpha  occ. eigenvalues --   -0.43258  -0.43022  -0.42732  -0.42473  -0.42171
 Alpha  occ. eigenvalues --   -0.42156  -0.42122  -0.41832  -0.41217  -0.41187
 Alpha  occ. eigenvalues --   -0.40779  -0.40419  -0.39813  -0.39653  -0.39617
 Alpha  occ. eigenvalues --   -0.39355  -0.39165  -0.39160  -0.38613  -0.38288
 Alpha  occ. eigenvalues --   -0.37767  -0.37344  -0.36999  -0.36548  -0.36394
 Alpha  occ. eigenvalues --   -0.35938  -0.35460  -0.35269  -0.33841  -0.33635
 Alpha  occ. eigenvalues --   -0.33529  -0.33322  -0.33207  -0.32400  -0.32119
 Alpha  occ. eigenvalues --   -0.31863  -0.30915  -0.30868  -0.26403  -0.26228
 Alpha  occ. eigenvalues --   -0.23270  -0.22922
 Alpha virt. eigenvalues --   -0.07344  -0.07138  -0.00805   0.00433   0.01876
 Alpha virt. eigenvalues --    0.02718   0.03640   0.04233   0.04317   0.04820
 Alpha virt. eigenvalues --    0.06511   0.06814   0.06917   0.06979   0.07976

 Mulliken charges:
               1
     1  Mg   0.966264
     2  C   -0.023705
     3  C   -0.063254
     4  C   -0.092112
     5  C   -0.100988
     6  N   -0.282646
     7  C   -0.034065
     8  C    0.018225
     9  C   -0.119661
    10  C   -0.008125
    11  C    0.015376
    12  C    0.017574
    13  C   -0.125791
    14  H    0.022208
    15  N   -0.499373
    16  C    0.163223
    17  C   -0.190188
    18  C   -0.055652
    19  C    0.215223
    20  C    0.097068
    21  C    0.017728
    22  O   -0.245746
    23  C    0.020172
    24  N   -0.384821
    25  C    0.048346
    26  C   -0.125735
    27  C   -0.090105
    28  C    0.045098
    29  C    0.037759
    30  C   -0.003794
    31  C   -0.042750
    32  N   -0.423490
    33  C    0.155236
    34  C   -0.159593
    35  C   -0.021046
    36  C    0.159126
    37  C    0.093615
    38  C    0.074464
    39  O   -0.216354
    40  C   -0.098821
    41  C    0.286810
    42  O   -0.256885
    43  O   -0.417832
    44  C    0.139154
    45  H   -0.001265
    46  H   -0.023752
    47  H   -0.001913
    48  H    0.034672
    49  H    0.044276
    50  H    0.048576
    51  H    0.036643
    52  H    0.049369
    53  H    0.048457
    54  H    0.043922
    55  H    0.057354
    56  H    0.052601
    57  H    0.068224
    58  H    0.069338
    59  H    0.030861
    60  H    0.075431
    61  H    0.063999
    62  H    0.054827
    63  H    0.035895
    64  H    0.019947
    65  H    0.037846
    66  H    0.042233
    67  H    0.042235
    68  H    0.028953
    69  H    0.036388
    70  H    0.015405
    71  H    0.040187
    72  H    0.050254
    73  H    0.034109
    74  H    0.047815
    75  H    0.062817
    76  H    0.072087
    77  H    0.050727
    78  H    0.068782
    79  H    0.052568
    80  Mg   0.981545
    81  C   -0.076400
    82  C   -0.054057
    83  C   -0.080009
    84  C   -0.124381
    85  N   -0.313011
    86  C   -0.015861
    87  C   -0.065946
    88  C   -0.119768
    89  C    0.048987
    90  C    0.041526
    91  C    0.037341
    92  C   -0.107633
    93  H    0.023545
    94  N   -0.419610
    95  C    0.112280
    96  C   -0.143767
    97  C   -0.073691
    98  C    0.168725
    99  C    0.081080
   100  C    0.035461
   101  O   -0.234905
   102  C   -0.012063
   103  N   -0.451940
   104  C    0.092032
   105  C   -0.128671
   106  C   -0.033736
   107  C    0.089348
   108  C    0.013860
   109  C    0.001044
   110  C   -0.047261
   111  N   -0.442286
   112  C    0.135089
   113  C   -0.189483
   114  C   -0.106326
   115  C    0.178464
   116  C    0.090774
   117  C    0.132743
   118  O   -0.174085
   119  C   -0.015177
   120  C    0.278307
   121  O   -0.234437
   122  O   -0.404962
   123  C    0.133375
   124  H   -0.006117
   125  H   -0.037491
   126  H   -0.011834
   127  H    0.025603
   128  H    0.028732
   129  H    0.043270
   130  H    0.042633
   131  H    0.036712
   132  H    0.037367
   133  H    0.040601
   134  H    0.055485
   135  H    0.048128
   136  H    0.055555
   137  H    0.053900
   138  H    0.036870
   139  H    0.051238
   140  H    0.050099
   141  H    0.057939
   142  H    0.051513
   143  H    0.033589
   144  H    0.044829
   145  H    0.038334
   146  H    0.031051
   147  H    0.038622
   148  H    0.025383
   149  H    0.036247
   150  H    0.036904
   151  H    0.035848
   152  H    0.071570
   153  H    0.053866
   154  H    0.034421
   155  H    0.072699
   156  H    0.063771
   157  H    0.051499
   158  H    0.065102
 Sum of Mulliken charges =  -0.00000

 Dipole moment (field-independent basis, Debye):
    X=              0.0455    Y=              5.8933    Z=             -2.1723  Tot=              6.2811
 Quadrupole moment (field-independent basis, Debye-Ang):
   XX=           -287.3549   YY=           -583.8621   ZZ=           -503.8241
   XY=             97.7626   XZ=             -7.7434   YZ=            -21.2977

 Normal termination of Gaussian 16 at Mon Sep 20 06:42:49 2021.
