 Gaussian 16, Revision A.03,
 Gaussian 16:  ES64L-G16RevA.03 25-Dec-2016

 --------------------------------
 #p wB97XD/Def2SVP td=(nstates=5)
 --------------------------------

 --------------------------------
 TDDFT excited states in gaussian
 --------------------------------
 Symbolic Z-matrix:
 Charge =  0 Multiplicity = 1

                         Standard orientation:
 ---------------------------------------------------------------------
 Center     Atomic      Atomic             Coordinates (Angstroms)
 Number     Number       Type             X           Y           Z
 ---------------------------------------------------------------------
      1         12           0      -27.706038   -0.698480    0.240805
      2          6           0      -28.521685    2.610445    0.116772
      3          6           0      -24.702240    0.064459   -1.464785
      4          6           0      -26.974287   -3.964426    0.134158
      5          6           0      -30.621530   -1.309322    1.951231
      6          7           0      -26.866686    1.045276   -0.852072
      7          6           0      -27.352708    2.342567   -0.645000
      8          6           0      -26.466198    3.413655   -1.341295
      9          6           0      -25.332198    2.489501   -1.859156
     10          6           0      -25.668598    1.074222   -1.425396
     11          6           0      -24.876649    2.504494   -3.380428
     12          6           0      -25.922857    4.598731   -0.427553
     13          6           0      -25.023210    5.580799   -1.224837
     14          1           0      -25.687750    6.933537   -1.484319
     15          7           0      -25.997010   -1.808440   -0.535336
     16          6           0      -24.807728   -1.261916   -0.967364
     17          6           0      -23.969642   -2.392334   -1.349683
     18          6           0      -24.649326   -3.563638   -0.884042
     19          6           0      -25.922219   -3.161227   -0.374073
     20          6           0      -22.655533   -2.180897   -1.997007
     21          6           0      -24.095372   -5.015881   -1.095490
     22          8           0      -24.765374   -6.048153   -0.889476
     23          6           0      -22.708096   -5.218612   -1.646720
     24          7           0      -28.620053   -2.305458    0.877824
     25          6           0      -28.134171   -3.633948    0.720295
     26          6           0      -29.206365   -4.645548    1.056385
     27          6           0      -30.059865   -3.814519    2.012480
     28          6           0      -29.737364   -2.370853    1.653960
     29          6           0      -30.000410   -5.135950   -0.200695
     30          6           0      -29.682308   -4.032443    3.494791
     31          6           0      -30.310021   -5.184327    4.232777
     32          7           0      -29.347759    0.350500    0.915278
     33          6           0      -30.375916    0.029108    1.716963
     34          6           0      -31.193309    1.187039    1.928874
     35          6           0      -30.514301    2.236327    1.346836
     36          6           0      -29.359444    1.684807    0.770572
     37          6           0      -32.445383    1.147910    2.733682
     38          6           0      -30.564417    3.620030    1.136122
     39          8           0      -31.360908    4.465135    1.496371
     40          6           0      -29.234264    3.939401    0.305318
     41          6           0      -29.636863    4.605940   -0.962304
     42          8           0      -30.243668    4.115938   -1.883427
     43          8           0      -29.110513    5.830925   -1.053104
     44          6           0      -29.404070    6.595564   -2.326057
     45          1           0      -23.735424    0.397182   -1.847836
     46          1           0      -26.746132   -5.031956    0.112859
     47          1           0      -31.496626   -1.401852    2.597289
     48          1           0      -27.022354    3.826880   -2.182804
     49          1           0      -24.412708    2.704225   -1.313787
     50          1           0      -23.810527    2.372348   -3.566792
     51          1           0      -25.340920    3.345203   -3.896256
     52          1           0      -25.302799    1.589150   -3.790870
     53          1           0      -25.429576    4.076973    0.391615
     54          1           0      -26.780259    5.130422   -0.015120
     55          1           0      -24.644995    5.092608   -2.123018
     56          1           0      -24.164546    5.795912   -0.589495
     57          1           0      -22.728661   -2.535718   -3.025220
     58          1           0      -21.922791   -2.646121   -1.337628
     59          1           0      -22.388021   -1.124140   -1.993684
     60          1           0      -22.469905   -6.282045   -1.668722
     61          1           0      -22.058965   -4.801593   -0.875545
     62          1           0      -22.484693   -4.758091   -2.608711
     63          1           0      -28.779846   -5.527937    1.534233
     64          1           0      -31.130364   -3.979897    1.892635
     65          1           0      -30.687918   -4.368693   -0.554584
     66          1           0      -30.539221   -6.055971    0.027449
     67          1           0      -29.241870   -5.356188   -0.951027
     68          1           0      -29.827760   -3.141826    4.104820
     69          1           0      -28.600589   -4.135471    3.581771
     70          1           0      -29.491563   -5.820515    4.568451
     71          1           0      -30.795713   -5.748509    3.436446
     72          1           0      -31.015325   -4.894096    5.011672
     73          1           0      -32.249983    1.474784    3.754251
     74          1           0      -33.055920    0.245040    2.700263
     75          1           0      -33.081956    1.919589    2.300452
     76          1           0      -28.614895    4.612223    0.898885
     77          1           0      -29.152192    5.936510   -3.157195
     78          1           0      -28.790380    7.489259   -2.442157
     79          1           0      -30.465617    6.843966   -2.326039
     80         12           0       28.430936    0.451366    0.140716
     81          6           0       25.156140    0.405509   -0.956118
     82          6           0       27.261893    1.159895    3.300090
     83          6           0       31.599953   -0.089022    1.350887
     84          6           0       29.512373   -0.369372   -3.022838
     85          7           0       26.453426    0.548485    1.097610
     86          6           0       25.259107    0.566004    0.404515
     87          6           0       24.068401    0.805863    1.328905
     88          6           0       24.788046    1.379674    2.606002
     89          6           0       26.228601    0.967482    2.340508
     90          6           0       24.561997    2.922695    2.943965
     91          6           0       23.129014   -0.415958    1.583170
     92          6           0       21.643952   -0.130681    1.507197
     93          1           0       20.972620   -0.219727    2.868882
     94          7           0       29.258351    0.517758    2.045704
     95          6           0       28.639068    0.847173    3.184854
     96          6           0       29.581482    0.894293    4.289325
     97          6           0       30.850127    0.550764    3.852873
     98          6           0       30.625302    0.252975    2.373308
     99          6           0       29.130257    1.203929    5.795509
    100          6           0       32.172564    0.557524    4.691685
    101          8           0       32.105179    0.820017    5.925851
    102          6           0       33.483194    0.217038    4.092568
    103          7           0       30.322884   -0.404224   -0.688194
    104          6           0       31.473481   -0.352659   -0.057444
    105          6           0       32.660331   -0.500620   -0.986384
    106          6           0       32.077611   -0.692066   -2.427691
    107          6           0       30.537231   -0.404343   -2.087823
    108          6           0       33.901618    0.433654   -0.823461
    109          6           0       32.261183   -2.040604   -3.182419
    110          6           0       32.021348   -1.921580   -4.673292
    111          7           0       27.509745    0.070531   -1.669394
    112          6           0       28.092337   -0.177054   -2.933889
    113          6           0       27.036725   -0.192818   -3.909538
    114          6           0       25.837890    0.066038   -3.201368
    115          6           0       26.215845    0.167202   -1.865369
    116          6           0       27.200823   -0.208295   -5.422040
    117          6           0       24.484345    0.246370   -3.387135
    118          8           0       23.723568    0.136453   -4.309742
    119          6           0       23.916626    0.337865   -1.876470
    120          6           0       23.339629   -1.052963   -1.617198
    121          8           0       23.979047   -2.040765   -1.310648
    122          8           0       21.972004   -0.961060   -1.819492
    123          6           0       21.228822   -2.213756   -1.729640
    124          1           0       26.979062    1.576402    4.268935
    125          1           0       32.584755   -0.230612    1.800277
    126          1           0       29.718905   -0.484805   -4.088881
    127          1           0       23.489004    1.626299    0.906476
    128          1           0       24.526240    0.717843    3.432357
    129          1           0       25.449025    3.147800    3.535986
    130          1           0       23.747231    3.113682    3.642819
    131          1           0       24.442824    3.599617    2.098100
    132          1           0       23.399230   -0.728588    2.592011
    133          1           0       23.368912   -1.341250    1.059759
    134          1           0       21.211527   -0.852581    0.814024
    135          1           0       21.429543    0.870137    1.131854
    136          1           0       28.058283    1.344941    5.939966
    137          1           0       29.639368    2.091644    6.172317
    138          1           0       29.297800    0.367387    6.472493
    139          1           0       33.706409    0.914523    3.285850
    140          1           0       33.553231   -0.844716    3.855826
    141          1           0       34.204040    0.540186    4.842579
    142          1           0       33.181370   -1.456829   -0.934333
    143          1           0       32.254104    0.172865   -3.067538
    144          1           0       33.775203    0.931149    0.139098
    145          1           0       34.068605    1.097624   -1.672393
    146          1           0       34.851659   -0.094616   -0.741836
    147          1           0       31.604418   -2.754202   -2.685071
    148          1           0       33.275410   -2.350677   -2.931040
    149          1           0       32.664266   -2.650624   -5.167130
    150          1           0       32.248210   -0.946670   -5.106410
    151          1           0       31.009385   -2.259155   -4.897207
    152          1           0       26.278245   -0.011652   -5.968266
    153          1           0       27.622973   -1.174027   -5.696947
    154          1           0       27.922598    0.540215   -5.749150
    155          1           0       23.247233    1.189919   -1.754137
    156          1           0       21.532853   -2.875154   -2.541115
    157          1           0       20.152210   -2.047017   -1.723605
    158          1           0       21.505682   -2.733966   -0.813105
 ---------------------------------------------------------------------

 SCF Done:  E(RwB97XD) =  -4070.63405114     A.U. after   19 cycles

 Excitation energies and oscillator strengths:

 Excited State   1:      Singlet-A      1.5970 eV  776.37 nm  f=0.3909  <S**2>=0.000
     309 -> 316       -0.16564
     312 -> 313        0.68828
     309 <- 316       -0.11238
 This state for optimization and/or second-order correction.
 Total Energy, E(TD-HF/TD-DFT) =  -4070.57536342
 Copying the excited state density for this state as the 1-particle RhoCI density.

 Excited State   2:      Singlet-A      1.8713 eV  662.57 nm  f=0.3746  <S**2>=0.000
     310 -> 315        0.14188
     311 -> 314        0.68597

 Excited State   3:      Singlet-A      2.1949 eV  564.86 nm  f=0.1056  <S**2>=0.000
     309 -> 313        0.63719
     312 -> 316        0.28946

 Excited State   4:      Singlet-A      2.2255 eV  557.11 nm  f=0.1260  <S**2>=0.000
     310 -> 314        0.64385
     311 -> 315       -0.24650
     311 -> 317        0.10807

 Excited State   5:      Singlet-A      3.2154 eV  385.59 nm  f=0.0019  <S**2>=0.000
     307 -> 313        0.67728

 The electronic state is 1-A.
 Alpha  occ. eigenvalues --  -46.95774 -46.93857 -19.30155 -19.29705 -19.25363
 Alpha  occ. eigenvalues --  -19.24749 -19.24494 -19.23703 -19.23552 -19.22669
 Alpha  occ. eigenvalues --  -14.47340 -14.46933 -14.46652 -14.46370 -14.45235
 Alpha  occ. eigenvalues --  -14.43484 -14.43437 -14.43030 -10.42908 -10.42382
 Alpha  occ. eigenvalues --  -10.41119 -10.39169 -10.39006 -10.37363 -10.37310
 Alpha  occ. eigenvalues --  -10.36545 -10.36141 -10.36071 -10.35849 -10.35406
 Alpha  occ. eigenvalues --  -10.35270 -10.34867 -10.34528 -10.34368 -10.34102
 Alpha  occ. eigenvalues --  -10.34030 -10.33790 -10.33543 -10.33467 -10.33406
 Alpha  occ. eigenvalues --  -10.33258 -10.33037 -10.33026 -10.32677 -10.32654
 Alpha  occ. eigenvalues --  -10.32511 -10.32432 -10.32319 -10.32274 -10.32261
 Alpha  occ. eigenvalues --  -10.32229 -10.32152 -10.32136 -10.31873 -10.31796
 Alpha  occ. eigenvalues --  -10.31586 -10.31520 -10.31396 -10.31378 -10.31354
 Alpha  occ. eigenvalues --  -10.31199 -10.31161 -10.31125 -10.31078 -10.31055
 Alpha  occ. eigenvalues --  -10.30963 -10.30841 -10.30804 -10.30798 -10.30785
 Alpha  occ. eigenvalues --  -10.30729 -10.30668 -10.30510 -10.30411 -10.30382
 Alpha  occ. eigenvalues --  -10.30092 -10.29901 -10.29680 -10.29648 -10.29592
 Alpha  occ. eigenvalues --  -10.29515 -10.29496 -10.29103 -10.29101 -10.28898
 Alpha  occ. eigenvalues --  -10.27011  -3.21668  -3.20042  -1.95236  -1.94793
 Alpha  occ. eigenvalues --   -1.94638  -1.93642  -1.93186  -1.93017  -1.19105
 Alpha  occ. eigenvalues --   -1.17571  -1.12737  -1.11952  -1.11460  -1.10458
 Alpha  occ. eigenvalues --   -1.10049  -1.09359  -1.07521  -1.06626  -1.05935
 Alpha  occ. eigenvalues --   -1.05890  -1.05299  -1.05098  -1.04560  -1.03979
 Alpha  occ. eigenvalues --   -0.95361  -0.93486  -0.91049  -0.90946  -0.90673
 Alpha  occ. eigenvalues --   -0.90552  -0.90372  -0.89970  -0.89876  -0.89119
 Alpha  occ. eigenvalues --   -0.89022  -0.88719  -0.88486  -0.87734  -0.86424
 Alpha  occ. eigenvalues --   -0.86286  -0.85847  -0.85562  -0.85146  -0.84423
 Alpha  occ. eigenvalues --   -0.84010  -0.83502  -0.83171  -0.82636  -0.82581
 Alpha  occ. eigenvalues --   -0.82171  -0.80345  -0.79609  -0.79481  -0.79147
 Alpha  occ. eigenvalues --   -0.79118  -0.78661  -0.78152  -0.77281  -0.77138
 Alpha  occ. eigenvalues --   -0.77107  -0.75233  -0.74372  -0.73787  -0.73696
 Alpha  occ. eigenvalues --   -0.71680  -0.71432  -0.71118  -0.70932  -0.70223
 Alpha  occ. eigenvalues --   -0.69866  -0.69388  -0.68054  -0.67773  -0.67567
 Alpha  occ. eigenvalues --   -0.67412  -0.66881  -0.66718  -0.66643  -0.66157
 Alpha  occ. eigenvalues --   -0.66048  -0.64109  -0.63687  -0.62213  -0.62051
 Alpha  occ. eigenvalues --   -0.62026  -0.61443  -0.61131  -0.61054  -0.60874
 Alpha  occ. eigenvalues --   -0.60487  -0.60324  -0.60000  -0.59779  -0.59342
 Alpha  occ. eigenvalues --   -0.58533  -0.58481  -0.58001  -0.57424  -0.57022
 Alpha  occ. eigenvalues --   -0.56986  -0.56690  -0.56213  -0.56104  -0.55933
 Alpha  occ. eigenvalues --   -0.55682  -0.55389  -0.55329  -0.55291  -0.55129
 Alpha  occ. eigenvalues --   -0.54832  -0.54715  -0.54652  -0.54230  -0.53964
 Alpha  occ. eigenvalues --   -0.53732  -0.53593  -0.53513  -0.53274  -0.52990
 Alpha  occ. eigenvalues --   -0.52686  -0.52513  -0.52292  -0.52178  -0.52149
 Alpha  occ. eigenvalues --   -0.51979  -0.51930  -0.51834  -0.51760  -0.51682
 Alpha  occ. eigenvalues --   -0.51423  -0.51178  -0.50999  -0.50882  -0.50687
 Alpha  occ. eigenvalues --   -0.50629  -0.50417  -0.50170  -0.50142  -0.49985
 Alpha  occ. eigenvalues --   -0.49689  -0.49537  -0.49440  -0.49298  -0.49183
 Alpha  occ. eigenvalues --   -0.49086  -0.48840  -0.48520  -0.48451  -0.48410
 Alpha  occ. eigenvalues --   -0.48136  -0.48053  -0.47955  -0.47935  -0.47853
 Alpha  occ. eigenvalues --   -0.47447  -0.47223  -0.47144  -0.47126  -0.46979
 Alpha  occ. eigenvalues --   -0.46814  -0.46655  -0.46618  -0.46274  -0.46178
 Alpha  occ. eigenvalues --   -0.45866  -0.45684  -0.45673  -0.45523  -0.45488
 Alpha  occ. eigenvalues --   -0.45326  -0.45274  -0.45100  -0.44809  -0.44786
 Alpha  occ. eigenvalues --   -0.44471  -0.44462  -0.44104  -0.43994  -0.43910
 Alpha  occ. eigenvalues --   -0.43724  -0.43539  -0.43533  -0.43519  -0.43103
 Alpha  occ. eigenvalues --   -0.42828  -0.42664  -0.42552  -0.42349  -0.42292
 Alpha  occ. eigenvalues --   -0.42095  -0.41964  -0.41782  -0.41737  -0.41243
 Alpha  occ. eigenvalues --   -0.40901  -0.40315  -0.40034  -0.40019  -0.39393
 Alpha  occ. eigenvalues --   -0.39290  -0.39036  -0.38667  -0.38613  -0.38572
 Alpha  occ. eigenvalues --   -0.38333  -0.37292  -0.36403  -0.36256  -0.36160
 Alpha  occ. eigenvalues --   -0.35998  -0.35468  -0.35351  -0.34492  -0.34143
 Alpha  occ. eigenvalues --   -0.33682  -0.33292  -0.33082  -0.32810  -0.32431
 Alpha  occ. eigenvalues --   -0.31617  -0.31246  -0.31173  -0.26541  -0.26066
 Alpha  occ. eigenvalues --   -0.23366  -0.22926
 Alpha virt. eigenvalues --   -0.07425  -0.06752   0.00136   0.00370   0.02165
 Alpha virt. eigenvalues --    0.02446   0.04080   0.04472   0.04915   0.06375
 Alpha virt. eigenvalues --    0.07299   0.07604   0.07998   0.08168   0.08388

 Mulliken charges:
               1
     1  Mg   0.971292
     2  C   -0.006109
     3  C   -0.072405
     4  C   -0.076328
     5  C   -0.099688
     6  N   -0.340879
     7  C   -0.009382
     8  C   -0.022490
     9  C   -0.153791
    10  C    0.065448
    11  C    0.013355
    12  C   -0.006045
    13  C   -0.111458
    14  H    0.047879
    15  N   -0.435280
    16  C    0.162653
    17  C   -0.218617
    18  C   -0.077966
    19  C    0.134400
    20  C    0.084048
    21  C    0.066692
    22  O   -0.256635
    23  C   -0.006953
    24  N   -0.468655
    25  C    0.098655
    26  C   -0.069332
    27  C   -0.080725
    28  C    0.140263
    29  C    0.040736
    30  C   -0.043643
    31  C   -0.003970
    32  N   -0.428073
    33  C    0.106711
    34  C   -0.178845
    35  C    0.017665
    36  C    0.137149
    37  C    0.064733
    38  C    0.098748
    39  O   -0.191664
    40  C   -0.123729
    41  C    0.249395
    42  O   -0.247088
    43  O   -0.362897
    44  C    0.139180
    45  H   -0.004146
    46  H    0.019919
    47  H   -0.001753
    48  H    0.044532
    49  H    0.034741
    50  H    0.042263
    51  H    0.043404
    52  H    0.037647
    53  H    0.035417
    54  H    0.054687
    55  H    0.050973
    56  H    0.052989
    57  H    0.065717
    58  H    0.049252
    59  H    0.025675
    60  H    0.051295
    61  H    0.045847
    62  H    0.060834
    63  H    0.028070
    64  H    0.023067
    65  H    0.041815
    66  H    0.042115
    67  H    0.041582
    68  H    0.022334
    69  H    0.020624
    70  H    0.035335
    71  H    0.017900
    72  H    0.051245
    73  H    0.062371
    74  H    0.044993
    75  H    0.051476
    76  H    0.073854
    77  H    0.057983
    78  H    0.059972
    79  H    0.069619
    80  Mg   0.966724
    81  C   -0.041590
    82  C   -0.128793
    83  C   -0.109083
    84  C   -0.042062
    85  N   -0.333215
    86  C   -0.011400
    87  C   -0.074813
    88  C   -0.075945
    89  C    0.063630
    90  C    0.034899
    91  C    0.028380
    92  C   -0.107136
    93  H    0.024718
    94  N   -0.465983
    95  C    0.186001
    96  C   -0.152943
    97  C   -0.065465
    98  C    0.142268
    99  C    0.072072
   100  C    0.052382
   101  O   -0.253963
   102  C    0.003617
   103  N   -0.330912
   104  C    0.128543
   105  C   -0.083469
   106  C   -0.090982
   107  C    0.027205
   108  C    0.020519
   109  C    0.009838
   110  C   -0.034524
   111  N   -0.438517
   112  C    0.046300
   113  C   -0.148193
   114  C    0.002723
   115  C    0.157750
   116  C    0.059512
   117  C    0.057891
   118  O   -0.195167
   119  C   -0.117540
   120  C    0.296749
   121  O   -0.238816
   122  O   -0.364148
   123  C    0.141276
   124  H   -0.003546
   125  H   -0.019436
   126  H   -0.016859
   127  H    0.023281
   128  H    0.032765
   129  H    0.025038
   130  H    0.044664
   131  H    0.053876
   132  H    0.020243
   133  H    0.052791
   134  H    0.048257
   135  H    0.048674
   136  H    0.019587
   137  H    0.064720
   138  H    0.059515
   139  H    0.061881
   140  H    0.091278
   141  H    0.055080
   142  H    0.038407
   143  H    0.031590
   144  H    0.030256
   145  H    0.041608
   146  H    0.029165
   147  H    0.042109
   148  H    0.025832
   149  H    0.032471
   150  H    0.043076
   151  H    0.051680
   152  H    0.058561
   153  H    0.038079
   154  H    0.040764
   155  H    0.054813
   156  H    0.058153
   157  H    0.060928
   158  H    0.042366
 Sum of Mulliken charges =  -0.00000

 Dipole moment (field-independent basis, Debye):
    X=              7.8008    Y=              2.2037    Z=              1.5753  Tot=              8.2577
 Quadrupole moment (field-independent basis, Debye-Ang):
   XX=           -457.0920   YY=           -517.3972   ZZ=           -522.6488
   XY=             34.1792   XZ=            -11.0691   YZ=            -14.8312

 Normal termination of Gaussian 16 at Mon Sep 20 02:52:05 2021.
