 Gaussian 16, Revision A.03,
 Gaussian 16:  ES64L-G16RevA.03 25-Dec-2016

 --------------------------------
 #p wB97XD/Def2SVP td=(nstates=5)
 --------------------------------

 --------------------------------
 TDDFT excited states in gaussian
 --------------------------------
 Symbolic Z-matrix:
 Charge =  0 Multiplicity = 1

                         Standard orientation:
 ---------------------------------------------------------------------
 Center     Atomic      Atomic             Coordinates (Angstroms)
 Number     Number       Type             X           Y           Z
 ---------------------------------------------------------------------
      1         12           0      -19.096872    0.323885    0.493742
      2          6           0      -16.199154   -1.141955   -0.822309
      3          6           0      -20.884104   -2.565474   -0.502953
      4          6           0      -21.976225    1.853822    1.441425
      5          6           0      -17.393794    3.318208    0.727367
      6          7           0      -18.533568   -1.636378   -0.373423
      7          6           0      -17.225053   -2.038846   -0.655922
      8          6           0      -17.186136   -3.603620   -0.792439
      9          6           0      -18.673189   -3.976152   -0.777325
     10          6           0      -19.439882   -2.621620   -0.582708
     11          6           0      -19.069069   -4.677582   -2.104544
     12          6           0      -16.336135   -4.169485    0.338619
     13          6           0      -15.617899   -5.487937    0.101954
     14          1           0      -16.028126   -6.334514   -1.124183
     15          7           0      -21.156637   -0.233525    0.504077
     16          6           0      -21.683658   -1.447969    0.025075
     17          6           0      -23.130629   -1.461303    0.149573
     18          6           0      -23.521587   -0.215564    0.781170
     19          6           0      -22.199657    0.534548    0.914775
     20          6           0      -24.013444   -2.679084   -0.151906
     21          6           0      -24.881456    0.290063    1.223138
     22          8           0      -24.988448    1.383284    1.762695
     23          6           0      -26.031215   -0.641824    1.185673
     24          7           0      -19.568010    2.319828    1.077167
     25          6           0      -20.812573    2.666773    1.508560
     26          6           0      -20.783712    4.105918    2.086539
     27          6           0      -19.286022    4.575029    1.922790
     28          6           0      -18.642549    3.308704    1.300846
     29          6           0      -21.800275    4.998411    1.352256
     30          6           0      -18.564777    4.934578    3.248929
     31          6           0      -18.516313    6.452105    3.397505
     32          7           0      -17.217393    1.078937   -0.030758
     33          6           0      -16.657192    2.310645    0.040315
     34          6           0      -15.366550    2.252261   -0.688108
     35          6           0      -15.096003    0.939701   -0.942951
     36          6           0      -16.286537    0.270861   -0.559701
     37          6           0      -14.494144    3.484781   -0.857030
     38          6           0      -14.118869   -0.034891   -1.446266
     39          8           0      -13.004533    0.158838   -1.916974
     40          6           0      -14.785519   -1.388136   -1.291095
     41          6           0      -14.648526   -2.046058   -2.600100
     42          8           0      -15.284685   -1.880631   -3.649706
     43          8           0      -13.570825   -2.904078   -2.520006
     44          6           0      -13.210734   -3.611010   -3.729844
     45          1           0      -21.385030   -3.503669   -0.749666
     46          1           0      -22.927990    2.230456    1.821967
     47          1           0      -16.956069    4.318439    0.750574
     48          1           0      -16.731839   -3.701653   -1.779134
     49          1           0      -18.774108   -4.761955   -0.028769
     50          1           0      -19.729243   -4.099035   -2.750952
     51          1           0      -19.757141   -5.476028   -1.828250
     52          1           0      -18.199243   -4.953073   -2.700556
     53          1           0      -17.014641   -4.198455    1.191741
     54          1           0      -15.607408   -3.417726    0.639500
     55          1           0      -15.692902   -6.090749    1.005983
     56          1           0      -14.583969   -5.150754    0.020511
     57          1           0      -23.481799   -3.504548   -0.625639
     58          1           0      -24.827474   -2.390632   -0.818266
     59          1           0      -24.516863   -2.977625    0.766870
     60          1           0      -25.847979   -1.446847    1.897773
     61          1           0      -26.288727   -0.906470    0.160152
     62          1           0      -26.939198   -0.180148    1.573771
     63          1           0      -21.115016    4.048873    3.123149
     64          1           0      -19.319356    5.369967    1.176618
     65          1           0      -21.407561    5.897221    0.877727
     66          1           0      -22.402890    5.307454    2.206065
     67          1           0      -22.320111    4.511240    0.527787
     68          1           0      -17.498664    4.722003    3.167494
     69          1           0      -19.023367    4.491432    4.133111
     70          1           0      -18.841326    6.618789    4.424368
     71          1           0      -19.275456    6.982964    2.823567
     72          1           0      -17.541791    6.909345    3.223963
     73          1           0      -14.976455    4.433558   -0.620441
     74          1           0      -14.080983    3.571519   -1.861209
     75          1           0      -13.718551    3.458465   -0.090802
     76          1           0      -14.259190   -1.926913   -0.503857
     77          1           0      -13.123568   -2.873298   -4.527929
     78          1           0      -13.941993   -4.361924   -4.029792
     79          1           0      -12.155370   -3.849628   -3.602489
     80         12           0       19.394124   -0.084234    0.012616
     81          6           0       15.939041   -0.174795   -0.438778
     82          6           0       19.562473    2.609138   -2.132608
     83          6           0       22.610566   -0.115862    0.662078
     84          6           0       18.943877   -2.146230    2.983810
     85          7           0       17.822867    1.053464   -1.225698
     86          6           0       16.469081    0.866848   -1.233653
     87          6           0       15.809836    1.794492   -2.191573
     88          6           0       16.983895    2.721182   -2.703020
     89          6           0       18.255120    2.114398   -1.990547
     90          6           0       17.047724    2.896999   -4.241155
     91          6           0       14.666636    2.617378   -1.549402
     92          6           0       13.385905    2.500385   -2.373960
     93          1           0       12.689260    3.823886   -2.812181
     94          7           0       20.893327    1.075945   -0.676448
     95          6           0       20.800676    2.120351   -1.595229
     96          6           0       22.172460    2.550980   -1.832305
     97          6           0       23.107323    1.734512   -1.041397
     98          6           0       22.216109    0.764741   -0.329669
     99          6           0       22.499113    3.733886   -2.597727
    100          6           0       24.542941    2.048374   -0.947932
    101          8           0       25.086607    2.946270   -1.556323
    102          6           0       25.483548    1.363844   -0.018662
    103          7           0       20.530539   -0.941253    1.574039
    104          6           0       21.892124   -1.027669    1.430245
    105          6           0       22.490679   -1.797506    2.588565
    106          6           0       21.357086   -1.984574    3.526218
    107          6           0       20.212021   -1.624337    2.717124
    108          6           0       23.291906   -3.102737    2.185792
    109          6           0       21.384033   -0.986697    4.734489
    110          6           0       20.791879   -1.453810    5.983071
    111          7           0       17.792102   -1.030447    1.086287
    112          6           0       17.758259   -1.871448    2.206320
    113          6           0       16.463263   -2.468818    2.301229
    114          6           0       15.702764   -1.822530    1.333922
    115          6           0       16.557269   -0.904563    0.625183
    116          6           0       16.098609   -3.502379    3.302016
    117          6           0       14.403845   -1.694286    0.803866
    118          8           0       13.378235   -2.261576    1.107733
    119          6           0       14.504616   -0.694916   -0.370063
    120          6           0       14.016177   -1.344421   -1.596860
    121          8           0       14.695398   -2.048308   -2.363152
    122          8           0       12.652007   -1.188766   -1.687880
    123          6           0       11.937364   -1.655267   -2.864923
    124          1           0       19.547672    3.416199   -2.867309
    125          1           0       23.641047   -0.191535    1.018089
    126          1           0       18.860813   -2.783224    3.866894
    127          1           0       15.616239    1.176942   -3.069096
    128          1           0       16.901193    3.754262   -2.366773
    129          1           0       16.045393    2.597425   -4.549625
    130          1           0       17.860403    2.386803   -4.758326
    131          1           0       17.173401    3.950963   -4.487877
    132          1           0       14.843372    3.692771   -1.541825
    133          1           0       14.547785    2.232040   -0.536900
    134          1           0       12.730064    2.073318   -1.615429
    135          1           0       13.585190    1.797426   -3.181462
    136          1           0       21.569595    4.149443   -2.987429
    137          1           0       23.099269    3.573017   -3.493793
    138          1           0       22.948799    4.477054   -1.938316
    139          1           0       25.208015    0.330032   -0.227107
    140          1           0       25.227594    1.643062    1.003748
    141          1           0       26.521113    1.566108   -0.285343
    142          1           0       23.239011   -1.108057    2.977673
    143          1           0       21.128871   -2.998521    3.854906
    144          1           0       23.441440   -3.141224    1.106622
    145          1           0       22.907961   -4.029005    2.614669
    146          1           0       24.339310   -3.071664    2.484640
    147          1           0       20.913323   -0.050256    4.434886
    148          1           0       22.409407   -0.716229    4.986101
    149          1           0       21.552471   -1.993943    6.547904
    150          1           0       19.900863   -2.060331    5.817492
    151          1           0       20.634594   -0.607654    6.652716
    152          1           0       16.917053   -4.204792    3.459122
    153          1           0       15.179060   -4.039489    3.068991
    154          1           0       16.034551   -2.941536    4.234509
    155          1           0       13.798159    0.130955   -0.285601
    156          1           0       11.803719   -2.726748   -3.014167
    157          1           0       12.381535   -1.215248   -3.757551
    158          1           0       10.920401   -1.295781   -2.712339
 ---------------------------------------------------------------------

 SCF Done:  E(RwB97XD) =  -4070.57465444     A.U. after   20 cycles

 Excitation energies and oscillator strengths:

 Excited State   1:      Singlet-A      1.6143 eV  768.02 nm  f=0.4207  <S**2>=0.000
     309 -> 315        0.19376
     311 -> 313        0.67950
     309 <- 315        0.12083
 This state for optimization and/or second-order correction.
 Total Energy, E(TD-HF/TD-DFT) =  -4070.51532881
 Copying the excited state density for this state as the 1-particle RhoCI density.

 Excited State   2:      Singlet-A      1.6258 eV  762.60 nm  f=0.3428  <S**2>=0.000
     310 -> 316        0.17840
     312 -> 314        0.68281
     310 <- 316        0.11312

 Excited State   3:      Singlet-A      2.1298 eV  582.15 nm  f=0.1002  <S**2>=0.000
     309 -> 313        0.63358
     311 -> 315       -0.30001

 Excited State   4:      Singlet-A      2.1420 eV  578.83 nm  f=0.1174  <S**2>=0.000
     310 -> 314        0.64308
     312 -> 316       -0.27657

 Excited State   5:      Singlet-A      3.2694 eV  379.22 nm  f=0.0024  <S**2>=0.000
     306 -> 313        0.24770
     307 -> 313        0.52069
     308 -> 313       -0.35577

 The electronic state is 1-A.
 Alpha  occ. eigenvalues --  -46.95441 -46.95264 -19.30067 -19.29658 -19.24714
 Alpha  occ. eigenvalues --  -19.24299 -19.24289 -19.24271 -19.23375 -19.22385
 Alpha  occ. eigenvalues --  -14.46904 -14.46777 -14.46528 -14.46317 -14.44888
 Alpha  occ. eigenvalues --  -14.44749 -14.43741 -14.43738 -10.43188 -10.42913
 Alpha  occ. eigenvalues --  -10.39473 -10.39368 -10.38177 -10.37630 -10.36068
 Alpha  occ. eigenvalues --  -10.35657 -10.35630 -10.35565 -10.35372 -10.35301
 Alpha  occ. eigenvalues --  -10.35261 -10.35126 -10.35101 -10.35063 -10.34666
 Alpha  occ. eigenvalues --  -10.34648 -10.34437 -10.34030 -10.33869 -10.33769
 Alpha  occ. eigenvalues --  -10.33283 -10.33074 -10.32988 -10.32932 -10.32688
 Alpha  occ. eigenvalues --  -10.32681 -10.32524 -10.32404 -10.32403 -10.32349
 Alpha  occ. eigenvalues --  -10.32278 -10.32252 -10.32233 -10.32182 -10.32047
 Alpha  occ. eigenvalues --  -10.31832 -10.31816 -10.31796 -10.31748 -10.31630
 Alpha  occ. eigenvalues --  -10.31598 -10.31586 -10.31427 -10.31389 -10.31321
 Alpha  occ. eigenvalues --  -10.31304 -10.31184 -10.31096 -10.30700 -10.30654
 Alpha  occ. eigenvalues --  -10.30512 -10.30388 -10.30340 -10.30320 -10.30306
 Alpha  occ. eigenvalues --  -10.30195 -10.30073 -10.29387 -10.29345 -10.29311
 Alpha  occ. eigenvalues --  -10.29115 -10.29043 -10.28795 -10.28765 -10.28741
 Alpha  occ. eigenvalues --  -10.28730  -3.21292  -3.21202  -1.94892  -1.94793
 Alpha  occ. eigenvalues --   -1.94370  -1.94334  -1.94292  -1.94157  -1.17931
 Alpha  occ. eigenvalues --   -1.17598  -1.12708  -1.12263  -1.12195  -1.12040
 Alpha  occ. eigenvalues --   -1.09027  -1.08869  -1.06966  -1.06287  -1.05795
 Alpha  occ. eigenvalues --   -1.04985  -1.04782  -1.04628  -1.03687  -1.03607
 Alpha  occ. eigenvalues --   -0.95311  -0.94611  -0.92631  -0.91430  -0.91102
 Alpha  occ. eigenvalues --   -0.90971  -0.90618  -0.89896  -0.89624  -0.89167
 Alpha  occ. eigenvalues --   -0.89026  -0.88789  -0.88251  -0.87503  -0.87145
 Alpha  occ. eigenvalues --   -0.86431  -0.86239  -0.85740  -0.85350  -0.84608
 Alpha  occ. eigenvalues --   -0.84477  -0.84325  -0.83355  -0.82823  -0.82767
 Alpha  occ. eigenvalues --   -0.81979  -0.80570  -0.80087  -0.79892  -0.79175
 Alpha  occ. eigenvalues --   -0.79043  -0.78694  -0.78217  -0.77841  -0.77320
 Alpha  occ. eigenvalues --   -0.76473  -0.75379  -0.74498  -0.74004  -0.72975
 Alpha  occ. eigenvalues --   -0.71296  -0.71025  -0.71011  -0.70389  -0.69920
 Alpha  occ. eigenvalues --   -0.69858  -0.69449  -0.69070  -0.68389  -0.67869
 Alpha  occ. eigenvalues --   -0.67313  -0.67268  -0.66817  -0.66671  -0.66636
 Alpha  occ. eigenvalues --   -0.65873  -0.64092  -0.63993  -0.62695  -0.62143
 Alpha  occ. eigenvalues --   -0.61587  -0.61454  -0.61430  -0.61043  -0.60953
 Alpha  occ. eigenvalues --   -0.60734  -0.60325  -0.59909  -0.59634  -0.59357
 Alpha  occ. eigenvalues --   -0.58379  -0.57839  -0.57797  -0.57702  -0.57397
 Alpha  occ. eigenvalues --   -0.57114  -0.57005  -0.56706  -0.56341  -0.56145
 Alpha  occ. eigenvalues --   -0.55553  -0.55479  -0.55305  -0.55227  -0.55121
 Alpha  occ. eigenvalues --   -0.54841  -0.54741  -0.54727  -0.54469  -0.54212
 Alpha  occ. eigenvalues --   -0.54008  -0.53796  -0.53656  -0.53649  -0.53568
 Alpha  occ. eigenvalues --   -0.53303  -0.53192  -0.53167  -0.52683  -0.52336
 Alpha  occ. eigenvalues --   -0.52312  -0.51940  -0.51821  -0.51597  -0.51541
 Alpha  occ. eigenvalues --   -0.51328  -0.51209  -0.51182  -0.51034  -0.50944
 Alpha  occ. eigenvalues --   -0.50754  -0.50548  -0.50463  -0.50387  -0.50061
 Alpha  occ. eigenvalues --   -0.49776  -0.49495  -0.49332  -0.49095  -0.49058
 Alpha  occ. eigenvalues --   -0.48922  -0.48698  -0.48630  -0.48547  -0.48293
 Alpha  occ. eigenvalues --   -0.48224  -0.48148  -0.47944  -0.47812  -0.47649
 Alpha  occ. eigenvalues --   -0.47219  -0.47152  -0.46885  -0.46864  -0.46686
 Alpha  occ. eigenvalues --   -0.46495  -0.46439  -0.46370  -0.46301  -0.46120
 Alpha  occ. eigenvalues --   -0.45955  -0.45568  -0.45516  -0.45393  -0.45345
 Alpha  occ. eigenvalues --   -0.45142  -0.45128  -0.44964  -0.44961  -0.44840
 Alpha  occ. eigenvalues --   -0.44788  -0.44605  -0.44441  -0.44237  -0.43967
 Alpha  occ. eigenvalues --   -0.43740  -0.43630  -0.43511  -0.43416  -0.43349
 Alpha  occ. eigenvalues --   -0.43180  -0.43064  -0.42981  -0.42566  -0.42298
 Alpha  occ. eigenvalues --   -0.42149  -0.41853  -0.41092  -0.40807  -0.40423
 Alpha  occ. eigenvalues --   -0.40335  -0.39899  -0.39872  -0.39661  -0.39628
 Alpha  occ. eigenvalues --   -0.39279  -0.39045  -0.38599  -0.38345  -0.38289
 Alpha  occ. eigenvalues --   -0.38274  -0.37751  -0.36325  -0.36287  -0.36039
 Alpha  occ. eigenvalues --   -0.35712  -0.35177  -0.34862  -0.33578  -0.33545
 Alpha  occ. eigenvalues --   -0.33497  -0.33374  -0.32639  -0.32446  -0.32161
 Alpha  occ. eigenvalues --   -0.32021  -0.31670  -0.31520  -0.26208  -0.25715
 Alpha  occ. eigenvalues --   -0.23356  -0.22727
 Alpha virt. eigenvalues --   -0.07499  -0.07005  -0.00577   0.00472   0.02245
 Alpha virt. eigenvalues --    0.02335   0.04001   0.04483   0.05544   0.05857
 Alpha virt. eigenvalues --    0.06521   0.07400   0.07476   0.07802   0.07961

 Mulliken charges:
               1
     1  Mg   0.955525
     2  C   -0.016127
     3  C   -0.071924
     4  C   -0.061391
     5  C   -0.075375
     6  N   -0.370123
     7  C   -0.076420
     8  C   -0.019391
     9  C   -0.128229
    10  C    0.112472
    11  C    0.004247
    12  C    0.005702
    13  C   -0.087423
    14  H    0.044127
    15  N   -0.442656
    16  C    0.155512
    17  C   -0.170798
    18  C   -0.084746
    19  C    0.094766
    20  C    0.080219
    21  C    0.058988
    22  O   -0.231361
    23  C   -0.015743
    24  N   -0.372737
    25  C    0.091469
    26  C   -0.107438
    27  C   -0.062937
    28  C    0.055504
    29  C    0.009049
    30  C    0.009717
    31  C   -0.064272
    32  N   -0.405490
    33  C    0.114562
    34  C   -0.207838
    35  C   -0.016120
    36  C    0.137352
    37  C    0.069681
    38  C    0.119936
    39  O   -0.196922
    40  C   -0.033087
    41  C    0.261305
    42  O   -0.260811
    43  O   -0.368873
    44  C    0.150860
    45  H   -0.002606
    46  H    0.022682
    47  H   -0.005018
    48  H    0.035202
    49  H    0.041299
    50  H    0.033167
    51  H    0.028434
    52  H    0.050196
    53  H    0.018839
    54  H    0.026455
    55  H    0.050777
    56  H    0.056905
    57  H    0.044919
    58  H    0.041634
    59  H    0.050590
    60  H    0.068916
    61  H    0.058673
    62  H    0.044862
    63  H    0.042166
    64  H    0.041170
    65  H    0.028385
    66  H    0.042371
    67  H    0.055129
    68  H    0.035742
    69  H    0.040897
    70  H    0.024670
    71  H    0.026451
    72  H    0.047212
    73  H    0.017821
    74  H    0.060214
    75  H    0.049705
    76  H    0.082198
    77  H    0.044802
    78  H    0.059121
    79  H    0.053259
    80  Mg   0.953443
    81  C    0.048378
    82  C   -0.057378
    83  C   -0.121808
    84  C   -0.096250
    85  N   -0.342818
    86  C   -0.023969
    87  C   -0.029622
    88  C   -0.145861
    89  C    0.045682
    90  C    0.012158
    91  C    0.023827
    92  C   -0.137450
    93  H    0.039356
    94  N   -0.537514
    95  C    0.202017
    96  C   -0.171424
    97  C   -0.063969
    98  C    0.269770
    99  C    0.097270
   100  C   -0.011582
   101  O   -0.239019
   102  C    0.006859
   103  N   -0.368835
   104  C    0.069467
   105  C   -0.083340
   106  C   -0.081729
   107  C    0.063082
   108  C    0.032046
   109  C    0.003098
   110  C   -0.018642
   111  N   -0.406993
   112  C    0.111829
   113  C   -0.185363
   114  C   -0.015225
   115  C    0.112696
   116  C    0.089610
   117  C    0.108523
   118  O   -0.187547
   119  C   -0.127878
   120  C    0.253778
   121  O   -0.269075
   122  O   -0.361197
   123  C    0.148961
   124  H    0.001522
   125  H   -0.005808
   126  H   -0.002813
   127  H    0.049553
   128  H    0.042590
   129  H    0.038497
   130  H    0.051678
   131  H    0.032395
   132  H    0.051887
   133  H    0.051959
   134  H    0.064298
   135  H    0.053294
   136  H    0.001068
   137  H    0.057518
   138  H    0.064871
   139  H    0.039533
   140  H    0.062457
   141  H    0.058163
   142  H    0.032766
   143  H    0.027059
   144  H    0.034028
   145  H    0.045432
   146  H    0.027787
   147  H    0.039431
   148  H    0.019957
   149  H    0.027088
   150  H    0.029232
   151  H    0.034552
   152  H    0.036160
   153  H    0.067954
   154  H    0.051116
   155  H    0.051018
   156  H    0.058140
   157  H    0.047302
   158  H    0.050951
 Sum of Mulliken charges =  -0.00000

 Dipole moment (field-independent basis, Debye):
    X=             -1.7470    Y=             -2.5328    Z=              4.9269  Tot=              5.8087
 Quadrupole moment (field-independent basis, Debye-Ang):
   XX=           -399.1189   YY=           -479.3784   ZZ=           -497.1270
   XY=             34.1852   XZ=             16.2853   YZ=             -3.8775

 Normal termination of Gaussian 16 at Sun Sep 19 23:45:48 2021.
