 Gaussian 16, Revision A.03,
 Gaussian 16:  ES64L-G16RevA.03 25-Dec-2016

 --------------------------------
 #p wB97XD/Def2SVP td=(nstates=5)
 --------------------------------

 --------------------------------
 TDDFT excited states in gaussian
 --------------------------------
 Symbolic Z-matrix:
 Charge =  0 Multiplicity = 1

                         Standard orientation:
 ---------------------------------------------------------------------
 Center     Atomic      Atomic             Coordinates (Angstroms)
 Number     Number       Type             X           Y           Z
 ---------------------------------------------------------------------
      1         12           0      -23.748075   -0.681839   -0.078405
      2          6           0      -22.513396    2.591553   -0.861630
      3          6           0      -24.373093    0.450548    3.118248
      4          6           0      -24.267046   -3.796586    0.760777
      5          6           0      -22.825729   -1.618136   -3.285125
      6          7           0      -23.201235    1.285522    1.111446
      7          6           0      -22.825803    2.449108    0.496437
      8          6           0      -23.024837    3.638571    1.473658
      9          6           0      -23.571294    2.948187    2.792773
     10          6           0      -23.726032    1.440802    2.373474
     11          6           0      -22.692489    3.062936    4.108724
     12          6           0      -23.985006    4.750672    0.973541
     13          6           0      -23.562641    6.165154    1.154944
     14          1           0      -22.450411    6.617167    2.176618
     15          7           0      -24.256567   -1.612432    1.735688
     16          6           0      -24.611059   -0.984632    2.929505
     17          6           0      -24.923582   -2.017680    3.935605
     18          6           0      -25.002010   -3.261919    3.199579
     19          6           0      -24.494137   -2.934705    1.847000
     20          6           0      -25.186819   -1.780059    5.391785
     21          6           0      -25.452635   -4.675035    3.638763
     22          8           0      -25.769941   -5.599412    2.860858
     23          6           0      -25.686906   -4.896954    5.078882
     24          7           0      -23.511477   -2.389024   -1.086721
     25          6           0      -23.745746   -3.590605   -0.454998
     26          6           0      -23.750557   -4.766750   -1.470425
     27          6           0      -23.646414   -3.971716   -2.846640
     28          6           0      -23.320910   -2.558244   -2.396005
     29          6           0      -22.656043   -5.899126   -1.309074
     30          6           0      -24.869783   -3.988514   -3.749375
     31          6           0      -24.692488   -4.712411   -5.100526
     32          7           0      -23.034440    0.292823   -1.813228
     33          6           0      -22.680085   -0.232877   -3.033151
     34          6           0      -22.107700    0.817644   -3.885238
     35          6           0      -22.090657    1.936342   -3.071237
     36          6           0      -22.656767    1.577568   -1.827573
     37          6           0      -21.578993    0.717661   -5.277999
     38          6           0      -21.743004    3.311651   -3.090382
     39          8           0      -21.347511    4.073681   -4.017970
     40          6           0      -21.982469    3.783578   -1.718992
     41          6           0      -20.750685    4.459591   -1.180366
     42          8           0      -19.744079    3.913535   -0.881700
     43          8           0      -20.981132    5.762631   -1.020833
     44          6           0      -19.884280    6.647662   -0.820483
     45          1           0      -24.590413    0.721600    4.153661
     46          1           0      -24.447246   -4.867589    0.882007
     47          1           0      -22.467231   -1.940846   -4.263984
     48          1           0      -22.033344    4.067046    1.624732
     49          1           0      -24.562589    3.333596    3.029403
     50          1           0      -21.843681    3.743241    4.045264
     51          1           0      -22.248965    2.080075    4.274541
     52          1           0      -23.320402    3.307985    4.965869
     53          1           0      -24.960284    4.718808    1.460659
     54          1           0      -24.179030    4.689838   -0.096939
     55          1           0      -24.405947    6.757128    1.511904
     56          1           0      -23.265915    6.540440    0.175941
     57          1           0      -24.518722   -2.402964    5.986145
     58          1           0      -26.214119   -2.097130    5.571311
     59          1           0      -25.210212   -0.715492    5.626991
     60          1           0      -24.734239   -4.759121    5.590377
     61          1           0      -25.946926   -5.951428    5.168260
     62          1           0      -26.541795   -4.330714    5.447528
     63          1           0      -24.747603   -5.202884   -1.401089
     64          1           0      -22.818647   -4.413990   -3.400895
     65          1           0      -22.020957   -5.686632   -0.449811
     66          1           0      -22.097567   -6.089203   -2.226432
     67          1           0      -23.188133   -6.837416   -1.151445
     68          1           0      -25.372858   -3.034669   -3.908731
     69          1           0      -25.631428   -4.568366   -3.229123
     70          1           0      -25.101021   -4.219804   -5.982648
     71          1           0      -25.347049   -5.583962   -5.072723
     72          1           0      -23.667627   -4.971307   -5.363033
     73          1           0      -21.922218   -0.179768   -5.793499
     74          1           0      -20.501212    0.556907   -5.257104
     75          1           0      -21.770041    1.681598   -5.749456
     76          1           0      -22.797167    4.503581   -1.791616
     77          1           0      -19.392592    6.745090   -1.789422
     78          1           0      -19.130993    6.195535   -0.175146
     79          1           0      -20.227030    7.639556   -0.524721
     80         12           0       23.585305   -0.653018   -0.094895
     81          6           0       21.058971    1.614873    0.505330
     82          6           0       25.621704    2.161466   -0.966475
     83          6           0       25.955618   -2.695647   -1.023576
     84          6           0       21.412955   -3.289294    0.449305
     85          7           0       23.246813    1.660591   -0.406519
     86          6           0       22.219817    2.304010    0.122811
     87          6           0       22.552381    3.808549    0.331037
     88          6           0       23.755375    3.955304   -0.665062
     89          6           0       24.291250    2.515694   -0.719659
     90          6           0       23.304871    4.479559   -2.074827
     91          6           0       22.939324    3.959453    1.819094
     92          6           0       23.174707    5.389435    2.324242
     93          1           0       23.273577    6.538643    1.341210
     94          7           0       25.535166   -0.409946   -0.773777
     95          6           0       26.185591    0.845966   -1.029850
     96          6           0       27.583332    0.526737   -1.286499
     97          6           0       27.708441   -0.894724   -1.194069
     98          6           0       26.355899   -1.422770   -1.021367
     99          6           0       28.713864    1.590129   -1.549703
    100          6           0       29.030607   -1.729881   -1.238120
    101          8           0       28.941010   -2.926707   -1.266441
    102          6           0       30.359480   -1.048114   -1.283328
    103          7           0       23.697683   -2.730921   -0.175663
    104          6           0       24.805752   -3.380933   -0.597472
    105          6           0       24.628255   -4.897485   -0.661159
    106          6           0       23.217269   -5.078368   -0.054988
    107          6           0       22.732707   -3.578171    0.085149
    108          6           0       24.771768   -5.540599   -2.089361
    109          6           0       23.094331   -5.952356    1.167054
    110          6           0       24.060987   -5.799280    2.366102
    111          7           0       21.635018   -0.891823    0.364902
    112          6           0       20.872083   -2.005690    0.569654
    113          6           0       19.574169   -1.555301    1.026184
    114          6           0       19.564984   -0.118453    1.062354
    115          6           0       20.874583    0.220577    0.624730
    116          6           0       18.446394   -2.473348    1.381070
    117          6           0       18.797631    1.060358    1.286576
    118          8           0       17.608203    1.251097    1.621550
    119          6           0       19.725187    2.230216    0.645360
    120          6           0       19.551888    3.458982    1.539617
    121          8           0       19.705987    3.484877    2.700586
    122          8           0       19.144786    4.497713    0.751628
    123          6           0       19.258333    5.840127    1.283666
    124          1           0       26.214206    3.017850   -1.293723
    125          1           0       26.694101   -3.421794   -1.369759
    126          1           0       20.673619   -4.074116    0.617794
    127          1           0       21.746577    4.460084   -0.006702
    128          1           0       24.436582    4.625161   -0.139772
    129          1           0       23.583758    5.527676   -2.176105
    130          1           0       22.226335    4.340724   -2.151997
    131          1           0       23.804968    3.980370   -2.904824
    132          1           0       23.895759    3.455657    1.956398
    133          1           0       22.273787    3.398609    2.474591
    134          1           0       23.910174    5.445108    3.127106
    135          1           0       22.300778    5.599355    2.941198
    136          1           0       29.295436    1.364756   -2.444109
    137          1           0       29.312035    1.610365   -0.638866
    138          1           0       28.270252    2.584807   -1.607858
    139          1           0       31.002768   -1.784740   -0.801499
    140          1           0       30.404785   -0.171592   -0.637999
    141          1           0       30.703165   -0.562460   -2.196590
    142          1           0       25.402573   -5.297380   -0.006852
    143          1           0       22.490301   -5.455244   -0.774385
    144          1           0       24.057654   -6.363393   -2.110427
    145          1           0       25.800415   -5.901502   -2.076419
    146          1           0       24.681618   -4.777220   -2.862102
    147          1           0       23.441923   -6.898805    0.754273
    148          1           0       22.105511   -6.060346    1.614041
    149          1           0       24.694257   -6.645465    2.629322
    150          1           0       23.516174   -5.691338    3.303958
    151          1           0       24.733367   -4.962062    2.178256
    152          1           0       17.606204   -1.822742    1.622070
    153          1           0       18.687950   -3.026995    2.289381
    154          1           0       18.232105   -3.253169    0.650868
    155          1           0       19.353151    2.351732   -0.372163
    156          1           0       18.208718    6.040733    1.068327
    157          1           0       20.040137    6.435852    0.812021
    158          1           0       19.402336    5.886617    2.363425
 ---------------------------------------------------------------------

 SCF Done:  E(RwB97XD) =  -4070.60095391     A.U. after   19 cycles

 Excitation energies and oscillator strengths:

 Excited State   1:      Singlet-A      1.6708 eV  742.06 nm  f=0.4297  <S**2>=0.000
     309 -> 316        0.18110
     311 -> 313        0.68439
     309 <- 316        0.11409
 This state for optimization and/or second-order correction.
 Total Energy, E(TD-HF/TD-DFT) =  -4070.53955256
 Copying the excited state density for this state as the 1-particle RhoCI density.

 Excited State   2:      Singlet-A      1.6762 eV  739.67 nm  f=0.3627  <S**2>=0.000
     310 -> 315       -0.20174
     312 -> 314        0.67856
     310 <- 315       -0.12036

 Excited State   3:      Singlet-A      2.1575 eV  574.67 nm  f=0.1224  <S**2>=0.000
     309 -> 313        0.64756
     311 -> 316       -0.26951

 Excited State   4:      Singlet-A      2.1629 eV  573.24 nm  f=0.0920  <S**2>=0.000
     310 -> 314        0.63309
     312 -> 315        0.30173

 Excited State   5:      Singlet-A      3.3461 eV  370.53 nm  f=0.0456  <S**2>=0.000
     302 -> 314        0.24598
     302 -> 318       -0.17825
     305 -> 314        0.41195
     305 -> 318       -0.24546
     305 -> 320        0.11288
     306 -> 314       -0.15539
     308 -> 314       -0.18573
     312 -> 315       -0.18186

 The electronic state is 1-A.
 Alpha  occ. eigenvalues --  -46.95231 -46.94600 -19.30222 -19.29626 -19.25185
 Alpha  occ. eigenvalues --  -19.24591 -19.24169 -19.24122 -19.24059 -19.23497
 Alpha  occ. eigenvalues --  -14.46637 -14.46317 -14.46281 -14.46200 -14.44313
 Alpha  occ. eigenvalues --  -14.44082 -14.43892 -14.43888 -10.42891 -10.42769
 Alpha  occ. eigenvalues --  -10.39190 -10.39134 -10.38847 -10.38774 -10.35758
 Alpha  occ. eigenvalues --  -10.35230 -10.35200 -10.35057 -10.34917 -10.34736
 Alpha  occ. eigenvalues --  -10.34657 -10.34623 -10.34575 -10.34433 -10.34300
 Alpha  occ. eigenvalues --  -10.34100 -10.33672 -10.33639 -10.33453 -10.33368
 Alpha  occ. eigenvalues --  -10.33362 -10.32974 -10.32950 -10.32788 -10.32786
 Alpha  occ. eigenvalues --  -10.32737 -10.32567 -10.32529 -10.32342 -10.32287
 Alpha  occ. eigenvalues --  -10.32279 -10.32149 -10.32146 -10.31838 -10.31795
 Alpha  occ. eigenvalues --  -10.31760 -10.31721 -10.31694 -10.31613 -10.31586
 Alpha  occ. eigenvalues --  -10.31543 -10.31535 -10.31231 -10.31057 -10.30844
 Alpha  occ. eigenvalues --  -10.30770 -10.30701 -10.30696 -10.30576 -10.30511
 Alpha  occ. eigenvalues --  -10.30400 -10.30380 -10.30133 -10.30121 -10.30103
 Alpha  occ. eigenvalues --  -10.30046 -10.29842 -10.29735 -10.29716 -10.29697
 Alpha  occ. eigenvalues --  -10.29373 -10.29296 -10.29261 -10.29138 -10.29064
 Alpha  occ. eigenvalues --  -10.28920  -3.21252  -3.20665  -1.94823  -1.94386
 Alpha  occ. eigenvalues --   -1.94257  -1.94222  -1.93808  -1.93625  -1.20811
 Alpha  occ. eigenvalues --   -1.19779  -1.13691  -1.12011  -1.11911  -1.10434
 Alpha  occ. eigenvalues --   -1.10360  -1.10282  -1.07214  -1.06894  -1.06078
 Alpha  occ. eigenvalues --   -1.05788  -1.05103  -1.04492  -1.04082  -1.03753
 Alpha  occ. eigenvalues --   -0.95622  -0.95033  -0.91203  -0.91016  -0.90585
 Alpha  occ. eigenvalues --   -0.90391  -0.90383  -0.90226  -0.89721  -0.89238
 Alpha  occ. eigenvalues --   -0.88750  -0.88390  -0.88190  -0.87587  -0.86504
 Alpha  occ. eigenvalues --   -0.85977  -0.85603  -0.85381  -0.84500  -0.84310
 Alpha  occ. eigenvalues --   -0.83944  -0.83646  -0.83636  -0.83368  -0.82458
 Alpha  occ. eigenvalues --   -0.82239  -0.80229  -0.79931  -0.79648  -0.79257
 Alpha  occ. eigenvalues --   -0.79073  -0.78726  -0.78257  -0.77816  -0.77431
 Alpha  occ. eigenvalues --   -0.77100  -0.75174  -0.74671  -0.73974  -0.73454
 Alpha  occ. eigenvalues --   -0.72166  -0.71366  -0.70918  -0.70856  -0.70075
 Alpha  occ. eigenvalues --   -0.69418  -0.68191  -0.68175  -0.67832  -0.67148
 Alpha  occ. eigenvalues --   -0.66853  -0.66851  -0.66807  -0.66449  -0.66273
 Alpha  occ. eigenvalues --   -0.66117  -0.65014  -0.64342  -0.62471  -0.62294
 Alpha  occ. eigenvalues --   -0.61866  -0.61619  -0.61288  -0.61136  -0.61121
 Alpha  occ. eigenvalues --   -0.60814  -0.60175  -0.60147  -0.59871  -0.59718
 Alpha  occ. eigenvalues --   -0.58413  -0.58114  -0.58094  -0.58069  -0.57626
 Alpha  occ. eigenvalues --   -0.57273  -0.57112  -0.56879  -0.56186  -0.55685
 Alpha  occ. eigenvalues --   -0.55617  -0.55456  -0.55316  -0.55209  -0.54902
 Alpha  occ. eigenvalues --   -0.54887  -0.54652  -0.54335  -0.54305  -0.54195
 Alpha  occ. eigenvalues --   -0.53994  -0.53703  -0.53626  -0.53481  -0.53399
 Alpha  occ. eigenvalues --   -0.53018  -0.52705  -0.52637  -0.52055  -0.52009
 Alpha  occ. eigenvalues --   -0.51930  -0.51897  -0.51773  -0.51612  -0.51484
 Alpha  occ. eigenvalues --   -0.51244  -0.51242  -0.51203  -0.50989  -0.50743
 Alpha  occ. eigenvalues --   -0.50677  -0.50520  -0.50193  -0.50170  -0.50128
 Alpha  occ. eigenvalues --   -0.50069  -0.49889  -0.49598  -0.49553  -0.49319
 Alpha  occ. eigenvalues --   -0.48842  -0.48812  -0.48686  -0.48538  -0.48457
 Alpha  occ. eigenvalues --   -0.48148  -0.48053  -0.47966  -0.47910  -0.47746
 Alpha  occ. eigenvalues --   -0.47733  -0.47527  -0.47167  -0.47158  -0.46933
 Alpha  occ. eigenvalues --   -0.46731  -0.46609  -0.46483  -0.46403  -0.45787
 Alpha  occ. eigenvalues --   -0.45606  -0.45343  -0.45283  -0.45195  -0.44901
 Alpha  occ. eigenvalues --   -0.44882  -0.44843  -0.44620  -0.44568  -0.44500
 Alpha  occ. eigenvalues --   -0.44258  -0.44115  -0.44044  -0.43944  -0.43813
 Alpha  occ. eigenvalues --   -0.43781  -0.43565  -0.43532  -0.43386  -0.43327
 Alpha  occ. eigenvalues --   -0.43115  -0.42872  -0.42844  -0.42161  -0.42107
 Alpha  occ. eigenvalues --   -0.41976  -0.41552  -0.41487  -0.41315  -0.41009
 Alpha  occ. eigenvalues --   -0.40288  -0.40063  -0.39848  -0.39825  -0.39554
 Alpha  occ. eigenvalues --   -0.39159  -0.39076  -0.38549  -0.38372  -0.38234
 Alpha  occ. eigenvalues --   -0.37748  -0.37744  -0.37170  -0.36646  -0.36099
 Alpha  occ. eigenvalues --   -0.35936  -0.35564  -0.35139  -0.33699  -0.33660
 Alpha  occ. eigenvalues --   -0.33548  -0.33013  -0.32844  -0.32584  -0.32496
 Alpha  occ. eigenvalues --   -0.32013  -0.31572  -0.31501  -0.26026  -0.25723
 Alpha  occ. eigenvalues --   -0.23094  -0.22896
 Alpha virt. eigenvalues --   -0.07264  -0.06781   0.00033   0.00469   0.01869
 Alpha virt. eigenvalues --    0.02245   0.04141   0.04723   0.05421   0.06111
 Alpha virt. eigenvalues --    0.07835   0.08007   0.08230   0.08372   0.08501

 Mulliken charges:
               1
     1  Mg   0.968304
     2  C   -0.020926
     3  C   -0.037314
     4  C   -0.068993
     5  C   -0.100422
     6  N   -0.318795
     7  C   -0.004843
     8  C   -0.025494
     9  C   -0.108452
    10  C    0.038798
    11  C    0.011084
    12  C    0.006919
    13  C   -0.131887
    14  H    0.014375
    15  N   -0.444880
    16  C    0.109623
    17  C   -0.188481
    18  C   -0.082175
    19  C    0.150635
    20  C    0.090930
    21  C    0.056772
    22  O   -0.260094
    23  C   -0.010142
    24  N   -0.428974
    25  C    0.096492
    26  C   -0.123094
    27  C   -0.081855
    28  C    0.106438
    29  C    0.027997
    30  C    0.012434
    31  C   -0.064919
    32  N   -0.411613
    33  C    0.113982
    34  C   -0.170894
    35  C   -0.051393
    36  C    0.143962
    37  C    0.088534
    38  C    0.114895
    39  O   -0.251345
    40  C   -0.028844
    41  C    0.225647
    42  O   -0.205765
    43  O   -0.332410
    44  C    0.138716
    45  H   -0.013842
    46  H    0.020118
    47  H   -0.001520
    48  H    0.046130
    49  H    0.041901
    50  H    0.041087
    51  H    0.040381
    52  H    0.039971
    53  H    0.033333
    54  H    0.031256
    55  H    0.045748
    56  H    0.057655
    57  H    0.058249
    58  H    0.041334
    59  H    0.035363
    60  H    0.054129
    61  H    0.046909
    62  H    0.066219
    63  H    0.046325
    64  H    0.023308
    65  H    0.051644
    66  H    0.034841
    67  H    0.038245
    68  H    0.040924
    69  H    0.022541
    70  H    0.029630
    71  H    0.032271
    72  H    0.037101
    73  H    0.030940
    74  H    0.058256
    75  H    0.072576
    76  H    0.069238
    77  H    0.047674
    78  H    0.056385
    79  H    0.061149
    80  Mg   0.965678
    81  C   -0.025751
    82  C   -0.077129
    83  C   -0.087972
    84  C   -0.117661
    85  N   -0.288216
    86  C   -0.036020
    87  C   -0.084032
    88  C   -0.089615
    89  C    0.019690
    90  C    0.040479
    91  C    0.000320
    92  C   -0.089347
    93  H    0.044112
    94  N   -0.478668
    95  C    0.175970
    96  C   -0.189336
    97  C   -0.081228
    98  C    0.188763
    99  C    0.062519
   100  C    0.064966
   101  O   -0.213720
   102  C   -0.007445
   103  N   -0.342038
   104  C    0.014459
   105  C   -0.099250
   106  C   -0.054366
   107  C    0.091189
   108  C    0.035512
   109  C   -0.009981
   110  C   -0.072529
   111  N   -0.486600
   112  C    0.144463
   113  C   -0.184404
   114  C   -0.031056
   115  C    0.180558
   116  C    0.067928
   117  C    0.153398
   118  O   -0.233714
   119  C   -0.147592
   120  C    0.242760
   121  O   -0.185804
   122  O   -0.368585
   123  C    0.110441
   124  H    0.003765
   125  H    0.009632
   126  H   -0.005488
   127  H    0.019542
   128  H    0.022925
   129  H    0.039827
   130  H    0.043885
   131  H    0.040351
   132  H    0.025763
   133  H    0.065926
   134  H    0.042715
   135  H    0.038153
   136  H    0.059009
   137  H    0.057744
   138  H    0.030202
   139  H    0.058165
   140  H    0.020621
   141  H    0.069284
   142  H    0.047935
   143  H    0.031241
   144  H    0.046321
   145  H    0.047895
   146  H    0.054226
   147  H    0.029213
   148  H    0.040702
   149  H    0.032765
   150  H    0.032887
   151  H    0.039561
   152  H    0.062281
   153  H    0.042941
   154  H    0.047414
   155  H    0.085739
   156  H    0.070134
   157  H    0.062624
   158  H    0.062952
 Sum of Mulliken charges =  -0.00000

 Dipole moment (field-independent basis, Debye):
    X=              1.8851    Y=              1.5467    Z=              0.1654  Tot=              2.4441
 Quadrupole moment (field-independent basis, Debye-Ang):
   XX=           -247.0979   YY=           -471.6258   ZZ=           -498.1429
   XY=             17.0190   XZ=            -55.2464   YZ=             16.3634

 Normal termination of Gaussian 16 at Mon Sep 20 09:10:56 2021.
