 Gaussian 16, Revision A.03,
 Gaussian 16:  ES64L-G16RevA.03 25-Dec-2016

 --------------------------------
 #p wB97XD/Def2SVP td=(nstates=5)
 --------------------------------

 --------------------------------
 TDDFT excited states in gaussian
 --------------------------------
 Symbolic Z-matrix:
 Charge =  0 Multiplicity = 1

                         Standard orientation:
 ---------------------------------------------------------------------
 Center     Atomic      Atomic             Coordinates (Angstroms)
 Number     Number       Type             X           Y           Z
 ---------------------------------------------------------------------
      1         12           0      -24.968880   -0.760151   -0.247903
      2          6           0      -25.325750    2.485156    1.255150
      3          6           0      -24.881600    0.936511   -3.359912
      4          6           0      -24.751267   -3.815762   -1.924866
      5          6           0      -25.457450   -2.269280    2.692188
      6          7           0      -25.308850    1.533516   -0.943533
      7          6           0      -25.307904    2.617839   -0.138830
      8          6           0      -25.453640    3.923631   -1.000139
      9          6           0      -25.518157    3.307519   -2.443361
     10          6           0      -25.133699    1.819610   -2.275270
     11          6           0      -26.915589    3.523916   -3.122277
     12          6           0      -24.290505    4.899549   -0.824161
     13          6           0      -24.654113    6.340903   -0.679621
     14          1           0      -23.539856    7.359806   -0.400041
     15          7           0      -24.633384   -1.368431   -2.273141
     16          6           0      -24.644118   -0.514519   -3.371027
     17          6           0      -24.386486   -1.305198   -4.558226
     18          6           0      -24.243280   -2.632872   -4.190606
     19          6           0      -24.624654   -2.673103   -2.738600
     20          6           0      -24.428329   -0.777012   -5.963352
     21          6           0      -23.975975   -3.931667   -5.056106
     22          8           0      -23.864456   -5.067895   -4.665387
     23          6           0      -23.655079   -3.767124   -6.525867
     24          7           0      -25.227594   -2.711050    0.228680
     25          6           0      -25.103308   -3.828167   -0.555535
     26          6           0      -25.527094   -5.115468    0.189524
     27          6           0      -25.508586   -4.656645    1.709560
     28          6           0      -25.355294   -3.098163    1.529862
     29          6           0      -26.883766   -5.698262   -0.320720
     30          6           0      -24.361826   -5.282043    2.560704
     31          6           0      -22.948397   -4.829052    2.201781
     32          7           0      -25.345269   -0.123763    1.582474
     33          6           0      -25.467726   -0.872776    2.785918
     34          6           0      -25.690299    0.016512    3.923832
     35          6           0      -25.586801    1.307221    3.374779
     36          6           0      -25.368162    1.194122    1.976234
     37          6           0      -25.894072   -0.393128    5.308276
     38          6           0      -25.650375    2.713661    3.758946
     39          8           0      -25.763661    3.210910    4.866823
     40          6           0      -25.572408    3.560625    2.377234
     41          6           0      -24.410951    4.497500    2.717787
     42          8           0      -23.200344    4.225670    2.810865
     43          8           0      -24.896467    5.698821    2.978358
     44          6           0      -23.946698    6.881353    3.064850
     45          1           0      -24.781446    1.474687   -4.304466
     46          1           0      -24.699745   -4.816159   -2.361622
     47          1           0      -25.535973   -2.825223    3.628470
     48          1           0      -26.341025    4.410295   -0.596808
     49          1           0      -24.752826    3.729627   -3.096044
     50          1           0      -26.903258    4.017394   -4.094092
     51          1           0      -27.671901    3.943325   -2.458540
     52          1           0      -27.426023    2.624411   -3.467170
     53          1           0      -23.916079    4.959652   -1.846221
     54          1           0      -23.523326    4.535426   -0.139932
     55          1           0      -25.447488    6.636361    0.008848
     56          1           0      -25.034117    6.594882   -1.669224
     57          1           0      -24.497459    0.310403   -5.977128
     58          1           0      -25.244113   -1.159283   -6.578892
     59          1           0      -23.541553   -0.971953   -6.566672
     60          1           0      -22.761890   -3.164721   -6.691111
     61          1           0      -24.580104   -3.328333   -6.900021
     62          1           0      -23.643977   -4.793648   -6.892283
     63          1           0      -24.780240   -5.847566   -0.119641
     64          1           0      -26.462209   -4.630249    2.237286
     65          1           0      -26.762731   -6.643788   -0.849270
     66          1           0      -27.537886   -5.048014   -0.900528
     67          1           0      -27.411400   -5.842449    0.622275
     68          1           0      -24.569771   -6.348074    2.653629
     69          1           0      -24.498163   -4.939193    3.586217
     70          1           0      -22.860058   -4.200112    1.316676
     71          1           0      -22.394183   -5.744514    1.996214
     72          1           0      -22.464008   -4.171436    2.922674
     73          1           0      -26.051452    0.423907    6.012687
     74          1           0      -24.995199   -0.950656    5.571211
     75          1           0      -26.735770   -1.086974    5.323680
     76          1           0      -26.425243    4.227677    2.251608
     77          1           0      -24.571986    7.768192    2.959403
     78          1           0      -23.242710    6.921706    2.234216
     79          1           0      -23.344236    6.889653    3.973928
     80         12           0       24.486064   -0.599232    0.371226
     81          6           0       25.522412    1.730052   -1.997238
     82          6           0       23.541041    1.892456    2.432743
     83          6           0       23.935809   -2.917966    2.768344
     84          6           0       25.919413   -3.055494   -1.578665
     85          7           0       24.560735    1.609137    0.201263
     86          6           0       24.829823    2.320088   -0.940531
     87          6           0       24.559973    3.761004   -0.726865
     88          6           0       23.978894    3.890212    0.685940
     89          6           0       23.984670    2.383127    1.190522
     90          6           0       24.613715    4.874110    1.656432
     91          6           0       23.600653    4.368950   -1.899984
     92          6           0       24.178112    5.495428   -2.788718
     93          1           0       23.320893    6.662294   -3.213569
     94          7           0       23.719537   -0.541197    2.277874
     95          6           0       23.392229    0.605451    2.985907
     96          6           0       22.966720    0.252695    4.291413
     97          6           0       23.075487   -1.158191    4.423974
     98          6           0       23.575456   -1.601230    3.118457
     99          6           0       22.381782    1.387262    5.220416
    100          6           0       22.797275   -1.948043    5.701708
    101          8           0       22.966152   -3.168742    5.842378
    102          6           0       22.208593   -1.268840    6.859146
    103          7           0       25.073792   -2.670634    0.722829
    104          6           0       24.639419   -3.429063    1.707995
    105          6           0       25.212971   -4.859943    1.599616
    106          6           0       25.364833   -4.904105    0.028051
    107          6           0       25.436877   -3.423534   -0.331907
    108          6           0       26.572141   -5.236295    2.297675
    109          6           0       24.213566   -5.659780   -0.793512
    110          6           0       22.830570   -5.166363   -0.667295
    111          7           0       25.597839   -0.741160   -1.461620
    112          6           0       26.119131   -1.848906   -2.158433
    113          6           0       26.749208   -1.398842   -3.358525
    114          6           0       26.613314   -0.025270   -3.325935
    115          6           0       25.804563    0.317361   -2.193181
    116          6           0       27.596975   -2.185044   -4.233664
    117          6           0       26.760370    1.120971   -4.092698
    118          8           0       27.290342    1.312317   -5.192041
    119          6           0       26.163601    2.345228   -3.259616
    120          6           0       27.345527    3.163613   -2.856684
    121          8           0       28.329790    2.894206   -2.200647
    122          8           0       27.144247    4.357744   -3.416688
    123          6           0       28.188010    5.398279   -3.139671
    124          1           0       23.071265    2.757783    2.904889
    125          1           0       23.597683   -3.644028    3.509664
    126          1           0       26.309889   -3.851524   -2.215767
    127          1           0       25.538036    4.237000   -0.785027
    128          1           0       22.926609    4.163315    0.610272
    129          1           0       25.272922    4.153582    2.139132
    130          1           0       23.922849    5.410230    2.307352
    131          1           0       25.240723    5.680265    1.276517
    132          1           0       22.668905    4.706811   -1.447302
    133          1           0       23.346422    3.645923   -2.675440
    134          1           0       24.430190    5.025187   -3.739649
    135          1           0       25.132073    5.864005   -2.413960
    136          1           0       22.906382    1.354052    6.175106
    137          1           0       21.389825    0.952336    5.343340
    138          1           0       22.493441    2.424775    4.905299
    139          1           0       22.830151   -0.434612    7.181495
    140          1           0       22.357868   -1.945912    7.699878
    141          1           0       21.151175   -1.020151    6.765433
    142          1           0       24.401849   -5.565180    1.781331
    143          1           0       26.291047   -5.458526   -0.121208
    144          1           0       27.353071   -4.478126    2.253101
    145          1           0       26.852235   -6.152586    1.776759
    146          1           0       26.416281   -5.448579    3.355713
    147          1           0       24.122919   -6.715529   -0.536841
    148          1           0       24.313670   -5.483059   -1.864383
    149          1           0       22.807279   -4.323464   -1.356583
    150          1           0       22.483851   -4.790009    0.295602
    151          1           0       22.015702   -5.817216   -0.982576
    152          1           0       28.566060   -2.165706   -3.733640
    153          1           0       27.712216   -1.799353   -5.246201
    154          1           0       27.211450   -3.186882   -4.425994
    155          1           0       25.389901    2.896473   -3.794156
    156          1           0       27.711482    6.073030   -2.428168
    157          1           0       28.479512    5.882847   -4.071233
    158          1           0       29.106254    5.070328   -2.651646
 ---------------------------------------------------------------------

 SCF Done:  E(RwB97XD) =  -4070.57266972     A.U. after   20 cycles

 Excitation energies and oscillator strengths:

 Excited State   1:      Singlet-A      1.5889 eV  780.34 nm  f=0.3643  <S**2>=0.000
     309 -> 315        0.18992
     312 -> 314        0.68307
     309 <- 315        0.12270
 This state for optimization and/or second-order correction.
 Total Energy, E(TD-HF/TD-DFT) =  -4070.51428032
 Copying the excited state density for this state as the 1-particle RhoCI density.

 Excited State   2:      Singlet-A      1.6463 eV  753.12 nm  f=0.3753  <S**2>=0.000
     310 -> 316        0.18125
     311 -> 313        0.68366
     310 <- 316        0.11553

 Excited State   3:      Singlet-A      2.1205 eV  584.70 nm  f=0.1342  <S**2>=0.000
     310 -> 313        0.64939
     311 -> 316       -0.26634

 Excited State   4:      Singlet-A      2.1589 eV  574.30 nm  f=0.0895  <S**2>=0.000
     309 -> 314        0.62443
     312 -> 315       -0.32203

 Excited State   5:      Singlet-A      3.3233 eV  373.07 nm  f=0.0023  <S**2>=0.000
     306 -> 313       -0.37130
     306 -> 317        0.23970
     306 -> 319       -0.16356
     308 -> 313        0.45646
     308 -> 317       -0.15053

 The electronic state is 1-A.
 Alpha  occ. eigenvalues --  -46.95686 -46.94632 -19.30281 -19.30150 -19.24547
 Alpha  occ. eigenvalues --  -19.24410 -19.24036 -19.23702 -19.23319 -19.22975
 Alpha  occ. eigenvalues --  -14.47076 -14.46587 -14.46429 -14.46144 -14.44736
 Alpha  occ. eigenvalues --  -14.44318 -14.44307 -14.43581 -10.42460 -10.42330
 Alpha  occ. eigenvalues --  -10.39582 -10.39426 -10.39042 -10.38205 -10.35991
 Alpha  occ. eigenvalues --  -10.35479 -10.35475 -10.35474 -10.35390 -10.35275
 Alpha  occ. eigenvalues --  -10.35242 -10.35143 -10.35136 -10.34704 -10.34636
 Alpha  occ. eigenvalues --  -10.34307 -10.34109 -10.34038 -10.33948 -10.33824
 Alpha  occ. eigenvalues --  -10.33129 -10.33006 -10.32941 -10.32903 -10.32814
 Alpha  occ. eigenvalues --  -10.32737 -10.32667 -10.32616 -10.32581 -10.32511
 Alpha  occ. eigenvalues --  -10.32485 -10.32474 -10.32419 -10.32403 -10.32299
 Alpha  occ. eigenvalues --  -10.32294 -10.32239 -10.32012 -10.31960 -10.31853
 Alpha  occ. eigenvalues --  -10.31659 -10.31608 -10.31550 -10.31481 -10.31469
 Alpha  occ. eigenvalues --  -10.31347 -10.31200 -10.30859 -10.30775 -10.30686
 Alpha  occ. eigenvalues --  -10.30537 -10.30330 -10.30323 -10.30120 -10.30098
 Alpha  occ. eigenvalues --  -10.30031 -10.29935 -10.29929 -10.29886 -10.29859
 Alpha  occ. eigenvalues --  -10.29607 -10.29468 -10.29453 -10.29219 -10.28710
 Alpha  occ. eigenvalues --  -10.28550  -3.21549  -3.20761  -1.95138  -1.94647
 Alpha  occ. eigenvalues --   -1.94533  -1.94339  -1.93901  -1.93733  -1.19199
 Alpha  occ. eigenvalues --   -1.18136  -1.13691  -1.12278  -1.11339  -1.10830
 Alpha  occ. eigenvalues --   -1.09567  -1.07481  -1.07438  -1.06312  -1.05787
 Alpha  occ. eigenvalues --   -1.05408  -1.05129  -1.04664  -1.04270  -1.03751
 Alpha  occ. eigenvalues --   -0.94205  -0.92828  -0.91131  -0.91106  -0.90625
 Alpha  occ. eigenvalues --   -0.90613  -0.90323  -0.89938  -0.89893  -0.89534
 Alpha  occ. eigenvalues --   -0.89306  -0.88902  -0.88815  -0.88405  -0.86574
 Alpha  occ. eigenvalues --   -0.86159  -0.86047  -0.85472  -0.84997  -0.84276
 Alpha  occ. eigenvalues --   -0.83942  -0.83521  -0.83447  -0.82980  -0.82707
 Alpha  occ. eigenvalues --   -0.82138  -0.80721  -0.80111  -0.79606  -0.79316
 Alpha  occ. eigenvalues --   -0.79221  -0.78889  -0.77905  -0.77902  -0.77302
 Alpha  occ. eigenvalues --   -0.77073  -0.75488  -0.74588  -0.73670  -0.73631
 Alpha  occ. eigenvalues --   -0.71977  -0.71348  -0.71049  -0.70738  -0.69739
 Alpha  occ. eigenvalues --   -0.69506  -0.69176  -0.68263  -0.67737  -0.67433
 Alpha  occ. eigenvalues --   -0.67386  -0.67074  -0.66784  -0.66605  -0.66081
 Alpha  occ. eigenvalues --   -0.65964  -0.64057  -0.63783  -0.62434  -0.61921
 Alpha  occ. eigenvalues --   -0.61609  -0.61317  -0.61300  -0.60924  -0.60606
 Alpha  occ. eigenvalues --   -0.60258  -0.59900  -0.59717  -0.59374  -0.58428
 Alpha  occ. eigenvalues --   -0.58196  -0.57703  -0.57650  -0.57485  -0.57421
 Alpha  occ. eigenvalues --   -0.57048  -0.57001  -0.56778  -0.56652  -0.56590
 Alpha  occ. eigenvalues --   -0.55903  -0.55301  -0.55284  -0.55172  -0.55160
 Alpha  occ. eigenvalues --   -0.54953  -0.54842  -0.54657  -0.54653  -0.54338
 Alpha  occ. eigenvalues --   -0.54146  -0.54063  -0.53854  -0.53468  -0.53130
 Alpha  occ. eigenvalues --   -0.53026  -0.52907  -0.52847  -0.52335  -0.52067
 Alpha  occ. eigenvalues --   -0.51753  -0.51735  -0.51668  -0.51566  -0.51393
 Alpha  occ. eigenvalues --   -0.51223  -0.51170  -0.51139  -0.50968  -0.50917
 Alpha  occ. eigenvalues --   -0.50572  -0.50448  -0.50372  -0.50285  -0.50081
 Alpha  occ. eigenvalues --   -0.50034  -0.49451  -0.49369  -0.49318  -0.49107
 Alpha  occ. eigenvalues --   -0.48770  -0.48682  -0.48618  -0.48587  -0.48298
 Alpha  occ. eigenvalues --   -0.48183  -0.48128  -0.47922  -0.47765  -0.47756
 Alpha  occ. eigenvalues --   -0.47436  -0.47217  -0.47183  -0.46839  -0.46570
 Alpha  occ. eigenvalues --   -0.46399  -0.46344  -0.46088  -0.46075  -0.46039
 Alpha  occ. eigenvalues --   -0.45899  -0.45629  -0.45602  -0.45473  -0.45301
 Alpha  occ. eigenvalues --   -0.45154  -0.45075  -0.44963  -0.44935  -0.44910
 Alpha  occ. eigenvalues --   -0.44516  -0.44473  -0.44150  -0.44069  -0.44067
 Alpha  occ. eigenvalues --   -0.43788  -0.43753  -0.43622  -0.43308  -0.43018
 Alpha  occ. eigenvalues --   -0.42845  -0.42836  -0.42649  -0.42276  -0.42115
 Alpha  occ. eigenvalues --   -0.42093  -0.41474  -0.41411  -0.41092  -0.40857
 Alpha  occ. eigenvalues --   -0.40539  -0.40044  -0.39984  -0.39982  -0.39644
 Alpha  occ. eigenvalues --   -0.39550  -0.39090  -0.38720  -0.38437  -0.38056
 Alpha  occ. eigenvalues --   -0.38042  -0.37658  -0.36480  -0.36259  -0.35908
 Alpha  occ. eigenvalues --   -0.35752  -0.35346  -0.34721  -0.33693  -0.33609
 Alpha  occ. eigenvalues --   -0.32996  -0.32975  -0.32813  -0.32715  -0.32517
 Alpha  occ. eigenvalues --   -0.32516  -0.32158  -0.32157  -0.26031  -0.25939
 Alpha  occ. eigenvalues --   -0.23264  -0.22764
 Alpha virt. eigenvalues --   -0.07349  -0.07071  -0.00132   0.00281   0.02326
 Alpha virt. eigenvalues --    0.02699   0.04345   0.04475   0.05293   0.06501
 Alpha virt. eigenvalues --    0.07587   0.07739   0.07966   0.08514   0.08613

 Mulliken charges:
               1
     1  Mg   0.987923
     2  C    0.030723
     3  C   -0.071676
     4  C   -0.057335
     5  C   -0.105005
     6  N   -0.311486
     7  C   -0.008540
     8  C   -0.088481
     9  C   -0.082933
    10  C    0.047703
    11  C    0.016122
    12  C    0.051504
    13  C   -0.150309
    14  H    0.031557
    15  N   -0.450346
    16  C    0.180602
    17  C   -0.160678
    18  C   -0.081980
    19  C    0.134307
    20  C    0.054852
    21  C    0.056914
    22  O   -0.215995
    23  C   -0.009139
    24  N   -0.398413
    25  C    0.036604
    26  C   -0.083196
    27  C   -0.076557
    28  C    0.060626
    29  C    0.027340
    30  C   -0.006016
    31  C   -0.051460
    32  N   -0.527247
    33  C    0.158707
    34  C   -0.163644
    35  C   -0.041781
    36  C    0.161936
    37  C    0.081443
    38  C    0.128570
    39  O   -0.198784
    40  C   -0.130152
    41  C    0.252325
    42  O   -0.287006
    43  O   -0.341690
    44  C    0.147799
    45  H   -0.001416
    46  H    0.022970
    47  H   -0.006052
    48  H    0.039139
    49  H    0.035195
    50  H    0.033074
    51  H    0.038322
    52  H    0.025668
    53  H    0.023401
    54  H    0.069072
    55  H    0.048314
    56  H    0.037575
    57  H    0.022394
    58  H    0.055872
    59  H    0.037912
    60  H    0.076447
    61  H    0.034974
    62  H    0.053183
    63  H    0.040842
    64  H    0.043006
    65  H    0.048286
    66  H    0.047200
    67  H    0.024264
    68  H    0.039510
    69  H    0.022291
    70  H    0.040665
    71  H    0.045464
    72  H    0.042412
    73  H    0.065303
    74  H    0.051800
    75  H    0.044446
    76  H    0.067560
    77  H    0.057695
    78  H    0.052485
    79  H    0.073014
    80  Mg   0.939086
    81  C   -0.014635
    82  C   -0.073830
    83  C   -0.062200
    84  C   -0.108089
    85  N   -0.378487
    86  C    0.014406
    87  C   -0.066763
    88  C   -0.052570
    89  C   -0.019114
    90  C    0.003404
    91  C    0.003944
    92  C   -0.135900
    93  H    0.038457
    94  N   -0.463652
    95  C    0.198353
    96  C   -0.182564
    97  C   -0.073531
    98  C    0.131164
    99  C    0.082967
   100  C    0.052620
   101  O   -0.248046
   102  C   -0.009794
   103  N   -0.296411
   104  C    0.020114
   105  C   -0.042589
   106  C   -0.112740
   107  C    0.095838
   108  C    0.041900
   109  C    0.013780
   110  C   -0.088504
   111  N   -0.408810
   112  C    0.114714
   113  C   -0.133291
   114  C    0.022661
   115  C    0.108482
   116  C    0.062399
   117  C    0.079736
   118  O   -0.226683
   119  C   -0.091734
   120  C    0.269328
   121  O   -0.244541
   122  O   -0.346875
   123  C    0.120647
   124  H   -0.007297
   125  H    0.014673
   126  H   -0.002424
   127  H    0.047197
   128  H    0.033952
   129  H    0.048096
   130  H    0.042023
   131  H    0.040860
   132  H    0.041759
   133  H    0.042535
   134  H    0.057974
   135  H    0.038118
   136  H    0.037999
   137  H    0.060550
   138  H    0.052908
   139  H    0.039007
   140  H    0.045909
   141  H    0.075385
   142  H    0.019762
   143  H    0.023015
   144  H    0.050113
   145  H    0.040561
   146  H    0.051596
   147  H    0.036076
   148  H    0.028684
   149  H    0.022176
   150  H    0.034911
   151  H    0.039565
   152  H    0.074331
   153  H    0.055794
   154  H    0.035983
   155  H    0.056721
   156  H    0.046833
   157  H    0.068340
   158  H    0.073665
 Sum of Mulliken charges =  -0.00000

 Dipole moment (field-independent basis, Debye):
    X=             -4.7902    Y=              1.4054    Z=             -1.8156  Tot=              5.3120
 Quadrupole moment (field-independent basis, Debye-Ang):
   XX=           -569.9017   YY=           -462.7865   ZZ=           -525.7324
   XY=             35.9460   XZ=            147.5968   YZ=             -7.0292

 Normal termination of Gaussian 16 at Sun Sep 19 08:08:15 2021.
