 Gaussian 16, Revision A.03,
 Gaussian 16:  ES64L-G16RevA.03 25-Dec-2016

 --------------------------------
 #p wB97XD/Def2SVP td=(nstates=5)
 --------------------------------

 --------------------------------
 TDDFT excited states in gaussian
 --------------------------------
 Symbolic Z-matrix:
 Charge =  0 Multiplicity = 1

                         Standard orientation:
 ---------------------------------------------------------------------
 Center     Atomic      Atomic             Coordinates (Angstroms)
 Number     Number       Type             X           Y           Z
 ---------------------------------------------------------------------
      1         12           0      -21.288983   -0.030046   -0.490080
      2          6           0      -18.005196    0.024349    0.544362
      3          6           0      -21.456759   -3.310012    0.446919
      4          6           0      -24.565345    0.344235   -0.294943
      5          6           0      -20.950513    3.355041   -1.358471
      6          7           0      -19.970272   -1.291339    0.827191
      7          6           0      -18.622021   -1.148898    0.904273
      8          6           0      -17.940973   -2.363751    1.461696
      9          6           0      -18.951162   -3.467335    1.009293
     10          6           0      -20.186766   -2.648978    0.664811
     11          6           0      -18.403090   -4.361504   -0.139658
     12          6           0      -17.809383   -2.306386    3.065858
     13          6           0      -16.482578   -2.963557    3.669355
     14          1           0      -16.897048   -4.085607    4.588734
     15          7           0      -22.801874   -1.375173   -0.181795
     16          6           0      -22.729196   -2.645508    0.272655
     17          6           0      -24.062525   -3.209825    0.439891
     18          6           0      -24.975954   -2.164099    0.194264
     19          6           0      -24.108917   -0.990621   -0.107518
     20          6           0      -24.260898   -4.678849    0.885861
     21          6           0      -26.450088   -2.288491    0.461368
     22          8           0      -26.899934   -3.344083    0.824144
     23          6           0      -27.460554   -1.130476    0.353882
     24          7           0      -22.644508    1.591942   -0.910168
     25          6           0      -23.886972    1.486297   -0.740056
     26          6           0      -24.616452    2.769210   -0.895932
     27          6           0      -23.456731    3.776972   -1.261189
     28          6           0      -22.287230    2.895397   -1.178497
     29          6           0      -25.797148    2.644795   -1.917351
     30          6           0      -23.378409    5.000439   -0.235193
     31          6           0      -22.605649    6.286134   -0.699037
     32          7           0      -19.811766    1.410869   -0.521270
     33          6           0      -19.803972    2.708151   -1.000759
     34          6           0      -18.470555    3.242815   -0.990956
     35          6           0      -17.691192    2.175822   -0.421350
     36          6           0      -18.559501    1.160874   -0.068466
     37          6           0      -18.017166    4.586201   -1.464349
     38          6           0      -16.365637    1.790418   -0.079254
     39          8           0      -15.253671    2.330918   -0.137920
     40          6           0      -16.536184    0.465636    0.735539
     41          6           0      -15.487931   -0.475510    0.243001
     42          8           0      -14.371728   -0.624683    0.759766
     43          8           0      -15.924387   -1.101044   -0.892130
     44          6           0      -14.846796   -1.998763   -1.394885
     45          1           0      -21.586076   -4.386184    0.582349
     46          1           0      -25.643765    0.451081   -0.164807
     47          1           0      -20.876562    4.435996   -1.500037
     48          1           0      -17.014313   -2.427947    0.892762
     49          1           0      -19.120476   -4.154522    1.838436
     50          1           0      -18.302081   -5.385537    0.218701
     51          1           0      -17.391225   -4.017822   -0.356881
     52          1           0      -19.060357   -4.229369   -0.998530
     53          1           0      -18.666974   -2.667359    3.633404
     54          1           0      -17.793600   -1.271462    3.406080
     55          1           0      -16.053728   -2.173238    4.285639
     56          1           0      -15.675170   -3.264517    3.001711
     57          1           0      -24.825004   -4.806325    1.809710
     58          1           0      -23.334176   -5.248092    0.966366
     59          1           0      -24.778376   -5.185340    0.071812
     60          1           0      -27.565653   -0.743494   -0.659149
     61          1           0      -27.257167   -0.306171    1.037905
     62          1           0      -28.379633   -1.531639    0.782123
     63          1           0      -24.979245    2.972038    0.111623
     64          1           0      -23.411117    4.169666   -2.276686
     65          1           0      -26.707452    2.908312   -1.379274
     66          1           0      -25.866494    1.642125   -2.339571
     67          1           0      -25.814238    3.426442   -2.676689
     68          1           0      -22.914772    4.676664    0.696879
     69          1           0      -24.414555    5.255227   -0.017379
     70          1           0      -23.106728    7.251560   -0.764019
     71          1           0      -22.232516    6.161334   -1.714630
     72          1           0      -21.741292    6.457205   -0.057360
     73          1           0      -18.747203    5.185093   -2.008492
     74          1           0      -17.175374    4.276250   -2.082244
     75          1           0      -17.638858    4.994270   -0.526996
     76          1           0      -16.457695    0.590106    1.816089
     77          1           0      -14.024319   -1.395393   -1.777721
     78          1           0      -15.134548   -2.538381   -2.297193
     79          1           0      -14.577059   -2.674893   -0.583327
     80         12           0       20.629242    0.780970   -0.654948
     81          6           0       20.441169   -2.769909   -0.836685
     82          6           0       17.240642    0.910683   -0.171921
     83          6           0       20.976244    4.046076    0.555724
     84          6           0       24.132645    0.523289   -0.564227
     85          7           0       19.065763   -0.910108   -0.270669
     86          6           0       19.160609   -2.202380   -0.623915
     87          6           0       17.770618   -2.758241   -0.873935
     88          6           0       16.706594   -1.591146   -0.593444
     89          6           0       17.789603   -0.403112   -0.474127
     90          6           0       15.773231   -1.463719   -1.818341
     91          6           0       17.514818   -3.984586   -0.012698
     92          6           0       18.085317   -3.959625    1.425251
     93          1           0       17.064203   -3.778178    2.581402
     94          7           0       19.262475    2.339245    0.021497
     95          6           0       17.907080    2.122863    0.143050
     96          6           0       17.335661    3.399665    0.436703
     97          6           0       18.378415    4.349904    0.758175
     98          6           0       19.630836    3.631584    0.411423
     99          6           0       15.851726    3.600325    0.640124
    100          6           0       18.231665    5.711064    1.440159
    101          8           0       17.137693    6.091248    1.810557
    102          6           0       19.333931    6.589619    1.694194
    103          7           0       22.302007    2.073141    0.015208
    104          6           0       22.172622    3.359844    0.303055
    105          6           0       23.492405    4.041178    0.626289
    106          6           0       24.453783    2.775801    0.612755
    107          6           0       23.635228    1.738805   -0.067905
    108          6           0       23.916941    5.171883   -0.432739
    109          6           0       24.941220    2.427903    2.094167
    110          6           0       26.378748    2.616588    2.488409
    111          7           0       21.981558   -0.680818   -0.926665
    112          6           0       23.388559   -0.618484   -0.989555
    113          6           0       23.950881   -1.929030   -1.365455
    114          6           0       22.816356   -2.739417   -1.326954
    115          6           0       21.638400   -2.010067   -0.939321
    116          6           0       25.407136   -2.301386   -1.811139
    117          6           0       22.398825   -4.134005   -1.503501
    118          8           0       23.008190   -5.169826   -1.817594
    119          6           0       20.863336   -4.220896   -1.217264
    120          6           0       20.879914   -5.126257   -0.034270
    121          8           0       21.460904   -4.911305    0.998513
    122          8           0       20.266168   -6.269355   -0.326438
    123          6           0       20.085497   -7.306067    0.748976
    124          1           0       16.161684    0.993657   -0.317255
    125          1           0       21.231020    5.064543    0.855532
    126          1           0       25.213736    0.534681   -0.407291
    127          1           0       17.899725   -3.036409   -1.919931
    128          1           0       16.142737   -1.750894    0.325988
    129          1           0       14.751339   -1.644558   -1.485575
    130          1           0       15.964114   -2.188233   -2.610433
    131          1           0       15.862138   -0.430224   -2.152055
    132          1           0       17.930627   -4.865663   -0.501557
    133          1           0       16.444425   -4.132851    0.132997
    134          1           0       18.739574   -3.131392    1.697072
    135          1           0       18.607710   -4.911199    1.524480
    136          1           0       15.302359    2.660908    0.573450
    137          1           0       15.526218    4.373890   -0.056238
    138          1           0       15.721408    4.082095    1.608519
    139          1           0       20.083344    6.211354    2.389793
    140          1           0       18.959981    7.523493    2.113452
    141          1           0       19.788940    6.692162    0.708432
    142          1           0       23.553104    4.433173    1.641235
    143          1           0       25.337744    3.191288    0.128598
    144          1           0       23.124879    5.292696   -1.172332
    145          1           0       24.802609    4.807185   -0.953363
    146          1           0       24.199117    6.138890   -0.013507
    147          1           0       24.845136    1.361958    2.300962
    148          1           0       24.356812    2.971497    2.835244
    149          1           0       26.957118    1.692797    2.504622
    150          1           0       26.237249    2.993077    3.502026
    151          1           0       26.878624    3.459464    2.010855
    152          1           0       26.031224   -2.317485   -0.918050
    153          1           0       25.706761   -1.572026   -2.563886
    154          1           0       25.397475   -3.321324   -2.195076
    155          1           0       20.411372   -4.614852   -2.128295
    156          1           0       20.954554   -7.954722    0.861255
    157          1           0       19.222938   -7.941091    0.542838
    158          1           0       19.892897   -6.731962    1.655274
 ---------------------------------------------------------------------

 SCF Done:  E(RwB97XD) =  -4070.56077824     A.U. after   20 cycles

 Excitation energies and oscillator strengths:

 Excited State   1:      Singlet-A      1.6286 eV  761.28 nm  f=0.3518  <S**2>=0.000
     309 -> 315        0.20683
     311 -> 314        0.67833
     309 <- 315        0.12519
 This state for optimization and/or second-order correction.
 Total Energy, E(TD-HF/TD-DFT) =  -4070.50092713
 Copying the excited state density for this state as the 1-particle RhoCI density.

 Excited State   2:      Singlet-A      1.6576 eV  747.95 nm  f=0.3601  <S**2>=0.000
     310 -> 316        0.16760
     312 -> 313        0.68544
     310 <- 316        0.10878

 Excited State   3:      Singlet-A      2.1415 eV  578.95 nm  f=0.0705  <S**2>=0.000
     309 -> 314        0.61694
     311 -> 315       -0.33157

 Excited State   4:      Singlet-A      2.1685 eV  571.76 nm  f=0.1044  <S**2>=0.000
     310 -> 313        0.63811
     312 -> 316       -0.28226

 Excited State   5:      Singlet-A      3.1851 eV  389.27 nm  f=0.0153  <S**2>=0.000
     307 -> 314        0.65692
     307 -> 318       -0.10734
     311 -> 315        0.20186

 The electronic state is 1-A.
 Alpha  occ. eigenvalues --  -46.96505 -46.95574 -19.30739 -19.30251 -19.24604
 Alpha  occ. eigenvalues --  -19.23982 -19.23866 -19.23750 -19.23043 -19.22885
 Alpha  occ. eigenvalues --  -14.46970 -14.46687 -14.46521 -14.46501 -14.44964
 Alpha  occ. eigenvalues --  -14.44707 -14.44111 -14.43136 -10.42526 -10.42495
 Alpha  occ. eigenvalues --  -10.39794 -10.38960 -10.38218 -10.38019 -10.36452
 Alpha  occ. eigenvalues --  -10.36183 -10.36071 -10.35880 -10.35445 -10.35354
 Alpha  occ. eigenvalues --  -10.35161 -10.34970 -10.34968 -10.34693 -10.34687
 Alpha  occ. eigenvalues --  -10.34677 -10.34169 -10.33929 -10.33923 -10.33870
 Alpha  occ. eigenvalues --  -10.33650 -10.32959 -10.32904 -10.32762 -10.32732
 Alpha  occ. eigenvalues --  -10.32443 -10.32396 -10.32338 -10.32266 -10.32252
 Alpha  occ. eigenvalues --  -10.32179 -10.32178 -10.32176 -10.32152 -10.32113
 Alpha  occ. eigenvalues --  -10.31856 -10.31853 -10.31851 -10.31744 -10.31689
 Alpha  occ. eigenvalues --  -10.31685 -10.31511 -10.31427 -10.31388 -10.31302
 Alpha  occ. eigenvalues --  -10.31249 -10.31101 -10.30948 -10.30892 -10.30826
 Alpha  occ. eigenvalues --  -10.30670 -10.30658 -10.30642 -10.30600 -10.30594
 Alpha  occ. eigenvalues --  -10.30499 -10.30300 -10.30106 -10.30093 -10.30029
 Alpha  occ. eigenvalues --  -10.30014 -10.29781 -10.29458 -10.29281 -10.28935
 Alpha  occ. eigenvalues --  -10.28379  -3.22299  -3.21585  -1.95843  -1.95446
 Alpha  occ. eigenvalues --   -1.95232  -1.95160  -1.94724  -1.94548  -1.19191
 Alpha  occ. eigenvalues --   -1.18084  -1.14246  -1.12381  -1.10998  -1.10263
 Alpha  occ. eigenvalues --   -1.09858  -1.09058  -1.08602  -1.06688  -1.06555
 Alpha  occ. eigenvalues --   -1.05976  -1.05631  -1.04811  -1.04386  -1.03618
 Alpha  occ. eigenvalues --   -0.94423  -0.93878  -0.91609  -0.90792  -0.90632
 Alpha  occ. eigenvalues --   -0.90614  -0.90136  -0.90123  -0.89244  -0.88980
 Alpha  occ. eigenvalues --   -0.88938  -0.88525  -0.88029  -0.87288  -0.86556
 Alpha  occ. eigenvalues --   -0.86214  -0.85880  -0.85677  -0.84738  -0.84483
 Alpha  occ. eigenvalues --   -0.84179  -0.83747  -0.83012  -0.82830  -0.82284
 Alpha  occ. eigenvalues --   -0.82167  -0.80349  -0.79822  -0.79799  -0.79249
 Alpha  occ. eigenvalues --   -0.78719  -0.78295  -0.78165  -0.77873  -0.77447
 Alpha  occ. eigenvalues --   -0.76871  -0.74806  -0.74645  -0.74220  -0.73674
 Alpha  occ. eigenvalues --   -0.72385  -0.71330  -0.70808  -0.70408  -0.70138
 Alpha  occ. eigenvalues --   -0.70050  -0.69679  -0.68750  -0.68646  -0.67452
 Alpha  occ. eigenvalues --   -0.67306  -0.67112  -0.66863  -0.66732  -0.66463
 Alpha  occ. eigenvalues --   -0.65986  -0.64386  -0.64376  -0.62578  -0.62207
 Alpha  occ. eigenvalues --   -0.61570  -0.61213  -0.61188  -0.60961  -0.60772
 Alpha  occ. eigenvalues --   -0.60595  -0.59994  -0.59772  -0.59208  -0.58971
 Alpha  occ. eigenvalues --   -0.58586  -0.58176  -0.58109  -0.57775  -0.57648
 Alpha  occ. eigenvalues --   -0.56932  -0.56926  -0.56832  -0.56434  -0.56072
 Alpha  occ. eigenvalues --   -0.55775  -0.55549  -0.55354  -0.54970  -0.54932
 Alpha  occ. eigenvalues --   -0.54663  -0.54535  -0.54413  -0.54335  -0.53941
 Alpha  occ. eigenvalues --   -0.53922  -0.53636  -0.53613  -0.53413  -0.53119
 Alpha  occ. eigenvalues --   -0.53112  -0.52560  -0.52533  -0.52416  -0.52171
 Alpha  occ. eigenvalues --   -0.52030  -0.51848  -0.51689  -0.51661  -0.51573
 Alpha  occ. eigenvalues --   -0.51345  -0.51121  -0.51062  -0.50880  -0.50842
 Alpha  occ. eigenvalues --   -0.50603  -0.50433  -0.50242  -0.50138  -0.49706
 Alpha  occ. eigenvalues --   -0.49672  -0.49571  -0.49358  -0.49186  -0.48887
 Alpha  occ. eigenvalues --   -0.48867  -0.48795  -0.48741  -0.48489  -0.48207
 Alpha  occ. eigenvalues --   -0.48164  -0.48161  -0.47812  -0.47696  -0.47681
 Alpha  occ. eigenvalues --   -0.47503  -0.47329  -0.47194  -0.47084  -0.47047
 Alpha  occ. eigenvalues --   -0.46990  -0.46753  -0.46565  -0.46351  -0.46250
 Alpha  occ. eigenvalues --   -0.46222  -0.46134  -0.45939  -0.45874  -0.45560
 Alpha  occ. eigenvalues --   -0.45451  -0.45288  -0.45110  -0.45082  -0.44878
 Alpha  occ. eigenvalues --   -0.44814  -0.44521  -0.44297  -0.44082  -0.43924
 Alpha  occ. eigenvalues --   -0.43833  -0.43815  -0.43408  -0.43344  -0.43307
 Alpha  occ. eigenvalues --   -0.43213  -0.43111  -0.42732  -0.42664  -0.41977
 Alpha  occ. eigenvalues --   -0.41954  -0.41920  -0.41682  -0.41510  -0.40578
 Alpha  occ. eigenvalues --   -0.40503  -0.40225  -0.39857  -0.39616  -0.39341
 Alpha  occ. eigenvalues --   -0.39095  -0.38888  -0.38801  -0.38766  -0.38408
 Alpha  occ. eigenvalues --   -0.38291  -0.37638  -0.36973  -0.36149  -0.36040
 Alpha  occ. eigenvalues --   -0.35805  -0.35569  -0.35331  -0.33973  -0.33587
 Alpha  occ. eigenvalues --   -0.33549  -0.32792  -0.32714  -0.32559  -0.32340
 Alpha  occ. eigenvalues --   -0.32008  -0.31073  -0.31028  -0.26156  -0.26145
 Alpha  occ. eigenvalues --   -0.23075  -0.22984
 Alpha virt. eigenvalues --   -0.07114  -0.07075  -0.00618   0.00138   0.02296
 Alpha virt. eigenvalues --    0.02391   0.04151   0.04185   0.04622   0.05138
 Alpha virt. eigenvalues --    0.06968   0.07224   0.07643   0.08127   0.08925

 Mulliken charges:
               1
     1  Mg   0.966600
     2  C    0.015893
     3  C   -0.089425
     4  C   -0.073408
     5  C   -0.081698
     6  N   -0.340755
     7  C   -0.050083
     8  C   -0.024571
     9  C   -0.146443
    10  C    0.111120
    11  C    0.045244
    12  C    0.022920
    13  C   -0.129967
    14  H    0.028883
    15  N   -0.460486
    16  C    0.119216
    17  C   -0.139203
    18  C   -0.060686
    19  C    0.168440
    20  C    0.086663
    21  C    0.018674
    22  O   -0.211055
    23  C   -0.019722
    24  N   -0.295170
    25  C    0.031255
    26  C   -0.087947
    27  C   -0.051437
    28  C    0.005335
    29  C    0.018794
    30  C   -0.018511
    31  C   -0.065403
    32  N   -0.450832
    33  C    0.151220
    34  C   -0.200725
    35  C   -0.007589
    36  C    0.106034
    37  C    0.098605
    38  C    0.085825
    39  O   -0.226209
    40  C   -0.061071
    41  C    0.241228
    42  O   -0.258073
    43  O   -0.370083
    44  C    0.138467
    45  H    0.002854
    46  H   -0.045458
    47  H   -0.027243
    48  H    0.026071
    49  H    0.042454
    50  H    0.041608
    51  H    0.029813
    52  H    0.040811
    53  H    0.040690
    54  H    0.032353
    55  H    0.057571
    56  H    0.062904
    57  H    0.069819
    58  H    0.019248
    59  H    0.052838
    60  H    0.067227
    61  H    0.060722
    62  H    0.051534
    63  H    0.046699
    64  H    0.041963
    65  H    0.030585
    66  H    0.057213
    67  H    0.038729
    68  H    0.041083
    69  H    0.036562
    70  H    0.040122
    71  H    0.033042
    72  H    0.044225
    73  H    0.043254
    74  H    0.064995
    75  H    0.064743
    76  H    0.078471
    77  H    0.064878
    78  H    0.047277
    79  H    0.060478
    80  Mg   0.942093
    81  C   -0.038090
    82  C   -0.073412
    83  C   -0.078369
    84  C   -0.055683
    85  N   -0.320031
    86  C   -0.052904
    87  C   -0.003197
    88  C   -0.147414
    89  C    0.056766
    90  C    0.022555
    91  C   -0.011337
    92  C   -0.138295
    93  H    0.013945
    94  N   -0.462342
    95  C    0.168101
    96  C   -0.175017
    97  C   -0.086748
    98  C    0.201879
    99  C    0.084888
   100  C    0.035923
   101  O   -0.235925
   102  C    0.005295
   103  N   -0.322818
   104  C    0.047410
   105  C   -0.151679
   106  C   -0.062467
   107  C    0.046672
   108  C    0.017242
   109  C   -0.028923
   110  C   -0.050483
   111  N   -0.501309
   112  C    0.150853
   113  C   -0.184792
   114  C   -0.035131
   115  C    0.187077
   116  C    0.087868
   117  C    0.097747
   118  O   -0.231154
   119  C   -0.050720
   120  C    0.238487
   121  O   -0.235987
   122  O   -0.346849
   123  C    0.130818
   124  H    0.013736
   125  H   -0.019981
   126  H    0.003272
   127  H    0.035221
   128  H    0.061645
   129  H    0.033498
   130  H    0.044476
   131  H    0.040385
   132  H    0.041093
   133  H    0.041354
   134  H    0.087270
   135  H    0.047392
   136  H    0.029883
   137  H    0.048599
   138  H    0.062113
   139  H    0.066354
   140  H    0.056742
   141  H    0.054668
   142  H    0.040383
   143  H    0.018035
   144  H    0.043576
   145  H    0.031171
   146  H    0.046319
   147  H    0.037489
   148  H    0.032166
   149  H    0.053184
   150  H    0.028082
   151  H    0.026611
   152  H    0.054242
   153  H    0.056585
   154  H    0.062993
   155  H    0.067933
   156  H    0.072727
   157  H    0.059151
   158  H    0.067088
 Sum of Mulliken charges =  -0.00000

 Dipole moment (field-independent basis, Debye):
    X=             -5.0068    Y=              1.6504    Z=             -3.9649  Tot=              6.5964
 Quadrupole moment (field-independent basis, Debye-Ang):
   XX=           -274.8416   YY=           -496.0245   ZZ=           -509.1218
   XY=             29.7075   XZ=             24.8743   YZ=             -8.7077

 Normal termination of Gaussian 16 at Mon Sep 20 05:08:23 2021.
