 Gaussian 16, Revision A.03,
 Gaussian 16:  ES64L-G16RevA.03 25-Dec-2016

 --------------------------------
 #p wB97XD/Def2SVP td=(nstates=5)
 --------------------------------

 --------------------------------
 TDDFT excited states in gaussian
 --------------------------------
 Symbolic Z-matrix:
 Charge =  0 Multiplicity = 1

                         Standard orientation:
 ---------------------------------------------------------------------
 Center     Atomic      Atomic             Coordinates (Angstroms)
 Number     Number       Type             X           Y           Z
 ---------------------------------------------------------------------
      1         12           0        9.554041    0.588915   -0.043558
      2          6           0        7.882139   -1.808081   -1.884369
      3          6           0        7.799330    2.997937   -1.766326
      4          6           0       10.748801    2.930604    2.167380
      5          6           0       11.185101   -1.882739    1.711935
      6          7           0        7.891157    0.591831   -1.482458
      7          6           0        7.434272   -0.534276   -2.138374
      8          6           0        6.386635   -0.191809   -3.194302
      9          6           0        6.630718    1.353146   -3.372248
     10          6           0        7.439749    1.667743   -2.122413
     11          6           0        7.270652    1.840480   -4.750369
     12          6           0        4.914708   -0.603293   -2.871725
     13          6           0        4.153125   -1.261820   -4.002608
     14          1           0        3.047297   -0.369765   -4.544998
     15          7           0        9.276650    2.639466    0.146969
     16          6           0        8.559886    3.435988   -0.653962
     17          6           0        8.706393    4.827342   -0.262949
     18          6           0        9.522006    4.929430    0.851642
     19          6           0        9.860269    3.472308    1.152827
     20          6           0        7.921987    6.016623   -0.996699
     21          6           0       10.011689    6.244111    1.547569
     22          8           0        9.571687    7.351510    1.127239
     23          6           0       10.929832    6.221631    2.709089
     24          7           0       10.641496    0.520276    1.908703
     25          6           0       11.139989    1.585330    2.493119
     26          6           0       12.243127    1.254308    3.476454
     27          6           0       12.395266   -0.304654    3.468046
     28          6           0       11.411761   -0.620242    2.241593
     29          6           0       13.549128    2.110952    3.503413
     30          6           0       12.033758   -1.141493    4.729346
     31          6           0       12.621162   -2.537405    4.701491
     32          7           0        9.535973   -1.477338   -0.063417
     33          6           0       10.335076   -2.385009    0.669543
     34          6           0       10.075741   -3.706127    0.165708
     35          6           0        9.131752   -3.554212   -0.879053
     36          6           0        8.838377   -2.193790   -0.913112
     37          6           0       10.854685   -4.970803    0.495357
     38          6           0        8.441569   -4.271969   -1.831726
     39          8           0        8.293490   -5.435885   -2.087537
     40          6           0        7.446240   -3.169974   -2.470249
     41          6           0        6.105719   -3.451216   -1.793154
     42          8           0        5.783508   -3.087557   -0.678473
     43          8           0        5.359933   -4.206134   -2.684035
     44          6           0        4.071349   -4.683095   -2.192404
     45          1           0        7.431972    3.806667   -2.401255
     46          1           0       11.103103    3.727834    2.823679
     47          1           0       11.729787   -2.754140    2.081266
     48          1           0        6.698295   -0.662734   -4.126159
     49          1           0        5.684532    1.844423   -3.142456
     50          1           0        7.720204    2.789320   -4.457816
     51          1           0        6.540270    2.138278   -5.503082
     52          1           0        7.986088    1.169418   -5.225490
     53          1           0        4.446338    0.344886   -2.606959
     54          1           0        4.743552   -1.132916   -1.934773
     55          1           0        3.743366   -2.195043   -3.615549
     56          1           0        4.791720   -1.499165   -4.853698
     57          1           0        7.242951    5.704824   -1.791413
     58          1           0        8.625288    6.735220   -1.418841
     59          1           0        7.216983    6.530091   -0.344394
     60          1           0       11.863693    5.737553    2.425054
     61          1           0       10.435556    5.845480    3.604899
     62          1           0       11.259442    7.255840    2.800359
     63          1           0       11.977498    1.348160    4.529620
     64          1           0       13.325442   -0.630735    3.002103
     65          1           0       13.336041    2.997146    2.904032
     66          1           0       14.444882    1.559010    3.216338
     67          1           0       13.810883    2.496887    4.488729
     68          1           0       10.946377   -1.121307    4.800848
     69          1           0       12.393846   -0.537409    5.562061
     70          1           0       12.819322   -2.829414    5.733086
     71          1           0       13.558090   -2.638920    4.152522
     72          1           0       11.855750   -3.237021    4.365561
     73          1           0       10.618151   -5.816103   -0.150942
     74          1           0       10.665960   -5.209822    1.541146
     75          1           0       11.929095   -4.806220    0.412997
     76          1           0        7.473038   -3.193957   -3.560091
     77          1           0        4.232526   -5.389570   -1.377979
     78          1           0        3.467298   -5.114110   -2.990076
     79          1           0        3.522471   -3.852078   -1.750308
     80         12           0       -9.494218    0.428762    0.164623
     81          6           0       -6.827545   -1.850563    0.071894
     82          6           0       -7.549627    2.859794   -1.031270
     83          6           0      -12.048366    2.402263    0.399666
     84          6           0      -11.113705   -1.950500    2.356664
     85          7           0       -7.391030    0.468971   -0.301497
     86          6           0       -6.533303   -0.549648   -0.441251
     87          6           0       -5.165895   -0.081005   -0.867165
     88          6           0       -5.315318    1.492440   -0.815125
     89          6           0       -6.822825    1.632367   -0.728891
     90          6           0       -4.567071    2.275062    0.312343
     91          6           0       -4.852047   -0.551347   -2.378359
     92          6           0       -3.440524   -1.203312   -2.546560
     93          1           0       -3.289112   -1.935762   -3.987733
     94          7           0       -9.821363    2.235939   -0.472774
     95          6           0       -8.895871    3.121207   -0.998629
     96          6           0       -9.602338    4.246274   -1.546526
     97          6           0      -11.008275    4.169104   -1.180453
     98          6           0      -11.068901    2.834412   -0.470332
     99          6           0       -8.790318    5.381366   -2.233933
    100          6           0      -12.241975    5.039637   -1.390390
    101          8           0      -13.410001    4.754828   -1.069669
    102          6           0      -11.941428    6.280799   -2.153612
    103          7           0      -11.210830    0.246425    1.369686
    104          6           0      -12.106276    1.278812    1.237034
    105          6           0      -13.291640    1.100186    2.186339
    106          6           0      -13.158994   -0.399583    2.559834
    107          6           0      -11.726469   -0.730304    2.136515
    108          6           0      -13.227439    2.178231    3.339961
    109          6           0      -14.220229   -1.379403    1.900817
    110          6           0      -14.496380   -2.698616    2.639749
    111          7           0       -9.115481   -1.529716    1.031321
    112          6           0       -9.859961   -2.310503    1.862658
    113          6           0       -9.241730   -3.602529    2.059532
    114          6           0       -8.069189   -3.461546    1.294880
    115          6           0       -8.000394   -2.174296    0.743099
    116          6           0       -9.676374   -4.848266    2.865393
    117          6           0       -6.898764   -4.176795    0.868856
    118          8           0       -6.566605   -5.331528    0.930914
    119          6           0       -5.956061   -3.060923    0.177632
    120          6           0       -5.491864   -3.791521   -1.004663
    121          8           0       -6.066901   -3.955570   -2.110317
    122          8           0       -4.290588   -4.284667   -0.657391
    123          6           0       -3.573182   -5.110506   -1.629694
    124          1           0       -6.945391    3.635198   -1.507080
    125          1           0      -12.940155    3.032499    0.418810
    126          1           0      -11.690235   -2.667235    2.945187
    127          1           0       -4.338459   -0.451575   -0.261442
    128          1           0       -5.054629    2.028655   -1.727798
    129          1           0       -5.318042    2.657778    1.003459
    130          1           0       -4.073694    3.101773   -0.198463
    131          1           0       -3.845221    1.740756    0.929047
    132          1           0       -4.975726    0.210048   -3.149383
    133          1           0       -5.663644   -1.222448   -2.659710
    134          1           0       -3.266862   -1.945558   -1.767723
    135          1           0       -2.603987   -0.504942   -2.549434
    136          1           0       -8.709381    5.139965   -3.292885
    137          1           0       -7.727189    5.368463   -1.990621
    138          1           0       -9.046556    6.406384   -1.967035
    139          1           0      -11.556485    6.113949   -3.159013
    140          1           0      -11.240376    6.788329   -1.489889
    141          1           0      -12.792650    6.956052   -2.245006
    142          1           0      -14.175070    1.299588    1.579656
    143          1           0      -13.304479   -0.515188    3.633839
    144          1           0      -12.936575    1.708028    4.279242
    145          1           0      -14.132133    2.731864    3.589857
    146          1           0      -12.457281    2.944857    3.252329
    147          1           0      -13.717570   -1.691874    0.985102
    148          1           0      -15.201055   -0.971073    1.656256
    149          1           0      -14.162392   -3.566517    2.069673
    150          1           0      -15.517727   -2.938277    2.936285
    151          1           0      -13.832822   -2.686728    3.503278
    152          1           0      -10.339778   -4.476601    3.646331
    153          1           0       -8.813582   -5.358595    3.295519
    154          1           0      -10.235875   -5.478399    2.174104
    155          1           0       -5.093706   -2.865612    0.815293
    156          1           0       -2.703593   -4.554282   -1.979300
    157          1           0       -4.230090   -5.495062   -2.409153
    158          1           0       -3.145929   -5.962409   -1.100862
 ---------------------------------------------------------------------

 SCF Done:  E(RwB97XD) =  -4070.60262740     A.U. after   20 cycles

 Excitation energies and oscillator strengths:

 Excited State   1:      Singlet-A      1.6703 eV  742.27 nm  f=0.3542  <S**2>=0.000
     310 -> 315        0.20290
     312 -> 314        0.67862
     310 <- 315        0.11998
 This state for optimization and/or second-order correction.
 Total Energy, E(TD-HF/TD-DFT) =  -4070.54124361
 Copying the excited state density for this state as the 1-particle RhoCI density.

 Excited State   2:      Singlet-A      1.8689 eV  663.42 nm  f=0.3803  <S**2>=0.000
     309 -> 316        0.14195
     311 -> 313        0.68577

 Excited State   3:      Singlet-A      2.1929 eV  565.40 nm  f=0.0656  <S**2>=0.000
     310 -> 314        0.61546
     312 -> 315       -0.33564

 Excited State   4:      Singlet-A      2.2252 eV  557.18 nm  f=0.1252  <S**2>=0.000
     309 -> 313        0.64323
     311 -> 316       -0.24645
     311 -> 318       -0.10803

 Excited State   5:      Singlet-A      3.5987 eV  344.52 nm  f=0.0000  <S**2>=0.000
     312 -> 313        0.70684

 The electronic state is 1-A.
 Alpha  occ. eigenvalues --  -46.95858 -46.93884 -19.30035 -19.29798 -19.25457
 Alpha  occ. eigenvalues --  -19.24842 -19.24700 -19.24018 -19.23356 -19.22744
 Alpha  occ. eigenvalues --  -14.47141 -14.47020 -14.46743 -14.46273 -14.45330
 Alpha  occ. eigenvalues --  -14.44055 -14.43113 -14.42953 -10.43000 -10.42376
 Alpha  occ. eigenvalues --  -10.41213 -10.39957 -10.38611 -10.37448 -10.37386
 Alpha  occ. eigenvalues --  -10.36623 -10.35942 -10.35714 -10.35361 -10.35157
 Alpha  occ. eigenvalues --  -10.34968 -10.34782 -10.34701 -10.34629 -10.34447
 Alpha  occ. eigenvalues --  -10.34217 -10.34211 -10.34195 -10.34109 -10.33883
 Alpha  occ. eigenvalues --  -10.33500 -10.33418 -10.33184 -10.32747 -10.32652
 Alpha  occ. eigenvalues --  -10.32623 -10.32501 -10.32402 -10.32394 -10.32372
 Alpha  occ. eigenvalues --  -10.32318 -10.32204 -10.31949 -10.31841 -10.31752
 Alpha  occ. eigenvalues --  -10.31738 -10.31718 -10.31697 -10.31642 -10.31623
 Alpha  occ. eigenvalues --  -10.31465 -10.31284 -10.31283 -10.31209 -10.31180
 Alpha  occ. eigenvalues --  -10.31150 -10.31044 -10.30918 -10.30906 -10.30878
 Alpha  occ. eigenvalues --  -10.30845 -10.30724 -10.30601 -10.30470 -10.30319
 Alpha  occ. eigenvalues --  -10.30304 -10.30222 -10.30037 -10.29906 -10.29828
 Alpha  occ. eigenvalues --  -10.29699 -10.29693 -10.29159 -10.29151 -10.28436
 Alpha  occ. eigenvalues --  -10.27093  -3.21753  -3.20126  -1.95322  -1.94877
 Alpha  occ. eigenvalues --   -1.94723  -1.93709  -1.93271  -1.93116  -1.18069
 Alpha  occ. eigenvalues --   -1.17664  -1.12952  -1.12026  -1.11596  -1.11554
 Alpha  occ. eigenvalues --   -1.10142  -1.07672  -1.07157  -1.06719  -1.06271
 Alpha  occ. eigenvalues --   -1.05975  -1.05572  -1.05388  -1.04644  -1.04429
 Alpha  occ. eigenvalues --   -0.94647  -0.93572  -0.91117  -0.91017  -0.90485
 Alpha  occ. eigenvalues --   -0.90079  -0.90056  -0.89858  -0.89334  -0.89108
 Alpha  occ. eigenvalues --   -0.88895  -0.88813  -0.88171  -0.87814  -0.86510
 Alpha  occ. eigenvalues --   -0.86409  -0.85691  -0.85639  -0.85244  -0.84356
 Alpha  occ. eigenvalues --   -0.84128  -0.84105  -0.83190  -0.82725  -0.82263
 Alpha  occ. eigenvalues --   -0.82202  -0.80149  -0.79696  -0.79197  -0.79196
 Alpha  occ. eigenvalues --   -0.78783  -0.78766  -0.77806  -0.77373  -0.77279
 Alpha  occ. eigenvalues --   -0.77191  -0.74732  -0.74455  -0.74072  -0.73783
 Alpha  occ. eigenvalues --   -0.71754  -0.71205  -0.71184  -0.70677  -0.69962
 Alpha  occ. eigenvalues --   -0.69807  -0.69491  -0.69160  -0.67945  -0.67673
 Alpha  occ. eigenvalues --   -0.67484  -0.67424  -0.66838  -0.66807  -0.66396
 Alpha  occ. eigenvalues --   -0.66137  -0.63777  -0.63711  -0.62225  -0.62137
 Alpha  occ. eigenvalues --   -0.61749  -0.61535  -0.61143  -0.61102  -0.60576
 Alpha  occ. eigenvalues --   -0.60575  -0.59947  -0.59866  -0.59429  -0.59059
 Alpha  occ. eigenvalues --   -0.58569  -0.58283  -0.57805  -0.57510  -0.57400
 Alpha  occ. eigenvalues --   -0.57075  -0.56242  -0.56183  -0.56022  -0.55802
 Alpha  occ. eigenvalues --   -0.55780  -0.55384  -0.55342  -0.55224  -0.55137
 Alpha  occ. eigenvalues --   -0.54800  -0.54713  -0.54453  -0.54108  -0.54042
 Alpha  occ. eigenvalues --   -0.53577  -0.53485  -0.53298  -0.53073  -0.52933
 Alpha  occ. eigenvalues --   -0.52784  -0.52646  -0.52607  -0.52267  -0.52244
 Alpha  occ. eigenvalues --   -0.52089  -0.52075  -0.51911  -0.51844  -0.51521
 Alpha  occ. eigenvalues --   -0.51314  -0.51082  -0.50975  -0.50794  -0.50722
 Alpha  occ. eigenvalues --   -0.50503  -0.50355  -0.50208  -0.50044  -0.49885
 Alpha  occ. eigenvalues --   -0.49617  -0.49395  -0.49274  -0.49267  -0.49149
 Alpha  occ. eigenvalues --   -0.48768  -0.48621  -0.48373  -0.48240  -0.48216
 Alpha  occ. eigenvalues --   -0.48130  -0.48021  -0.47804  -0.47608  -0.47413
 Alpha  occ. eigenvalues --   -0.47231  -0.47209  -0.47069  -0.47023  -0.46899
 Alpha  occ. eigenvalues --   -0.46804  -0.46714  -0.46368  -0.45958  -0.45919
 Alpha  occ. eigenvalues --   -0.45646  -0.45611  -0.45461  -0.45394  -0.45378
 Alpha  occ. eigenvalues --   -0.45191  -0.44971  -0.44879  -0.44772  -0.44738
 Alpha  occ. eigenvalues --   -0.44562  -0.44549  -0.44546  -0.44188  -0.44117
 Alpha  occ. eigenvalues --   -0.44084  -0.43988  -0.43833  -0.43624  -0.43216
 Alpha  occ. eigenvalues --   -0.43105  -0.42751  -0.42665  -0.42424  -0.42422
 Alpha  occ. eigenvalues --   -0.42171  -0.42161  -0.41875  -0.41462  -0.41315
 Alpha  occ. eigenvalues --   -0.41016  -0.40687  -0.40111  -0.39728  -0.39421
 Alpha  occ. eigenvalues --   -0.39391  -0.38906  -0.38701  -0.38423  -0.37468
 Alpha  occ. eigenvalues --   -0.37391  -0.37178  -0.36502  -0.36253  -0.36112
 Alpha  occ. eigenvalues --   -0.35932  -0.35437  -0.34912  -0.34587  -0.34237
 Alpha  occ. eigenvalues --   -0.33686  -0.33464  -0.33171  -0.32574  -0.32416
 Alpha  occ. eigenvalues --   -0.31728  -0.31694  -0.31250  -0.26154  -0.26076
 Alpha  occ. eigenvalues --   -0.23448  -0.22890
 Alpha virt. eigenvalues --   -0.06843  -0.06746  -0.00354   0.00049   0.01790
 Alpha virt. eigenvalues --    0.02073   0.03999   0.04606   0.04837   0.06256
 Alpha virt. eigenvalues --    0.07411   0.07499   0.07643   0.08070   0.08291

 Mulliken charges:
               1
     1  Mg   0.966633
     2  C   -0.041366
     3  C   -0.129085
     4  C   -0.108944
     5  C   -0.041881
     6  N   -0.332981
     7  C   -0.011685
     8  C   -0.074672
     9  C   -0.075774
    10  C    0.063223
    11  C    0.034961
    12  C    0.028633
    13  C   -0.106954
    14  H    0.023937
    15  N   -0.466073
    16  C    0.186063
    17  C   -0.153229
    18  C   -0.065391
    19  C    0.142104
    20  C    0.072448
    21  C    0.052328
    22  O   -0.254136
    23  C    0.003639
    24  N   -0.330918
    25  C    0.128492
    26  C   -0.083535
    27  C   -0.090932
    28  C    0.027182
    29  C    0.020513
    30  C    0.009801
    31  C   -0.034610
    32  N   -0.438574
    33  C    0.046200
    34  C   -0.148054
    35  C    0.002843
    36  C    0.157896
    37  C    0.059491
    38  C    0.058164
    39  O   -0.194690
    40  C   -0.117865
    41  C    0.296944
    42  O   -0.239020
    43  O   -0.363984
    44  C    0.141406
    45  H   -0.003817
    46  H   -0.019371
    47  H   -0.016568
    48  H    0.023567
    49  H    0.031999
    50  H    0.025066
    51  H    0.044482
    52  H    0.054199
    53  H    0.019238
    54  H    0.052469
    55  H    0.048328
    56  H    0.049297
    57  H    0.019121
    58  H    0.064788
    59  H    0.059003
    60  H    0.062044
    61  H    0.091246
    62  H    0.055149
    63  H    0.038455
    64  H    0.031725
    65  H    0.030192
    66  H    0.041768
    67  H    0.029266
    68  H    0.042052
    69  H    0.025932
    70  H    0.032669
    71  H    0.043179
    72  H    0.051736
    73  H    0.058830
    74  H    0.038289
    75  H    0.040948
    76  H    0.055042
    77  H    0.058636
    78  H    0.061046
    79  H    0.041445
    80  Mg   0.994558
    81  C    0.048610
    82  C   -0.082907
    83  C   -0.068919
    84  C   -0.108800
    85  N   -0.341552
    86  C    0.045969
    87  C   -0.121719
    88  C   -0.075781
    89  C    0.029369
    90  C    0.026883
    91  C    0.023908
    92  C   -0.140320
    93  H    0.018474
    94  N   -0.559248
    95  C    0.189722
    96  C   -0.126425
    97  C   -0.130617
    98  C    0.181272
    99  C    0.043756
   100  C    0.089107
   101  O   -0.240772
   102  C   -0.020719
   103  N   -0.364266
   104  C    0.073150
   105  C   -0.083632
   106  C   -0.059659
   107  C    0.063428
   108  C    0.017242
   109  C   -0.011387
   110  C   -0.064827
   111  N   -0.360711
   112  C    0.130679
   113  C   -0.202652
   114  C   -0.017893
   115  C    0.092444
   116  C    0.097856
   117  C    0.101861
   118  O   -0.184865
   119  C   -0.133357
   120  C    0.263497
   121  O   -0.285093
   122  O   -0.349933
   123  C    0.138507
   124  H   -0.014616
   125  H    0.026527
   126  H   -0.019316
   127  H    0.037564
   128  H    0.028664
   129  H    0.042202
   130  H    0.037317
   131  H    0.043467
   132  H    0.031365
   133  H    0.058160
   134  H    0.053412
   135  H    0.056671
   136  H    0.053950
   137  H    0.028066
   138  H    0.054065
   139  H    0.074496
   140  H    0.050189
   141  H    0.047390
   142  H    0.043222
   143  H    0.027319
   144  H    0.021185
   145  H    0.043905
   146  H    0.041017
   147  H    0.036410
   148  H    0.043244
   149  H    0.035234
   150  H    0.044590
   151  H    0.027577
   152  H    0.034194
   153  H    0.066454
   154  H    0.064443
   155  H    0.073854
   156  H    0.047817
   157  H    0.076046
   158  H    0.049679
 Sum of Mulliken charges =  -0.00000

 Dipole moment (field-independent basis, Debye):
    X=              4.7016    Y=              7.6028    Z=              2.3751  Tot=              9.2492
 Quadrupole moment (field-independent basis, Debye-Ang):
   XX=           -452.9614   YY=           -550.9823   ZZ=           -484.1096
   XY=             13.4150   XZ=             10.4186   YZ=            -21.4262

 Normal termination of Gaussian 16 at Sun Sep 19 12:00:29 2021.
