 Gaussian 16, Revision A.03,
 Gaussian 16:  ES64L-G16RevA.03 25-Dec-2016

 --------------------------------
 #p wB97XD/Def2SVP td=(nstates=5)
 --------------------------------

 --------------------------------
 TDDFT excited states in gaussian
 --------------------------------
 Symbolic Z-matrix:
 Charge =  0 Multiplicity = 1

                         Standard orientation:
 ---------------------------------------------------------------------
 Center     Atomic      Atomic             Coordinates (Angstroms)
 Number     Number       Type             X           Y           Z
 ---------------------------------------------------------------------
      1         12           0      -29.026284   -0.393436    0.604697
      2          6           0      -28.520318    2.330394   -1.685126
      3          6           0      -28.532244   -2.532742   -2.179218
      4          6           0      -29.619413   -3.181343    2.622638
      5          6           0      -29.861179    1.713396    3.059185
      6          7           0      -28.769268   -0.050682   -1.777918
      7          6           0      -28.481384    1.119391   -2.387308
      8          6           0      -28.293060    0.887394   -3.929675
      9          6           0      -28.527313   -0.663222   -4.015469
     10          6           0      -28.538223   -1.161297   -2.552001
     11          6           0      -29.827663   -1.026652   -4.813953
     12          6           0      -26.915995    1.307700   -4.442808
     13          6           0      -26.894140    2.067626   -5.728357
     14          1           0      -25.552276    2.605001   -6.246552
     15          7           0      -28.877295   -2.514982    0.357722
     16          6           0      -28.677248   -3.160960   -0.857731
     17          6           0      -28.643003   -4.588366   -0.608072
     18          6           0      -28.843857   -4.812239    0.743929
     19          6           0      -29.209626   -3.468493    1.306021
     20          6           0      -28.559804   -5.641570   -1.675287
     21          6           0      -28.928458   -6.156055    1.577244
     22          8           0      -29.110328   -6.277402    2.763967
     23          6           0      -28.589207   -7.458230    0.884789
     24          7           0      -29.775235   -0.725096    2.456491
     25          6           0      -29.950408   -1.904611    3.132100
     26          6           0      -30.685227   -1.703734    4.478035
     27          6           0      -30.535310   -0.142133    4.723591
     28          6           0      -29.986773    0.311183    3.317082
     29          6           0      -32.150858   -2.244274    4.460662
     30          6           0      -29.581101    0.240277    5.895715
     31          6           0      -28.101940   -0.066072    5.672011
     32          7           0      -29.209280    1.567796    0.735154
     33          6           0      -29.509994    2.367676    1.872720
     34          6           0      -29.485372    3.786446    1.523854
     35          6           0      -29.057343    3.802026    0.184208
     36          6           0      -28.887869    2.463384   -0.258329
     37          6           0      -29.775466    4.897897    2.421925
     38          6           0      -28.752474    4.729714   -0.900296
     39          8           0      -28.723677    5.948977   -0.893184
     40          6           0      -28.471077    3.813389   -2.209386
     41          6           0      -27.104226    4.367105   -2.619033
     42          8           0      -26.003937    4.199108   -2.062915
     43          8           0      -27.261027    5.148767   -3.673174
     44          6           0      -26.037600    5.597041   -4.454328
     45          1           0      -28.305142   -3.181245   -3.027578
     46          1           0      -29.831647   -3.990067    3.326291
     47          1           0      -30.072042    2.344643    3.924590
     48          1           0      -29.021192    1.554684   -4.389584
     49          1           0      -27.684895   -1.172396   -4.485549
     50          1           0      -29.697184   -1.707756   -5.654887
     51          1           0      -30.444175   -0.166153   -5.074551
     52          1           0      -30.555954   -1.645315   -4.289116
     53          1           0      -26.547945    0.362368   -4.841932
     54          1           0      -26.262599    1.689628   -3.657617
     55          1           0      -27.578213    2.904443   -5.878395
     56          1           0      -27.204643    1.318900   -6.457205
     57          1           0      -28.346183   -5.203547   -2.649938
     58          1           0      -29.452094   -6.259246   -1.788513
     59          1           0      -27.758798   -6.371285   -1.555807
     60          1           0      -27.572368   -7.467418    0.492442
     61          1           0      -29.373048   -7.510384    0.129094
     62          1           0      -28.846598   -8.209126    1.631809
     63          1           0      -30.155332   -2.369114    5.160547
     64          1           0      -31.445058    0.458351    4.704433
     65          1           0      -32.282605   -3.121974    5.093369
     66          1           0      -32.620273   -2.428428    3.494944
     67          1           0      -32.689326   -1.386844    4.864757
     68          1           0      -30.056176   -0.084901    6.821382
     69          1           0      -29.615146    1.324803    5.997964
     70          1           0      -27.862302   -0.622405    4.766558
     71          1           0      -27.804529   -0.689644    6.514737
     72          1           0      -27.457834    0.797871    5.512298
     73          1           0      -29.710399    5.886900    1.967889
     74          1           0      -29.048524    4.804045    3.228580
     75          1           0      -30.767498    4.728105    2.842829
     76          1           0      -29.124051    4.070808   -3.043309
     77          1           0      -26.413858    5.935521   -5.419961
     78          1           0      -25.354532    4.778516   -4.679303
     79          1           0      -25.445240    6.353477   -3.938222
     80         12           0       29.398987    0.507372   -0.213382
     81          6           0       26.820685   -1.674579   -1.183766
     82          6           0       27.029745    2.929294    0.372399
     83          6           0       31.756698    2.197527    1.377254
     84          6           0       31.709833   -2.161259   -0.608653
     85          7           0       27.191029    0.518945   -0.146391
     86          6           0       26.310086   -0.498599   -0.595445
     87          6           0       24.940328   -0.008347   -0.826615
     88          6           0       25.055650    1.520693   -0.407638
     89          6           0       26.527316    1.695698   -0.067557
     90          6           0       24.461342    2.474911   -1.471726
     91          6           0       23.895633   -0.633119    0.046997
     92          6           0       24.301205   -0.943744    1.495508
     93          1           0       23.274512   -0.800910    2.685755
     94          7           0       29.437712    2.356054    0.734401
     95          6           0       28.400577    3.215083    0.743289
     96          6           0       28.848037    4.463000    1.309368
     97          6           0       30.236954    4.315696    1.546557
     98          6           0       30.565344    2.924782    1.195034
     99          6           0       27.982586    5.657068    1.610140
    100          6           0       31.171650    5.404305    2.073131
    101          8           0       30.753408    6.513238    2.342956
    102          6           0       32.621316    5.265579    2.432791
    103          7           0       31.353478   -0.002751    0.538140
    104          6           0       32.173866    0.915420    1.137541
    105          6           0       33.652215    0.408304    1.199249
    106          6           0       33.494274   -1.098537    0.833024
    107          6           0       32.119761   -1.094612    0.200645
    108          6           0       34.636857    1.107727    0.231261
    109          6           0       33.367172   -2.112633    2.065851
    110          6           0       34.194976   -3.345163    2.008771
    111          7           0       29.368828   -1.413039   -0.847221
    112          6           0       30.376531   -2.253643   -1.117658
    113          6           0       29.901826   -3.352641   -2.040554
    114          6           0       28.496077   -3.093086   -2.110874
    115          6           0       28.204534   -1.994813   -1.253277
    116          6           0       30.668102   -4.488901   -2.702369
    117          6           0       27.264609   -3.654988   -2.585703
    118          8           0       27.049469   -4.671598   -3.226613
    119          6           0       26.122518   -2.720018   -2.016366
    120          6           0       25.327181   -3.547851   -1.028312
    121          8           0       25.683117   -3.957971    0.026723
    122          8           0       24.041161   -3.663369   -1.511563
    123          6           0       23.087880   -4.190516   -0.529882
    124          1           0       26.305236    3.746071    0.366268
    125          1           0       32.590348    2.802384    1.737888
    126          1           0       32.502860   -2.879193   -0.827992
    127          1           0       24.695518   -0.195556   -1.872134
    128          1           0       24.626057    1.785915    0.558335
    129          1           0       23.843200    3.112420   -0.839350
    130          1           0       23.896354    1.858108   -2.170707
    131          1           0       25.213705    3.101802   -1.950740
    132          1           0       23.370124   -1.466925   -0.419280
    133          1           0       23.009933   -0.018540    0.209517
    134          1           0       25.171224   -0.313000    1.681198
    135          1           0       24.674755   -1.964352    1.410480
    136          1           0       28.190503    6.050551    2.605701
    137          1           0       26.933727    5.400006    1.462603
    138          1           0       28.282281    6.393129    0.863768
    139          1           0       32.833559    4.617239    3.282304
    140          1           0       32.836091    6.264002    2.814039
    141          1           0       33.273250    5.177716    1.563018
    142          1           0       34.014531    0.569035    2.214547
    143          1           0       34.242745   -1.453018    0.123867
    144          1           0       34.946144    0.388386   -0.526807
    145          1           0       35.397694    1.674802    0.767345
    146          1           0       34.096411    1.885131   -0.307609
    147          1           0       32.327159   -2.386557    2.241660
    148          1           0       33.680592   -1.516290    2.922902
    149          1           0       34.842533   -3.464443    2.877168
    150          1           0       34.801313   -3.421252    1.105887
    151          1           0       33.580658   -4.245133    2.014923
    152          1           0       30.202526   -5.413050   -2.359854
    153          1           0       31.730283   -4.325172   -2.516396
    154          1           0       30.425019   -4.422479   -3.762763
    155          1           0       25.489527   -2.312945   -2.804538
    156          1           0       23.350752   -3.938775    0.497462
    157          1           0       23.139667   -5.268581   -0.682504
    158          1           0       22.102036   -3.898765   -0.890933
 ---------------------------------------------------------------------

 SCF Done:  E(RwB97XD) =  -4070.58699045     A.U. after   20 cycles

 Excitation energies and oscillator strengths:

 Excited State   1:      Singlet-A      1.5889 eV  780.33 nm  f=0.3601  <S**2>=0.000
     310 -> 315        0.18992
     312 -> 314        0.68304
     310 <- 315        0.12270
 This state for optimization and/or second-order correction.
 Total Energy, E(TD-HF/TD-DFT) =  -4070.52860036
 Copying the excited state density for this state as the 1-particle RhoCI density.

 Excited State   2:      Singlet-A      1.6067 eV  771.67 nm  f=0.3803  <S**2>=0.000
     309 -> 316        0.17852
     311 -> 313        0.68542
     309 <- 316        0.11726

 Excited State   3:      Singlet-A      2.1589 eV  574.30 nm  f=0.0893  <S**2>=0.000
     310 -> 314        0.62443
     312 -> 315       -0.32205

 Excited State   4:      Singlet-A      2.2111 eV  560.73 nm  f=0.0984  <S**2>=0.000
     309 -> 313        0.62753
     311 -> 316       -0.31206

 Excited State   5:      Singlet-A      3.4113 eV  363.45 nm  f=0.0006  <S**2>=0.000
     300 -> 313       -0.11534
     307 -> 313       -0.18036
     308 -> 313        0.64763

 The electronic state is 1-A.
 Alpha  occ. eigenvalues --  -46.94934 -46.94618 -19.30136 -19.29838 -19.25330
 Alpha  occ. eigenvalues --  -19.24534 -19.24396 -19.24178 -19.23247 -19.22962
 Alpha  occ. eigenvalues --  -14.47064 -14.46991 -14.46482 -14.46129 -14.44722
 Alpha  occ. eigenvalues --  -14.44294 -14.44174 -14.44106 -10.43077 -10.42316
 Alpha  occ. eigenvalues --  -10.39569 -10.39412 -10.39003 -10.38559 -10.35976
 Alpha  occ. eigenvalues --  -10.35460 -10.35376 -10.35261 -10.35240 -10.35198
 Alpha  occ. eigenvalues --  -10.35129 -10.35123 -10.34968 -10.34832 -10.34690
 Alpha  occ. eigenvalues --  -10.34650 -10.34596 -10.34504 -10.34025 -10.33991
 Alpha  occ. eigenvalues --  -10.33934 -10.33320 -10.32927 -10.32888 -10.32860
 Alpha  occ. eigenvalues --  -10.32722 -10.32654 -10.32557 -10.32549 -10.32498
 Alpha  occ. eigenvalues --  -10.32471 -10.32460 -10.32452 -10.32406 -10.32390
 Alpha  occ. eigenvalues --  -10.32288 -10.32225 -10.32174 -10.32101 -10.31877
 Alpha  occ. eigenvalues --  -10.31873 -10.31646 -10.31517 -10.31333 -10.31064
 Alpha  occ. eigenvalues --  -10.30852 -10.30845 -10.30761 -10.30672 -10.30536
 Alpha  occ. eigenvalues --  -10.30489 -10.30417 -10.30361 -10.30298 -10.30085
 Alpha  occ. eigenvalues --  -10.30016 -10.29953 -10.29916 -10.29872 -10.29594
 Alpha  occ. eigenvalues --  -10.29454 -10.29429 -10.29360 -10.29205 -10.29178
 Alpha  occ. eigenvalues --  -10.29152  -3.21004  -3.20747  -1.94557  -1.94325
 Alpha  occ. eigenvalues --   -1.94134  -1.93994  -1.93887  -1.93720  -1.19403
 Alpha  occ. eigenvalues --   -1.18122  -1.13677  -1.12605  -1.12264  -1.12188
 Alpha  occ. eigenvalues --   -1.11154  -1.07467  -1.06587  -1.06029  -1.05774
 Alpha  occ. eigenvalues --   -1.05325  -1.05115  -1.04646  -1.04256  -1.03737
 Alpha  occ. eigenvalues --   -0.95154  -0.92814  -0.91739  -0.91307  -0.91092
 Alpha  occ. eigenvalues --   -0.90599  -0.90293  -0.89925  -0.89445  -0.89293
 Alpha  occ. eigenvalues --   -0.88889  -0.88391  -0.88279  -0.87751  -0.86642
 Alpha  occ. eigenvalues --   -0.86047  -0.86033  -0.85458  -0.84626  -0.84262
 Alpha  occ. eigenvalues --   -0.83596  -0.83433  -0.82966  -0.82813  -0.82462
 Alpha  occ. eigenvalues --   -0.82124  -0.80098  -0.79879  -0.79436  -0.79207
 Alpha  occ. eigenvalues --   -0.78875  -0.78774  -0.77975  -0.77891  -0.77089
 Alpha  occ. eigenvalues --   -0.77060  -0.74687  -0.74575  -0.73649  -0.73618
 Alpha  occ. eigenvalues --   -0.71963  -0.71552  -0.70806  -0.70725  -0.70567
 Alpha  occ. eigenvalues --   -0.69492  -0.69085  -0.68250  -0.67785  -0.67419
 Alpha  occ. eigenvalues --   -0.67069  -0.67060  -0.66591  -0.66517  -0.66363
 Alpha  occ. eigenvalues --   -0.66067  -0.64093  -0.63769  -0.61971  -0.61595
 Alpha  occ. eigenvalues --   -0.61421  -0.61286  -0.61002  -0.60919  -0.60911
 Alpha  occ. eigenvalues --   -0.60101  -0.59703  -0.59392  -0.59361  -0.58531
 Alpha  occ. eigenvalues --   -0.58183  -0.58012  -0.57636  -0.57407  -0.57357
 Alpha  occ. eigenvalues --   -0.57049  -0.57035  -0.56576  -0.56556  -0.56019
 Alpha  occ. eigenvalues --   -0.55889  -0.55271  -0.55146  -0.54987  -0.54828
 Alpha  occ. eigenvalues --   -0.54799  -0.54643  -0.54324  -0.54294  -0.54205
 Alpha  occ. eigenvalues --   -0.54050  -0.54013  -0.53526  -0.53454  -0.53336
 Alpha  occ. eigenvalues --   -0.53071  -0.52894  -0.52867  -0.52833  -0.52094
 Alpha  occ. eigenvalues --   -0.52054  -0.51740  -0.51552  -0.51547  -0.51333
 Alpha  occ. eigenvalues --   -0.51210  -0.51208  -0.51157  -0.50903  -0.50841
 Alpha  occ. eigenvalues --   -0.50683  -0.50558  -0.50545  -0.50358  -0.50279
 Alpha  occ. eigenvalues --   -0.50068  -0.49458  -0.49438  -0.49356  -0.49125
 Alpha  occ. eigenvalues --   -0.49038  -0.48819  -0.48732  -0.48668  -0.48574
 Alpha  occ. eigenvalues --   -0.48305  -0.48284  -0.48115  -0.47942  -0.47818
 Alpha  occ. eigenvalues --   -0.47742  -0.47422  -0.47419  -0.47204  -0.47163
 Alpha  occ. eigenvalues --   -0.46826  -0.46596  -0.46330  -0.46291  -0.46061
 Alpha  occ. eigenvalues --   -0.46018  -0.45885  -0.45831  -0.45589  -0.45530
 Alpha  occ. eigenvalues --   -0.45459  -0.45145  -0.45061  -0.44949  -0.44897
 Alpha  occ. eigenvalues --   -0.44692  -0.44516  -0.44502  -0.44375  -0.44107
 Alpha  occ. eigenvalues --   -0.44075  -0.44055  -0.43784  -0.43775  -0.43294
 Alpha  occ. eigenvalues --   -0.43052  -0.42822  -0.42668  -0.42291  -0.42262
 Alpha  occ. eigenvalues --   -0.42101  -0.41758  -0.41460  -0.41078  -0.41027
 Alpha  occ. eigenvalues --   -0.40525  -0.40404  -0.39970  -0.39804  -0.39536
 Alpha  occ. eigenvalues --   -0.39309  -0.39070  -0.38707  -0.38469  -0.38029
 Alpha  occ. eigenvalues --   -0.37705  -0.37644  -0.37042  -0.36210  -0.35894
 Alpha  occ. eigenvalues --   -0.35332  -0.35292  -0.34707  -0.33595  -0.33572
 Alpha  occ. eigenvalues --   -0.33114  -0.32982  -0.32799  -0.32503  -0.32460
 Alpha  occ. eigenvalues --   -0.32144  -0.32066  -0.31819  -0.26221  -0.26017
 Alpha  occ. eigenvalues --   -0.22845  -0.22750
 Alpha virt. eigenvalues --   -0.07114  -0.07057  -0.00119   0.00134   0.02304
 Alpha virt. eigenvalues --    0.02713   0.04489   0.04499   0.04659   0.06516
 Alpha virt. eigenvalues --    0.07584   0.07601   0.07780   0.07980   0.08162

 Mulliken charges:
               1
     1  Mg   0.988102
     2  C    0.030618
     3  C   -0.071603
     4  C   -0.057331
     5  C   -0.104954
     6  N   -0.311495
     7  C   -0.008601
     8  C   -0.088427
     9  C   -0.082995
    10  C    0.047749
    11  C    0.016138
    12  C    0.051583
    13  C   -0.150340
    14  H    0.031592
    15  N   -0.450245
    16  C    0.180524
    17  C   -0.160694
    18  C   -0.081924
    19  C    0.134140
    20  C    0.054892
    21  C    0.056891
    22  O   -0.215993
    23  C   -0.009112
    24  N   -0.398570
    25  C    0.036551
    26  C   -0.083112
    27  C   -0.076486
    28  C    0.060653
    29  C    0.027326
    30  C   -0.006075
    31  C   -0.051433
    32  N   -0.527433
    33  C    0.158653
    34  C   -0.163681
    35  C   -0.041780
    36  C    0.162197
    37  C    0.081435
    38  C    0.128602
    39  O   -0.198781
    40  C   -0.130083
    41  C    0.252127
    42  O   -0.286940
    43  O   -0.341671
    44  C    0.147895
    45  H   -0.001434
    46  H    0.022981
    47  H   -0.006061
    48  H    0.039130
    49  H    0.035204
    50  H    0.033071
    51  H    0.038309
    52  H    0.025659
    53  H    0.023395
    54  H    0.069059
    55  H    0.048320
    56  H    0.037562
    57  H    0.022387
    58  H    0.055860
    59  H    0.037931
    60  H    0.076464
    61  H    0.034942
    62  H    0.053177
    63  H    0.040841
    64  H    0.042986
    65  H    0.048286
    66  H    0.047196
    67  H    0.024261
    68  H    0.039504
    69  H    0.022302
    70  H    0.040661
    71  H    0.045463
    72  H    0.042419
    73  H    0.065306
    74  H    0.051808
    75  H    0.044436
    76  H    0.067545
    77  H    0.057667
    78  H    0.052440
    79  H    0.073017
    80  Mg   0.971369
    81  C   -0.073468
    82  C   -0.088724
    83  C   -0.070170
    84  C   -0.087719
    85  N   -0.366531
    86  C    0.021385
    87  C   -0.041280
    88  C   -0.131908
    89  C    0.060029
    90  C    0.036720
    91  C   -0.026327
    92  C   -0.106156
    93  H    0.042100
    94  N   -0.438649
    95  C    0.155135
    96  C   -0.199137
    97  C   -0.050465
    98  C    0.165440
    99  C    0.110850
   100  C    0.017525
   101  O   -0.237356
   102  C   -0.009437
   103  N   -0.357080
   104  C    0.045740
   105  C   -0.079995
   106  C   -0.111644
   107  C    0.037624
   108  C    0.042913
   109  C    0.014742
   110  C   -0.045850
   111  N   -0.434561
   112  C    0.147992
   113  C   -0.205216
   114  C   -0.044328
   115  C    0.162878
   116  C    0.102115
   117  C    0.124275
   118  O   -0.206591
   119  C   -0.072915
   120  C    0.258081
   121  O   -0.210170
   122  O   -0.374993
   123  C    0.128945
   124  H   -0.001777
   125  H   -0.030313
   126  H    0.001556
   127  H    0.040535
   128  H    0.052547
   129  H    0.037925
   130  H    0.045549
   131  H    0.046142
   132  H    0.018162
   133  H    0.023482
   134  H    0.051751
   135  H    0.057151
   136  H    0.065730
   137  H    0.021447
   138  H    0.056269
   139  H    0.066086
   140  H    0.044683
   141  H    0.054437
   142  H    0.033929
   143  H    0.029524
   144  H    0.040558
   145  H    0.046100
   146  H    0.027739
   147  H    0.057238
   148  H    0.024512
   149  H    0.038663
   150  H    0.024899
   151  H    0.035845
   152  H    0.069385
   153  H    0.037699
   154  H    0.057399
   155  H    0.064942
   156  H    0.073149
   157  H    0.055929
   158  H    0.055938
 Sum of Mulliken charges =  -0.00000

 Dipole moment (field-independent basis, Debye):
    X=             -0.1638    Y=             -2.2565    Z=             -2.6928  Tot=              3.5170
 Quadrupole moment (field-independent basis, Debye-Ang):
   XX=           -260.9346   YY=           -567.9007   ZZ=           -483.1837
   XY=            103.2630   XZ=             22.6038   YZ=             -2.8479

 Normal termination of Gaussian 16 at Sun Sep 19 07:43:32 2021.
