 Gaussian 16, Revision A.03,
 Gaussian 16:  ES64L-G16RevA.03 25-Dec-2016

 --------------------------------
 #p wB97XD/Def2SVP td=(nstates=5)
 --------------------------------

 --------------------------------
 TDDFT excited states in gaussian
 --------------------------------
 Symbolic Z-matrix:
 Charge =  0 Multiplicity = 1

                         Standard orientation:
 ---------------------------------------------------------------------
 Center     Atomic      Atomic             Coordinates (Angstroms)
 Number     Number       Type             X           Y           Z
 ---------------------------------------------------------------------
      1         12           0      -24.553341   -0.657263   -0.060222
      2          6           0      -23.730755    2.382960   -1.432886
      3          6           0      -24.903985    0.976064    3.081261
      4          6           0      -24.849010   -3.621562    1.538271
      5          6           0      -23.897234   -2.237508   -2.945182
      6          7           0      -24.333382    1.452097    0.726140
      7          6           0      -23.969939    2.511542   -0.061164
      8          6           0      -24.015932    3.823077    0.726047
      9          6           0      -24.204559    3.270018    2.213631
     10          6           0      -24.496819    1.812215    2.009778
     11          6           0      -23.001770    3.586791    3.176259
     12          6           0      -25.202603    4.795457    0.283254
     13          6           0      -25.013262    6.282723    0.105540
     14          1           0      -24.289771    7.035651    1.164890
     15          7           0      -24.892894   -1.278303    2.031426
     16          6           0      -25.178372   -0.482783    3.085629
     17          6           0      -25.593498   -1.244230    4.215815
     18          6           0      -25.620344   -2.608402    3.785751
     19          6           0      -25.035582   -2.535179    2.413516
     20          6           0      -25.849318   -0.531601    5.504510
     21          6           0      -25.921726   -3.856282    4.598091
     22          8           0      -25.642861   -4.990326    4.196522
     23          6           0      -26.570557   -3.740308    5.966228
     24          7           0      -24.244215   -2.696638   -0.590671
     25          6           0      -24.560118   -3.738319    0.223041
     26          6           0      -24.524316   -5.056407   -0.548574
     27          6           0      -24.388653   -4.564113   -2.039553
     28          6           0      -24.170239   -3.074507   -1.861993
     29          6           0      -23.544211   -6.199260   -0.150484
     30          6           0      -25.563857   -4.954645   -3.029902
     31          6           0      -26.726971   -4.010667   -3.249940
     32          7           0      -23.851827   -0.110002   -1.795426
     33          6           0      -23.746515   -0.798252   -2.977415
     34          6           0      -23.264241   -0.006365   -4.049588
     35          6           0      -23.286616    1.275201   -3.508333
     36          6           0      -23.671406    1.160013   -2.147724
     37          6           0      -22.909804   -0.316281   -5.498128
     38          6           0      -23.039188    2.629795   -3.744948
     39          8           0      -22.616937    3.151596   -4.760417
     40          6           0      -23.290437    3.484986   -2.379570
     41          6           0      -22.035477    4.134958   -2.022554
     42          8           0      -20.983120    3.557988   -1.683976
     43          8           0      -22.075753    5.488877   -2.137153
     44          6           0      -20.815074    6.239305   -2.119814
     45          1           0      -25.065464    1.595633    3.965439
     46          1           0      -25.215966   -4.561773    1.954669
     47          1           0      -24.033892   -2.642040   -3.949507
     48          1           0      -23.097423    4.376053    0.525323
     49          1           0      -25.047118    3.749626    2.712086
     50          1           0      -23.390242    4.174841    4.007048
     51          1           0      -22.261704    4.070366    2.538406
     52          1           0      -22.579250    2.724992    3.693755
     53          1           0      -25.922237    4.624642    1.084103
     54          1           0      -25.757373    4.377025   -0.555871
     55          1           0      -25.966570    6.753279   -0.134937
     56          1           0      -24.343956    6.387529   -0.747596
     57          1           0      -26.783481   -0.953386    5.873572
     58          1           0      -26.038767    0.527845    5.330151
     59          1           0      -25.072673   -0.615477    6.265465
     60          1           0      -27.380779   -3.012082    6.013129
     61          1           0      -25.797921   -3.673465    6.733397
     62          1           0      -27.053731   -4.706913    6.111951
     63          1           0      -25.487588   -5.506016   -0.306664
     64          1           0      -23.571218   -5.049754   -2.571195
     65          1           0      -22.760409   -6.302711   -0.900714
     66          1           0      -24.136615   -7.113873   -0.131421
     67          1           0      -23.156316   -5.925480    0.830065
     68          1           0      -25.971516   -5.896668   -2.665676
     69          1           0      -25.160464   -5.132861   -4.026960
     70          1           0      -27.686159   -4.506938   -3.100507
     71          1           0      -26.734702   -3.550164   -4.238750
     72          1           0      -26.590777   -3.225773   -2.505947
     73          1           0      -23.114053   -1.369048   -5.696960
     74          1           0      -21.859540   -0.077854   -5.667938
     75          1           0      -23.522642    0.311015   -6.144842
     76          1           0      -23.989274    4.234824   -2.751473
     77          1           0      -20.870665    7.212673   -2.607416
     78          1           0      -19.933030    5.684388   -2.438035
     79          1           0      -20.688692    6.545422   -1.081228
     80         12           0       24.662511   -0.669307    0.137688
     81          6           0       22.381150    1.909979    0.862705
     82          6           0       27.041264    1.791211   -0.477112
     83          6           0       26.677308   -3.117240   -0.850129
     84          6           0       21.914112   -2.972773   -0.037907
     85          7           0       24.698557    1.559350    0.162779
     86          6           0       23.657233    2.379664    0.619072
     87          6           0       24.219709    3.741440    0.982343
     88          6           0       25.617995    3.793669    0.303537
     89          6           0       25.804986    2.281161   -0.022338
     90          6           0       25.772486    4.784886   -0.892439
     91          6           0       24.236833    4.053804    2.518875
     92          6           0       24.058154    5.595796    2.872510
     93          1           0       23.947851    6.587421    1.711252
     94          7           0       26.566034   -0.666919   -0.423024
     95          6           0       27.403853    0.428369   -0.543664
     96          6           0       28.743456    0.012751   -0.844415
     97          6           0       28.650600   -1.395262   -1.086214
     98          6           0       27.288010   -1.769383   -0.751861
     99          6           0       29.933853    1.002020   -1.032835
    100          6           0       29.706284   -2.332519   -1.574509
    101          8           0       29.436986   -3.516094   -1.890115
    102          6           0       31.211475   -2.054614   -1.860352
    103          7           0       24.322670   -2.685276   -0.638449
    104          6           0       25.348753   -3.523602   -0.877712
    105          6           0       24.845583   -4.986674   -0.960805
    106          6           0       23.331065   -4.949058   -0.727171
    107          6           0       23.179704   -3.400133   -0.390989
    108          6           0       25.349348   -5.681780   -2.188815
    109          6           0       22.763968   -5.878150    0.367602
    110          6           0       23.333913   -5.650864    1.789461
    111          7           0       22.531277   -0.605202    0.296637
    112          6           0       21.632633   -1.615361    0.358292
    113          6           0       20.382204   -1.034543    0.844891
    114          6           0       20.582891    0.351162    1.098847
    115          6           0       21.919620    0.591533    0.697866
    116          6           0       19.108181   -1.809353    1.171132
    117          6           0       19.974812    1.561459    1.551460
    118          8           0       18.891234    1.831963    2.062394
    119          6           0       21.165744    2.706693    1.347625
    120          6           0       20.624177    3.843369    0.501272
    121          8           0       20.541627    3.799257   -0.710524
    122          8           0       20.344341    4.943627    1.279472
    123          6           0       19.474467    5.985217    0.742853
    124          1           0       27.735263    2.633078   -0.518457
    125          1           0       27.408583   -3.893063   -1.085126
    126          1           0       21.157355   -3.757641    0.018318
    127          1           0       23.592904    4.517999    0.544211
    128          1           0       26.334415    4.070337    1.076497
    129          1           0       26.115018    4.130301   -1.693166
    130          1           0       26.585633    5.487719   -0.707054
    131          1           0       24.904264    5.335340   -1.254707
    132          1           0       25.200943    3.809819    2.963963
    133          1           0       23.483735    3.436076    3.006427
    134          1           0       24.974823    5.922924    3.363476
    135          1           0       23.186238    5.678603    3.520903
    136          1           0       30.547090    0.624235   -1.851866
    137          1           0       30.577078    1.055648   -0.155139
    138          1           0       29.765739    2.060198   -1.232516
    139          1           0       31.700470   -1.641837   -0.977516
    140          1           0       31.360180   -1.416178   -2.731165
    141          1           0       31.834128   -2.947887   -1.893018
    142          1           0       25.402541   -5.526706   -0.196203
    143          1           0       22.896779   -5.034338   -1.723900
    144          1           0       26.183579   -6.352780   -1.983223
    145          1           0       25.610559   -4.946927   -2.950471
    146          1           0       24.598654   -6.284942   -2.700670
    147          1           0       23.073827   -6.868906    0.034573
    148          1           0       21.675288   -5.819084    0.383917
    149          1           0       22.471015   -5.395947    2.404373
    150          1           0       24.041817   -4.825306    1.715273
    151          1           0       23.923505   -6.482439    2.175734
    152          1           0       18.648114   -1.485731    2.104353
    153          1           0       19.319842   -2.859509    1.370256
    154          1           0       18.453202   -1.763643    0.300634
    155          1           0       21.330576    3.099106    2.351416
    156          1           0       19.749204    6.107447   -0.305180
    157          1           0       19.575379    6.958543    1.223139
    158          1           0       18.458047    5.636675    0.926077
 ---------------------------------------------------------------------

 SCF Done:  E(RwB97XD) =  -4070.63891819     A.U. after   20 cycles

 Excitation energies and oscillator strengths:

 Excited State   1:      Singlet-A      1.6019 eV  773.99 nm  f=0.4034  <S**2>=0.000
     309 -> 315        0.17292
     312 -> 313        0.68565
     309 <- 315        0.11420
 This state for optimization and/or second-order correction.
 Total Energy, E(TD-HF/TD-DFT) =  -4070.58004969
 Copying the excited state density for this state as the 1-particle RhoCI density.

 Excited State   2:      Singlet-A      1.6605 eV  746.67 nm  f=0.4144  <S**2>=0.000
     310 -> 316       -0.18409
     311 -> 314        0.68432
     310 <- 316       -0.11635

 Excited State   3:      Singlet-A      2.1344 eV  580.90 nm  f=0.1538  <S**2>=0.000
     310 -> 314        0.65936
     311 -> 316        0.24130

 Excited State   4:      Singlet-A      2.1364 eV  580.33 nm  f=0.1664  <S**2>=0.000
     309 -> 313        0.65392
     312 -> 315       -0.24804

 Excited State   5:      Singlet-A      3.2950 eV  376.28 nm  f=0.0030  <S**2>=0.000
     307 -> 313        0.52476
     307 -> 315       -0.13543
     307 -> 317       -0.34598
     307 -> 319       -0.20414

 The electronic state is 1-A.
 Alpha  occ. eigenvalues --  -46.95422 -46.95236 -19.30257 -19.29464 -19.24383
 Alpha  occ. eigenvalues --  -19.24164 -19.23910 -19.23630 -19.23456 -19.23406
 Alpha  occ. eigenvalues --  -14.47164 -14.46694 -14.46100 -14.45965 -14.44884
 Alpha  occ. eigenvalues --  -14.44145 -14.44066 -14.43936 -10.42938 -10.42756
 Alpha  occ. eigenvalues --  -10.39588 -10.39473 -10.39340 -10.38515 -10.35625
 Alpha  occ. eigenvalues --  -10.35337 -10.35106 -10.35063 -10.34941 -10.34879
 Alpha  occ. eigenvalues --  -10.34781 -10.34749 -10.34532 -10.34385 -10.34324
 Alpha  occ. eigenvalues --  -10.34129 -10.34108 -10.34100 -10.33869 -10.33816
 Alpha  occ. eigenvalues --  -10.33715 -10.33231 -10.33000 -10.32974 -10.32512
 Alpha  occ. eigenvalues --  -10.32507 -10.32507 -10.32307 -10.32297 -10.32287
 Alpha  occ. eigenvalues --  -10.32183 -10.32096 -10.32089 -10.32071 -10.32028
 Alpha  occ. eigenvalues --  -10.32020 -10.31804 -10.31762 -10.31608 -10.31581
 Alpha  occ. eigenvalues --  -10.31553 -10.31528 -10.31455 -10.31405 -10.31337
 Alpha  occ. eigenvalues --  -10.30876 -10.30842 -10.30792 -10.30630 -10.30629
 Alpha  occ. eigenvalues --  -10.30561 -10.30269 -10.30191 -10.30134 -10.30109
 Alpha  occ. eigenvalues --  -10.30102 -10.30044 -10.29907 -10.29547 -10.29416
 Alpha  occ. eigenvalues --  -10.29401 -10.29298 -10.29222 -10.28821 -10.28725
 Alpha  occ. eigenvalues --  -10.28620  -3.21475  -3.21249  -1.95048  -1.94808
 Alpha  occ. eigenvalues --   -1.94560  -1.94490  -1.94371  -1.94228  -1.18005
 Alpha  occ. eigenvalues --   -1.17592  -1.12104  -1.11675  -1.11659  -1.10622
 Alpha  occ. eigenvalues --   -1.09622  -1.08001  -1.07380  -1.06677  -1.06339
 Alpha  occ. eigenvalues --   -1.06143  -1.05488  -1.05462  -1.05214  -1.04109
 Alpha  occ. eigenvalues --   -0.94567  -0.94129  -0.91024  -0.90931  -0.90394
 Alpha  occ. eigenvalues --   -0.90093  -0.90089  -0.90040  -0.89705  -0.89350
 Alpha  occ. eigenvalues --   -0.89261  -0.88764  -0.88351  -0.87229  -0.86197
 Alpha  occ. eigenvalues --   -0.85684  -0.85638  -0.85206  -0.84547  -0.84069
 Alpha  occ. eigenvalues --   -0.83755  -0.83091  -0.82975  -0.82556  -0.82260
 Alpha  occ. eigenvalues --   -0.81947  -0.80653  -0.80336  -0.79385  -0.79013
 Alpha  occ. eigenvalues --   -0.78834  -0.78658  -0.78142  -0.77744  -0.77411
 Alpha  occ. eigenvalues --   -0.76918  -0.75514  -0.74490  -0.73504  -0.73022
 Alpha  occ. eigenvalues --   -0.71806  -0.71528  -0.71193  -0.71100  -0.70306
 Alpha  occ. eigenvalues --   -0.70074  -0.69503  -0.69105  -0.67537  -0.67190
 Alpha  occ. eigenvalues --   -0.67088  -0.66838  -0.66707  -0.66185  -0.66125
 Alpha  occ. eigenvalues --   -0.66040  -0.64214  -0.63611  -0.62917  -0.62184
 Alpha  occ. eigenvalues --   -0.61785  -0.61431  -0.61043  -0.60776  -0.60252
 Alpha  occ. eigenvalues --   -0.60027  -0.59859  -0.59373  -0.59258  -0.58898
 Alpha  occ. eigenvalues --   -0.58218  -0.57877  -0.57653  -0.57309  -0.56979
 Alpha  occ. eigenvalues --   -0.56765  -0.56756  -0.56718  -0.55968  -0.55832
 Alpha  occ. eigenvalues --   -0.55379  -0.55207  -0.55071  -0.54970  -0.54725
 Alpha  occ. eigenvalues --   -0.54662  -0.54471  -0.54464  -0.54257  -0.54150
 Alpha  occ. eigenvalues --   -0.53996  -0.53896  -0.53378  -0.53253  -0.52936
 Alpha  occ. eigenvalues --   -0.52664  -0.52587  -0.52506  -0.52172  -0.51976
 Alpha  occ. eigenvalues --   -0.51779  -0.51474  -0.51442  -0.51142  -0.51140
 Alpha  occ. eigenvalues --   -0.51094  -0.50988  -0.50913  -0.50709  -0.50651
 Alpha  occ. eigenvalues --   -0.50649  -0.50534  -0.50481  -0.50148  -0.50116
 Alpha  occ. eigenvalues --   -0.49807  -0.49755  -0.49652  -0.49481  -0.49333
 Alpha  occ. eigenvalues --   -0.49074  -0.48777  -0.48591  -0.48404  -0.48296
 Alpha  occ. eigenvalues --   -0.48237  -0.48073  -0.47865  -0.47781  -0.47762
 Alpha  occ. eigenvalues --   -0.47367  -0.47212  -0.47121  -0.46934  -0.46652
 Alpha  occ. eigenvalues --   -0.46434  -0.46393  -0.46127  -0.45966  -0.45880
 Alpha  occ. eigenvalues --   -0.45838  -0.45809  -0.45534  -0.45366  -0.45270
 Alpha  occ. eigenvalues --   -0.45147  -0.45094  -0.44946  -0.44905  -0.44501
 Alpha  occ. eigenvalues --   -0.44279  -0.44164  -0.43887  -0.43846  -0.43771
 Alpha  occ. eigenvalues --   -0.43770  -0.43549  -0.43487  -0.43433  -0.43208
 Alpha  occ. eigenvalues --   -0.43011  -0.42627  -0.42504  -0.42473  -0.41968
 Alpha  occ. eigenvalues --   -0.41903  -0.41735  -0.41494  -0.41434  -0.41133
 Alpha  occ. eigenvalues --   -0.40545  -0.40389  -0.40127  -0.39733  -0.39569
 Alpha  occ. eigenvalues --   -0.39254  -0.38880  -0.38638  -0.38245  -0.38022
 Alpha  occ. eigenvalues --   -0.37953  -0.37653  -0.36526  -0.36012  -0.35682
 Alpha  occ. eigenvalues --   -0.35397  -0.35231  -0.35058  -0.33660  -0.33515
 Alpha  occ. eigenvalues --   -0.33227  -0.33009  -0.32946  -0.32745  -0.32428
 Alpha  occ. eigenvalues --   -0.32234  -0.32227  -0.31625  -0.26017  -0.25725
 Alpha  occ. eigenvalues --   -0.23252  -0.23169
 Alpha virt. eigenvalues --   -0.07586  -0.07439   0.00539   0.00749   0.02026
 Alpha virt. eigenvalues --    0.02334   0.04101   0.04580   0.04695   0.04962
 Alpha virt. eigenvalues --    0.06897   0.07393   0.07789   0.08577   0.08621

 Mulliken charges:
               1
     1  Mg   0.974497
     2  C   -0.004189
     3  C   -0.064949
     4  C   -0.065495
     5  C   -0.074797
     6  N   -0.330549
     7  C    0.000532
     8  C   -0.084439
     9  C   -0.117791
    10  C    0.051363
    11  C    0.025244
    12  C    0.011007
    13  C   -0.102392
    14  H    0.032754
    15  N   -0.356563
    16  C    0.129186
    17  C   -0.163858
    18  C   -0.075491
    19  C    0.100064
    20  C    0.082199
    21  C    0.043312
    22  O   -0.246920
    23  C   -0.017093
    24  N   -0.351485
    25  C    0.050113
    26  C   -0.080574
    27  C   -0.041435
    28  C    0.061420
    29  C    0.035329
    30  C   -0.057991
    31  C   -0.043035
    32  N   -0.478358
    33  C    0.099387
    34  C   -0.189089
    35  C    0.040942
    36  C    0.137947
    37  C    0.096945
    38  C    0.037744
    39  O   -0.207887
    40  C   -0.056097
    41  C    0.260254
    42  O   -0.281267
    43  O   -0.359740
    44  C    0.146658
    45  H   -0.010866
    46  H    0.017276
    47  H   -0.000408
    48  H    0.049037
    49  H    0.042607
    50  H    0.031648
    51  H    0.050454
    52  H    0.040592
    53  H    0.012352
    54  H    0.032252
    55  H    0.055985
    56  H    0.054349
    57  H    0.030605
    58  H    0.036827
    59  H    0.063566
    60  H    0.053804
    61  H    0.071511
    62  H    0.050405
    63  H    0.036327
    64  H    0.036897
    65  H    0.036533
    66  H    0.040328
    67  H    0.051435
    68  H    0.029673
    69  H    0.029346
    70  H    0.038424
    71  H    0.037282
    72  H    0.035906
    73  H    0.026402
    74  H    0.066860
    75  H    0.060951
    76  H    0.060673
    77  H    0.053409
    78  H    0.075512
    79  H    0.036635
    80  Mg   0.971871
    81  C    0.006904
    82  C   -0.061551
    83  C   -0.063055
    84  C   -0.062946
    85  N   -0.337705
    86  C   -0.003117
    87  C   -0.035335
    88  C   -0.097965
    89  C    0.010260
    90  C    0.027410
    91  C   -0.006700
    92  C   -0.129106
    93  H    0.034094
    94  N   -0.495066
    95  C    0.189668
    96  C   -0.136858
    97  C   -0.054420
    98  C    0.137904
    99  C    0.058885
   100  C    0.036166
   101  O   -0.271634
   102  C   -0.006914
   103  N   -0.340699
   104  C    0.077562
   105  C   -0.129628
   106  C   -0.020091
   107  C    0.012672
   108  C    0.021354
   109  C   -0.019644
   110  C   -0.045867
   111  N   -0.428864
   112  C    0.150771
   113  C   -0.205193
   114  C    0.004394
   115  C    0.122760
   116  C    0.072272
   117  C    0.116777
   118  O   -0.207590
   119  C   -0.128504
   120  C    0.274762
   121  O   -0.237532
   122  O   -0.379794
   123  C    0.133602
   124  H   -0.003013
   125  H    0.023055
   126  H   -0.004381
   127  H    0.030758
   128  H    0.033133
   129  H    0.030653
   130  H    0.034866
   131  H    0.058477
   132  H    0.029789
   133  H    0.037223
   134  H    0.054499
   135  H    0.069158
   136  H    0.037178
   137  H    0.051137
   138  H    0.045663
   139  H    0.030939
   140  H    0.073488
   141  H    0.048581
   142  H    0.037197
   143  H    0.038780
   144  H    0.043472
   145  H    0.041861
   146  H    0.022302
   147  H    0.033285
   148  H    0.039453
   149  H    0.046931
   150  H    0.038532
   151  H    0.043002
   152  H    0.057635
   153  H    0.018519
   154  H    0.059435
   155  H    0.065537
   156  H    0.060240
   157  H    0.053702
   158  H    0.064600
 Sum of Mulliken charges =  -0.00000

 Dipole moment (field-independent basis, Debye):
    X=              0.6880    Y=              2.0183    Z=              4.6913  Tot=              5.1532
 Quadrupole moment (field-independent basis, Debye-Ang):
   XX=           -114.1106   YY=           -470.9666   ZZ=           -507.9366
   XY=             31.8070   XZ=              9.6053   YZ=             27.0080

 Normal termination of Gaussian 16 at Mon Sep 20 20:03:23 2021.
