 Gaussian 16, Revision A.03,
 Gaussian 16:  ES64L-G16RevA.03 25-Dec-2016

 --------------------------------
 #p wB97XD/Def2SVP td=(nstates=5)
 --------------------------------

 --------------------------------
 TDDFT excited states in gaussian
 --------------------------------
 Symbolic Z-matrix:
 Charge =  0 Multiplicity = 1

                         Standard orientation:
 ---------------------------------------------------------------------
 Center     Atomic      Atomic             Coordinates (Angstroms)
 Number     Number       Type             X           Y           Z
 ---------------------------------------------------------------------
      1         12           0       30.772653   -0.156901    0.349679
      2          6           0       27.443400    0.483373    0.077781
      3          6           0       30.111379   -3.526749   -0.496092
      4          6           0       34.003222   -0.497601   -0.425909
      5          6           0       31.404611    3.384752    0.665818
      6          7           0       28.991959   -1.318848   -0.109209
      7          6           0       27.763029   -0.928431   -0.186833
      8          6           0       26.739067   -2.114764   -0.282997
      9          6           0       27.623912   -3.414196   -0.170316
     10          6           0       29.045781   -2.756526   -0.225276
     11          6           0       27.278146   -4.375926    0.967382
     12          6           0       25.793448   -2.010880   -1.621624
     13          6           0       26.297868   -1.209790   -2.810984
     14          1           0       25.705033   -1.427965   -4.203038
     15          7           0       31.888559   -1.794711   -0.371878
     16          6           0       31.474479   -3.086989   -0.588545
     17          6           0       32.544345   -3.850206   -1.066327
     18          6           0       33.712123   -2.994496   -1.105077
     19          6           0       33.227284   -1.662896   -0.655607
     20          6           0       32.403320   -5.347644   -1.269308
     21          6           0       35.109744   -3.458601   -1.553498
     22          8           0       35.241344   -4.651391   -1.908930
     23          6           0       36.286964   -2.640682   -1.604562
     24          7           0       32.493112    1.316852   -0.012926
     25          6           0       33.691762    0.817840   -0.120048
     26          6           0       34.810879    1.890320    0.006987
     27          6           0       33.989023    3.133914    0.410724
     28          6           0       32.486405    2.638937    0.391141
     29          6           0       35.856065    1.576104    1.015731
     30          6           0       34.264014    4.395109   -0.536497
     31          6           0       35.031896    5.611552    0.126625
     32          7           0       29.716482    1.607830    0.491014
     33          6           0       30.057606    2.956775    0.650311
     34          6           0       28.798350    3.758231    0.751897
     35          6           0       27.792868    2.817195    0.488539
     36          6           0       28.384201    1.532489    0.302138
     37          6           0       28.631925    5.179544    0.989157
     38          6           0       26.415861    2.743403    0.307799
     39          8           0       25.495616    3.571320    0.376643
     40          6           0       26.108299    1.229592    0.128156
     41          6           0       25.098235    0.810829    1.222820
     42          8           0       24.024598    0.254001    1.068571
     43          8           0       25.538076    1.134729    2.488098
     44          6           0       24.651809    0.824787    3.616245
     45          1           0       29.811059   -4.529115   -0.807877
     46          1           0       35.088761   -0.580184   -0.508555
     47          1           0       31.604994    4.424532    0.932163
     48          1           0       26.176079   -2.104269    0.650678
     49          1           0       27.598498   -4.009160   -1.083791
     50          1           0       28.101252   -4.410111    1.680858
     51          1           0       27.125556   -5.396028    0.613050
     52          1           0       26.348137   -4.167997    1.496561
     53          1           0       24.864816   -1.633095   -1.193162
     54          1           0       25.592028   -2.957636   -2.123268
     55          1           0       27.361152   -1.447481   -2.829743
     56          1           0       26.216984   -0.166645   -2.504830
     57          1           0       33.077118   -6.031407   -0.752354
     58          1           0       32.402451   -5.553730   -2.339905
     59          1           0       31.407047   -5.653841   -0.950854
     60          1           0       36.647925   -2.208902   -0.671256
     61          1           0       36.089750   -1.728067   -2.166104
     62          1           0       37.114429   -3.097738   -2.146348
     63          1           0       35.420364    2.115739   -0.868024
     64          1           0       34.122903    3.418101    1.454544
     65          1           0       36.809582    1.245050    0.604555
     66          1           0       35.586960    0.684207    1.582727
     67          1           0       36.025973    2.437230    1.661817
     68          1           0       33.299281    4.820287   -0.816598
     69          1           0       34.892651    4.181488   -1.399893
     70          1           0       35.820995    5.953305   -0.541995
     71          1           0       35.564606    5.233507    0.999304
     72          1           0       34.283552    6.399707    0.211690
     73          1           0       29.483196    5.448778    1.614856
     74          1           0       27.706180    5.373115    1.532216
     75          1           0       28.549892    5.643896    0.006878
     76          1           0       25.451926    1.022006   -0.716623
     77          1           0       24.903196    1.491122    4.441631
     78          1           0       24.714313   -0.167554    4.062553
     79          1           0       23.590885    0.875340    3.369568
     80         12           0      -30.711044    0.409751    0.182811
     81          6           0      -27.902412   -1.719714    0.174842
     82          6           0      -28.630029    2.910417   -0.630015
     83          6           0      -33.431549    2.162028   -0.274343
     84          6           0      -32.685192   -2.564800    0.341722
     85          7           0      -28.516577    0.540173   -0.225309
     86          6           0      -27.542473   -0.392656   -0.104093
     87          6           0      -26.148097    0.148430   -0.346868
     88          6           0      -26.447985    1.701019   -0.325248
     89          6           0      -27.958312    1.775378   -0.412490
     90          6           0      -25.891831    2.470662    0.943090
     91          6           0      -25.295380   -0.271811   -1.622469
     92          6           0      -25.952684   -0.964045   -2.845938
     93          1           0      -25.366015   -0.651986   -4.273245
     94          7           0      -30.939075    2.363614   -0.259738
     95          6           0      -30.000219    3.207745   -0.665952
     96          6           0      -30.644050    4.488151   -1.067456
     97          6           0      -32.096038    4.298890   -0.789849
     98          6           0      -32.197357    2.883175   -0.434303
     99          6           0      -29.884689    5.730770   -1.447146
    100          6           0      -33.173294    5.331984   -0.993021
    101          8           0      -32.846578    6.462346   -1.346359
    102          6           0      -34.719561    5.078044   -0.852647
    103          7           0      -32.849398   -0.147836   -0.065488
    104          6           0      -33.674589    0.841189   -0.068687
    105          6           0      -35.143989    0.236050    0.048806
    106          6           0      -34.840481   -1.262543   -0.008415
    107          6           0      -33.329409   -1.358353    0.077662
    108          6           0      -36.028492    0.642183    1.239385
    109          6           0      -35.228666   -1.949141   -1.418595
    110          6           0      -36.375737   -2.975795   -1.389200
    111          7           0      -30.440001   -1.697576    0.183061
    112          6           0      -31.292391   -2.753085    0.372424
    113          6           0      -30.531313   -3.993942    0.670899
    114          6           0      -29.157885   -3.671809    0.479522
    115          6           0      -29.195682   -2.222218    0.294625
    116          6           0      -31.107069   -5.408649    0.903768
    117          6           0      -27.809336   -4.130345    0.442293
    118          8           0      -27.273445   -5.251813    0.449291
    119          6           0      -26.917165   -2.869035    0.318385
    120          6           0      -25.997652   -2.855229    1.542975
    121          8           0      -24.827092   -3.089083    1.686952
    122          8           0      -26.711278   -2.284240    2.602327
    123          6           0      -25.980244   -2.054367    3.887082
    124          1           0      -27.930279    3.703662   -0.901946
    125          1           0      -34.310722    2.799208   -0.397067
    126          1           0      -33.296831   -3.415227    0.648976
    127          1           0      -25.599771   -0.091927    0.563814
    128          1           0      -25.972924    2.170008   -1.187036
    129          1           0      -25.425858    1.779454    1.644571
    130          1           0      -26.816662    2.779630    1.429021
    131          1           0      -25.238085    3.281973    0.622422
    132          1           0      -24.488024   -0.909130   -1.261539
    133          1           0      -24.778292    0.609170   -2.004231
    134          1           0      -26.997323   -0.653162   -2.830675
    135          1           0      -25.812378   -2.044305   -2.868528
    136          1           0      -30.501521    6.629202   -1.446612
    137          1           0      -29.370959    5.500875   -2.381349
    138          1           0      -29.075520    5.768722   -0.717082
    139          1           0      -35.137067    4.626558    0.048115
    140          1           0      -35.014023    4.367765   -1.625246
    141          1           0      -35.296704    5.995760   -0.962081
    142          1           0      -35.770493    0.548088   -0.786112
    143          1           0      -35.306500   -1.922745    0.723892
    144          1           0      -35.527797    1.358055    1.891450
    145          1           0      -36.374414   -0.227032    1.799766
    146          1           0      -36.936540    1.168892    0.945897
    147          1           0      -34.388051   -2.493200   -1.847075
    148          1           0      -35.479073   -1.122355   -2.083645
    149          1           0      -36.290108   -3.796611   -2.101692
    150          1           0      -37.264560   -2.416183   -1.680492
    151          1           0      -36.352163   -3.345576   -0.364039
    152          1           0      -32.155799   -5.530400    0.634749
    153          1           0      -30.999635   -5.561595    1.977343
    154          1           0      -30.447543   -6.126999    0.417466
    155          1           0      -26.316581   -2.940042   -0.587853
    156          1           0      -25.167683   -2.730245    4.152703
    157          1           0      -26.749191   -2.222053    4.640971
    158          1           0      -25.609514   -1.052071    4.102668
 ---------------------------------------------------------------------

 SCF Done:  E(RwB97XD) =  -4070.56022958     A.U. after   19 cycles

 Excitation energies and oscillator strengths:

 Excited State   1:      Singlet-A      1.6547 eV  749.26 nm  f=0.4320  <S**2>=0.000
     309 -> 316       -0.16631
     311 -> 313        0.68665
     309 <- 316       -0.11152
 This state for optimization and/or second-order correction.
 Total Energy, E(TD-HF/TD-DFT) =  -4070.49941864
 Copying the excited state density for this state as the 1-particle RhoCI density.

 Excited State   2:      Singlet-A      1.7163 eV  722.41 nm  f=0.4071  <S**2>=0.000
     310 -> 315        0.19063
     312 -> 314        0.68129
     310 <- 315        0.11531

 Excited State   3:      Singlet-A      2.1980 eV  564.07 nm  f=0.1164  <S**2>=0.000
     309 -> 313        0.64044
     311 -> 316        0.27515

 Excited State   4:      Singlet-A      2.2310 eV  555.74 nm  f=0.0953  <S**2>=0.000
     310 -> 314        0.63456
     312 -> 315       -0.29969

 Excited State   5:      Singlet-A      3.2249 eV  384.45 nm  f=0.0080  <S**2>=0.000
     304 -> 313       -0.15899
     308 -> 313        0.66799
     308 -> 318        0.10502

 The electronic state is 1-A.
 Alpha  occ. eigenvalues --  -46.96674 -46.96411 -19.30172 -19.29870 -19.25392
 Alpha  occ. eigenvalues --  -19.25099 -19.24605 -19.24124 -19.23578 -19.22394
 Alpha  occ. eigenvalues --  -14.47813 -14.46913 -14.46501 -14.46373 -14.45185
 Alpha  occ. eigenvalues --  -14.45065 -14.44716 -14.44378 -10.43781 -10.43635
 Alpha  occ. eigenvalues --  -10.39776 -10.39552 -10.38805 -10.38164 -10.37079
 Alpha  occ. eigenvalues --  -10.35919 -10.35647 -10.35575 -10.35335 -10.35283
 Alpha  occ. eigenvalues --  -10.35144 -10.35124 -10.34760 -10.34752 -10.34699
 Alpha  occ. eigenvalues --  -10.34691 -10.34618 -10.34484 -10.34424 -10.34175
 Alpha  occ. eigenvalues --  -10.34068 -10.33869 -10.33821 -10.33526 -10.33372
 Alpha  occ. eigenvalues --  -10.33368 -10.33064 -10.32949 -10.32925 -10.32874
 Alpha  occ. eigenvalues --  -10.32861 -10.32557 -10.32397 -10.32345 -10.32063
 Alpha  occ. eigenvalues --  -10.31960 -10.31941 -10.31738 -10.31683 -10.31599
 Alpha  occ. eigenvalues --  -10.31523 -10.31424 -10.31316 -10.31148 -10.31128
 Alpha  occ. eigenvalues --  -10.31122 -10.31121 -10.31075 -10.31063 -10.30972
 Alpha  occ. eigenvalues --  -10.30846 -10.30798 -10.30743 -10.30448 -10.30419
 Alpha  occ. eigenvalues --  -10.30339 -10.30323 -10.30259 -10.30017 -10.29998
 Alpha  occ. eigenvalues --  -10.29860 -10.29737 -10.29606 -10.29465 -10.29254
 Alpha  occ. eigenvalues --  -10.28772  -3.22547  -3.22340  -1.96107  -1.95916
 Alpha  occ. eigenvalues --   -1.95697  -1.95478  -1.95460  -1.95308  -1.18356
 Alpha  occ. eigenvalues --   -1.18254  -1.11740  -1.11633  -1.11370  -1.09764
 Alpha  occ. eigenvalues --   -1.09608  -1.09528  -1.08738  -1.07062  -1.06842
 Alpha  occ. eigenvalues --   -1.06519  -1.06059  -1.05727  -1.05327  -1.04235
 Alpha  occ. eigenvalues --   -0.95617  -0.95057  -0.91729  -0.91617  -0.91291
 Alpha  occ. eigenvalues --   -0.90915  -0.90728  -0.90478  -0.90334  -0.90205
 Alpha  occ. eigenvalues --   -0.89691  -0.88903  -0.87321  -0.87196  -0.86834
 Alpha  occ. eigenvalues --   -0.86565  -0.86069  -0.85834  -0.84831  -0.84783
 Alpha  occ. eigenvalues --   -0.84412  -0.83710  -0.83451  -0.82776  -0.82474
 Alpha  occ. eigenvalues --   -0.82270  -0.80475  -0.80450  -0.79642  -0.79345
 Alpha  occ. eigenvalues --   -0.78946  -0.78875  -0.78620  -0.78302  -0.77309
 Alpha  occ. eigenvalues --   -0.77222  -0.75412  -0.75336  -0.74381  -0.73948
 Alpha  occ. eigenvalues --   -0.71622  -0.71603  -0.71199  -0.70846  -0.70599
 Alpha  occ. eigenvalues --   -0.70348  -0.69505  -0.68827  -0.68781  -0.67950
 Alpha  occ. eigenvalues --   -0.67644  -0.67637  -0.67508  -0.66879  -0.66832
 Alpha  occ. eigenvalues --   -0.66547  -0.65360  -0.65187  -0.62894  -0.62593
 Alpha  occ. eigenvalues --   -0.62211  -0.61992  -0.61450  -0.60927  -0.60535
 Alpha  occ. eigenvalues --   -0.60530  -0.60091  -0.60015  -0.59258  -0.59234
 Alpha  occ. eigenvalues --   -0.58350  -0.58296  -0.57865  -0.57654  -0.57610
 Alpha  occ. eigenvalues --   -0.57598  -0.57032  -0.56745  -0.56512  -0.56489
 Alpha  occ. eigenvalues --   -0.55915  -0.55846  -0.55592  -0.55435  -0.55205
 Alpha  occ. eigenvalues --   -0.54900  -0.54791  -0.54718  -0.54599  -0.54167
 Alpha  occ. eigenvalues --   -0.53967  -0.53666  -0.53532  -0.53414  -0.53257
 Alpha  occ. eigenvalues --   -0.53220  -0.53026  -0.52843  -0.52608  -0.52528
 Alpha  occ. eigenvalues --   -0.52256  -0.51956  -0.51900  -0.51750  -0.51478
 Alpha  occ. eigenvalues --   -0.51461  -0.51164  -0.50993  -0.50925  -0.50800
 Alpha  occ. eigenvalues --   -0.50752  -0.50476  -0.50475  -0.50453  -0.50253
 Alpha  occ. eigenvalues --   -0.50238  -0.49799  -0.49564  -0.49531  -0.49375
 Alpha  occ. eigenvalues --   -0.49342  -0.49208  -0.49125  -0.48876  -0.48805
 Alpha  occ. eigenvalues --   -0.48739  -0.48579  -0.48234  -0.48107  -0.48048
 Alpha  occ. eigenvalues --   -0.47853  -0.47797  -0.47661  -0.47491  -0.47296
 Alpha  occ. eigenvalues --   -0.47187  -0.46969  -0.46830  -0.46786  -0.46539
 Alpha  occ. eigenvalues --   -0.46388  -0.46122  -0.45910  -0.45746  -0.45574
 Alpha  occ. eigenvalues --   -0.45520  -0.45257  -0.45087  -0.44704  -0.44580
 Alpha  occ. eigenvalues --   -0.44549  -0.44255  -0.44175  -0.44064  -0.44045
 Alpha  occ. eigenvalues --   -0.44000  -0.43891  -0.43418  -0.43364  -0.43113
 Alpha  occ. eigenvalues --   -0.42872  -0.42852  -0.42755  -0.42613  -0.42597
 Alpha  occ. eigenvalues --   -0.41976  -0.41882  -0.41760  -0.41146  -0.40978
 Alpha  occ. eigenvalues --   -0.40763  -0.40671  -0.40134  -0.40106  -0.39800
 Alpha  occ. eigenvalues --   -0.39723  -0.38892  -0.38814  -0.38718  -0.38509
 Alpha  occ. eigenvalues --   -0.38403  -0.38275  -0.37064  -0.36812  -0.36317
 Alpha  occ. eigenvalues --   -0.36260  -0.36245  -0.35864  -0.34094  -0.33793
 Alpha  occ. eigenvalues --   -0.33489  -0.33272  -0.33194  -0.33138  -0.32870
 Alpha  occ. eigenvalues --   -0.32019  -0.31423  -0.31132  -0.26868  -0.26422
 Alpha  occ. eigenvalues --   -0.23475  -0.23345
 Alpha virt. eigenvalues --   -0.07881  -0.07264  -0.00129   0.00032   0.01414
 Alpha virt. eigenvalues --    0.01997   0.03811   0.03850   0.04359   0.04520
 Alpha virt. eigenvalues --    0.06813   0.07191   0.07196   0.07610   0.07969

 Mulliken charges:
               1
     1  Mg   0.957030
     2  C    0.004083
     3  C   -0.071976
     4  C   -0.044019
     5  C   -0.099226
     6  N   -0.349400
     7  C    0.011009
     8  C   -0.050880
     9  C   -0.100555
    10  C    0.039571
    11  C    0.023929
    12  C   -0.030574
    13  C   -0.101618
    14  H    0.062377
    15  N   -0.458796
    16  C    0.154328
    17  C   -0.150849
    18  C   -0.094594
    19  C    0.205416
    20  C    0.091937
    21  C    0.063160
    22  O   -0.267834
    23  C    0.000010
    24  N   -0.297867
    25  C    0.010997
    26  C   -0.080698
    27  C   -0.046016
    28  C    0.048399
    29  C    0.002563
    30  C   -0.042800
    31  C   -0.065006
    32  N   -0.464694
    33  C    0.133680
    34  C   -0.171348
    35  C   -0.013118
    36  C    0.155603
    37  C    0.081438
    38  C    0.117869
    39  O   -0.220265
    40  C   -0.107958
    41  C    0.242684
    42  O   -0.244050
    43  O   -0.368870
    44  C    0.139799
    45  H    0.011742
    46  H   -0.042791
    47  H    0.000687
    48  H    0.052482
    49  H    0.038592
    50  H    0.039472
    51  H    0.034765
    52  H    0.041356
    53  H    0.057319
    54  H    0.041173
    55  H    0.052202
    56  H    0.036562
    57  H    0.060567
    58  H    0.046842
    59  H    0.000118
    60  H    0.063453
    61  H    0.040904
    62  H    0.054666
    63  H    0.045299
    64  H    0.032491
    65  H    0.028508
    66  H    0.031379
    67  H    0.039484
    68  H    0.036143
    69  H    0.041006
    70  H    0.033300
    71  H    0.036183
    72  H    0.047801
    73  H    0.043710
    74  H    0.066863
    75  H    0.074602
    76  H    0.058539
    77  H    0.052701
    78  H    0.037441
    79  H    0.061568
    80  Mg   0.957674
    81  C   -0.036424
    82  C   -0.091696
    83  C   -0.036412
    84  C   -0.103617
    85  N   -0.341002
    86  C   -0.037922
    87  C    0.005316
    88  C   -0.158328
    89  C    0.057993
    90  C    0.033623
    91  C    0.002369
    92  C   -0.150003
    93  H    0.026882
    94  N   -0.476135
    95  C    0.164534
    96  C   -0.173280
    97  C   -0.081352
    98  C    0.167327
    99  C    0.085844
   100  C    0.055546
   101  O   -0.240357
   102  C   -0.027120
   103  N   -0.273820
   104  C    0.045821
   105  C   -0.055793
   106  C   -0.125982
   107  C    0.077318
   108  C    0.014304
   109  C   -0.041898
   110  C   -0.039882
   111  N   -0.401912
   112  C    0.126931
   113  C   -0.186202
   114  C   -0.008773
   115  C    0.160662
   116  C    0.075216
   117  C    0.093735
   118  O   -0.218088
   119  C   -0.083174
   120  C    0.279589
   121  O   -0.209514
   122  O   -0.398029
   123  C    0.134887
   124  H   -0.010891
   125  H   -0.053778
   126  H    0.002621
   127  H    0.040933
   128  H    0.037049
   129  H    0.035433
   130  H    0.038115
   131  H    0.054865
   132  H    0.045350
   133  H    0.044659
   134  H    0.072938
   135  H    0.074371
   136  H    0.077699
   137  H    0.041066
   138  H    0.036953
   139  H    0.056539
   140  H    0.057172
   141  H    0.052403
   142  H    0.035501
   143  H    0.023168
   144  H    0.033244
   145  H    0.035997
   146  H    0.027108
   147  H    0.043332
   148  H    0.025247
   149  H    0.043760
   150  H    0.037800
   151  H    0.028136
   152  H    0.042818
   153  H    0.054951
   154  H    0.069763
   155  H    0.068848
   156  H    0.065924
   157  H    0.044835
   158  H    0.047216
 Sum of Mulliken charges =  -0.00000

 Dipole moment (field-independent basis, Debye):
    X=             -0.2395    Y=              2.5007    Z=              5.9178  Tot=              6.4289
 Quadrupole moment (field-independent basis, Debye-Ang):
   XX=           -102.1128   YY=           -561.6728   ZZ=           -497.4263
   XY=            131.8185   XZ=             33.2148   YZ=              0.1910

 Normal termination of Gaussian 16 at Sat Sep 18 22:58:58 2021.
