 Gaussian 16, Revision A.03,
 Gaussian 16:  ES64L-G16RevA.03 25-Dec-2016

 --------------------------------
 #p wB97XD/Def2SVP td=(nstates=5)
 --------------------------------

 --------------------------------
 TDDFT excited states in gaussian
 --------------------------------
 Symbolic Z-matrix:
 Charge =  0 Multiplicity = 1

                         Standard orientation:
 ---------------------------------------------------------------------
 Center     Atomic      Atomic             Coordinates (Angstroms)
 Number     Number       Type             X           Y           Z
 ---------------------------------------------------------------------
      1         12           0      -30.486762    0.109549    0.047624
      2          6           0      -27.285099   -1.326803   -0.064300
      3          6           0      -30.816687   -1.093420    3.207742
      4          6           0      -33.245378    1.862430    0.165273
      5          6           0      -29.468368    1.907401   -2.901445
      6          7           0      -29.223563   -1.113048    1.344529
      7          6           0      -27.956900   -1.571173    1.115353
      8          6           0      -27.381879   -2.078222    2.446367
      9          6           0      -28.645337   -2.475740    3.201577
     10          6           0      -29.596622   -1.422200    2.602370
     11          6           0      -29.110142   -3.915241    2.881525
     12          6           0      -26.570036   -0.952481    3.187645
     13          6           0      -24.982872   -1.140591    3.357110
     14          1           0      -24.035935   -0.109023    2.720519
     15          7           0      -31.817403    0.400115    1.504936
     16          6           0      -31.798666   -0.203032    2.741535
     17          6           0      -33.022105    0.113379    3.409753
     18          6           0      -33.852599    0.885064    2.531366
     19          6           0      -32.995723    1.101150    1.329639
     20          6           0      -33.362124   -0.375115    4.859465
     21          6           0      -35.326761    1.329599    2.847320
     22          8           0      -35.866872    0.946597    3.839130
     23          6           0      -36.096657    1.970176    1.787967
     24          7           0      -31.109270    1.899321   -1.026758
     25          6           0      -32.445163    2.112921   -0.965498
     26          6           0      -33.012249    2.728014   -2.233962
     27          6           0      -31.767909    3.075747   -3.036657
     28          6           0      -30.679301    2.242633   -2.274885
     29          6           0      -33.969749    1.753039   -3.014015
     30          6           0      -31.346171    4.609759   -3.215814
     31          6           0      -31.494474    5.329420   -4.529461
     32          7           0      -28.870857    0.140143   -1.339395
     33          6           0      -28.591156    0.908515   -2.476775
     34          6           0      -27.281813    0.608995   -3.014853
     35          6           0      -26.756755   -0.281624   -2.111033
     36          6           0      -27.718359   -0.543860   -1.080330
     37          6           0      -26.685707    1.228025   -4.209999
     38          6           0      -25.576939   -1.075280   -1.803070
     39          8           0      -24.540474   -1.234364   -2.459706
     40          6           0      -25.906516   -1.854880   -0.547516
     41          6           0      -25.855752   -3.335547   -0.908198
     42          8           0      -26.575342   -3.794133   -1.792546
     43          8           0      -24.833078   -4.001781   -0.215221
     44          6           0      -24.706053   -5.398795   -0.533864
     45          1           0      -30.952759   -1.623132    4.152578
     46          1           0      -34.293911    2.158721    0.108123
     47          1           0      -29.214002    2.373807   -3.855714
     48          1           0      -26.646577   -2.843843    2.197602
     49          1           0      -28.452267   -2.357665    4.267096
     50          1           0      -29.235892   -4.274813    3.902199
     51          1           0      -28.268374   -4.365348    2.354534
     52          1           0      -30.018790   -4.019314    2.288422
     53          1           0      -26.957270   -0.893563    4.204763
     54          1           0      -26.820020   -0.001867    2.717205
     55          1           0      -24.749467   -2.072231    2.841123
     56          1           0      -24.648724   -1.279748    4.384562
     57          1           0      -33.712805    0.363850    5.579256
     58          1           0      -32.440001   -0.812469    5.243617
     59          1           0      -34.112387   -1.165927    4.871536
     60          1           0      -35.653494    2.888222    1.401480
     61          1           0      -37.090926    2.194128    2.174367
     62          1           0      -36.359529    1.241374    1.022483
     63          1           0      -33.642159    3.595408   -2.033818
     64          1           0      -31.825261    2.634878   -4.031883
     65          1           0      -35.026049    1.940351   -2.821780
     66          1           0      -33.651602    0.723221   -2.851733
     67          1           0      -33.817342    1.941888   -4.077628
     68          1           0      -30.402213    4.935954   -2.780520
     69          1           0      -32.112799    5.002116   -2.547123
     70          1           0      -32.238778    6.124811   -4.507841
     71          1           0      -31.803216    4.622238   -5.299693
     72          1           0      -30.498617    5.721427   -4.734824
     73          1           0      -27.150812    2.205045   -4.343973
     74          1           0      -26.989053    0.596970   -5.045855
     75          1           0      -25.598416    1.244306   -4.150483
     76          1           0      -25.073723   -1.604421    0.108225
     77          1           0      -25.458441   -6.039765   -0.073555
     78          1           0      -23.735722   -5.791846   -0.231744
     79          1           0      -24.746993   -5.622313   -1.599570
     80         12           0       30.353654    0.475661    0.068931
     81          6           0       27.460190   -0.840008   -1.394463
     82          6           0       31.713664   -2.657801    0.180296
     83          6           0       32.903485    1.739170    1.755081
     84          6           0       28.734900    3.662515    0.064960
     85          7           0       29.611670   -1.530825   -0.510082
     86          6           0       28.440594   -1.865040   -1.153179
     87          6           0       28.498597   -3.296578   -1.653470
     88          6           0       29.740293   -3.892804   -0.879790
     89          6           0       30.440245   -2.558444   -0.450485
     90          6           0       29.358059   -4.756909    0.315175
     91          6           0       28.476107   -3.317470   -3.225391
     92          6           0       28.746509   -4.723891   -3.828371
     93          1           0       28.307908   -5.914228   -3.000923
     94          7           0       32.020159   -0.317418    0.816116
     95          6           0       32.382750   -1.657414    0.868698
     96          6           0       33.653138   -1.850972    1.589694
     97          6           0       34.005508   -0.531912    2.011120
     98          6           0       32.949379    0.356075    1.532345
     99          6           0       34.322913   -3.167732    1.717252
    100          6           0       35.225740   -0.151340    2.809346
    101          8           0       35.485393    1.048898    3.101433
    102          6           0       36.238192   -1.182583    3.228338
    103          7           0       30.781717    2.461397    0.759742
    104          6           0       31.918646    2.667989    1.424756
    105          6           0       31.975453    4.161181    1.973641
    106          6           0       30.568987    4.794214    1.448220
    107          6           0       29.981573    3.578520    0.730059
    108          6           0       32.130129    4.112063    3.548938
    109          6           0       30.731373    5.994906    0.421031
    110          6           0       30.903151    7.406891    1.051140
    111          7           0       28.509434    1.282540   -0.449075
    112          6           0       28.006873    2.608942   -0.514823
    113          6           0       26.621378    2.598604   -1.159461
    114          6           0       26.331416    1.270083   -1.453504
    115          6           0       27.555054    0.519813   -1.071830
    116          6           0       25.746783    3.771993   -1.472747
    117          6           0       25.386954    0.351500   -2.045010
    118          8           0       24.265636    0.517223   -2.535495
    119          6           0       26.157047   -1.052152   -2.202675
    120          6           0       25.336494   -2.226923   -1.721602
    121          8           0       25.307527   -2.605659   -0.581866
    122          8           0       24.805861   -2.957294   -2.808886
    123          6           0       24.381126   -4.340822   -2.547782
    124          1           0       31.985524   -3.715734    0.187407
    125          1           0       33.740635    2.147333    2.325473
    126          1           0       28.143041    4.578305    0.125652
    127          1           0       27.583256   -3.791699   -1.331770
    128          1           0       30.456636   -4.442341   -1.491352
    129          1           0       29.828386   -5.724243    0.139304
    130          1           0       28.272166   -4.757046    0.406876
    131          1           0       29.864854   -4.457192    1.232159
    132          1           0       29.094453   -2.450954   -3.457616
    133          1           0       27.469144   -3.005372   -3.500330
    134          1           0       29.826098   -4.721695   -3.978912
    135          1           0       28.229901   -4.783699   -4.786201
    136          1           0       34.287112   -3.343263    2.792292
    137          1           0       35.329010   -3.181415    1.298957
    138          1           0       33.855051   -4.052089    1.282788
    139          1           0       36.696661   -1.609334    2.337323
    140          1           0       35.572082   -1.837758    3.791095
    141          1           0       37.007774   -0.852081    3.925365
    142          1           0       32.835185    4.532649    1.414631
    143          1           0       29.782564    4.956538    2.186529
    144          1           0       32.144104    3.107401    3.971152
    145          1           0       31.298411    4.637914    4.018562
    146          1           0       33.115848    4.527851    3.755595
    147          1           0       29.999229    5.952253   -0.384842
    148          1           0       31.668937    5.806907   -0.101155
    149          1           0       31.826035    7.819110    0.644679
    150          1           0       30.878814    7.305998    2.136265
    151          1           0       30.095061    8.082115    0.768773
    152          1           0       25.784642    3.896147   -2.555210
    153          1           0       26.103264    4.659335   -0.948237
    154          1           0       24.684038    3.689540   -1.245938
    155          1           0       26.399806   -1.142606   -3.261045
    156          1           0       23.410388   -4.245269   -2.062055
    157          1           0       25.157032   -4.889459   -2.013482
    158          1           0       24.308080   -4.822919   -3.522272
 ---------------------------------------------------------------------

 SCF Done:  E(RwB97XD) =  -4070.62695176     A.U. after   19 cycles

 Excitation energies and oscillator strengths:

 Excited State   1:      Singlet-A      1.6549 eV  749.20 nm  f=0.3871  <S**2>=0.000
     310 -> 316        0.20539
     312 -> 314        0.67788
     310 <- 316        0.12140
 This state for optimization and/or second-order correction.
 Total Energy, E(TD-HF/TD-DFT) =  -4070.56613538
 Copying the excited state density for this state as the 1-particle RhoCI density.

 Excited State   2:      Singlet-A      1.6668 eV  743.84 nm  f=0.3545  <S**2>=0.000
     309 -> 315        0.19751
     311 -> 313        0.68079
     309 <- 315        0.12063

 Excited State   3:      Singlet-A      2.2262 eV  556.94 nm  f=0.0510  <S**2>=0.000
     309 -> 313        0.60361
     311 -> 315       -0.35681

 Excited State   4:      Singlet-A      2.2347 eV  554.81 nm  f=0.0335  <S**2>=0.000
     310 -> 314        0.58749
     312 -> 316       -0.38609

 Excited State   5:      Singlet-A      3.4376 eV  360.67 nm  f=0.5249  <S**2>=0.000
     303 -> 313       -0.14765
     306 -> 313        0.27267
     309 -> 313        0.28729
     311 -> 315        0.55179
     309 <- 313       -0.10582

 The electronic state is 1-A.
 Alpha  occ. eigenvalues --  -46.95022 -46.94414 -19.31279 -19.29209 -19.25546
 Alpha  occ. eigenvalues --  -19.25216 -19.24260 -19.24059 -19.23846 -19.23449
 Alpha  occ. eigenvalues --  -14.46733 -14.46719 -14.46668 -14.46120 -14.44572
 Alpha  occ. eigenvalues --  -14.44497 -14.43982 -14.43968 -10.44144 -10.43272
 Alpha  occ. eigenvalues --  -10.39575 -10.39231 -10.38971 -10.38603 -10.35481
 Alpha  occ. eigenvalues --  -10.35247 -10.35163 -10.35131 -10.34934 -10.34864
 Alpha  occ. eigenvalues --  -10.34754 -10.34686 -10.34655 -10.34561 -10.34384
 Alpha  occ. eigenvalues --  -10.34364 -10.34360 -10.34167 -10.33828 -10.33586
 Alpha  occ. eigenvalues --  -10.33536 -10.33486 -10.33402 -10.33272 -10.33235
 Alpha  occ. eigenvalues --  -10.32618 -10.32611 -10.32482 -10.32343 -10.32288
 Alpha  occ. eigenvalues --  -10.32239 -10.32189 -10.32137 -10.31937 -10.31935
 Alpha  occ. eigenvalues --  -10.31934 -10.31910 -10.31796 -10.31745 -10.31693
 Alpha  occ. eigenvalues --  -10.31648 -10.31563 -10.31206 -10.31106 -10.31016
 Alpha  occ. eigenvalues --  -10.30980 -10.30932 -10.30927 -10.30897 -10.30723
 Alpha  occ. eigenvalues --  -10.30631 -10.30372 -10.30355 -10.30301 -10.30114
 Alpha  occ. eigenvalues --  -10.30078 -10.30077 -10.30047 -10.29852 -10.29612
 Alpha  occ. eigenvalues --  -10.29490 -10.29422 -10.29417 -10.29194 -10.29192
 Alpha  occ. eigenvalues --  -10.29190  -3.21068  -3.20513  -1.94634  -1.94207
 Alpha  occ. eigenvalues --   -1.94113  -1.94036  -1.93625  -1.93516  -1.18161
 Alpha  occ. eigenvalues --   -1.17614  -1.14095  -1.11370  -1.11346  -1.10456
 Alpha  occ. eigenvalues --   -1.10019  -1.09976  -1.06773  -1.06321  -1.06270
 Alpha  occ. eigenvalues --   -1.05472  -1.04904  -1.04819  -1.04103  -1.03398
 Alpha  occ. eigenvalues --   -0.95048  -0.93574  -0.91004  -0.90846  -0.90836
 Alpha  occ. eigenvalues --   -0.90448  -0.90426  -0.89743  -0.89565  -0.89481
 Alpha  occ. eigenvalues --   -0.89043  -0.88638  -0.88233  -0.86927  -0.86495
 Alpha  occ. eigenvalues --   -0.86146  -0.86135  -0.84840  -0.84456  -0.84436
 Alpha  occ. eigenvalues --   -0.84111  -0.83808  -0.83000  -0.82819  -0.82683
 Alpha  occ. eigenvalues --   -0.81953  -0.80934  -0.79940  -0.79340  -0.79168
 Alpha  occ. eigenvalues --   -0.78888  -0.78332  -0.78212  -0.77692  -0.77036
 Alpha  occ. eigenvalues --   -0.76475  -0.74870  -0.74103  -0.74062  -0.73430
 Alpha  occ. eigenvalues --   -0.71337  -0.70944  -0.70589  -0.70507  -0.70283
 Alpha  occ. eigenvalues --   -0.70095  -0.69078  -0.68747  -0.67783  -0.67554
 Alpha  occ. eigenvalues --   -0.67402  -0.67107  -0.66856  -0.66465  -0.65907
 Alpha  occ. eigenvalues --   -0.65757  -0.64718  -0.63266  -0.62653  -0.62201
 Alpha  occ. eigenvalues --   -0.62043  -0.61461  -0.61097  -0.60872  -0.60695
 Alpha  occ. eigenvalues --   -0.60477  -0.59729  -0.59700  -0.59516  -0.58756
 Alpha  occ. eigenvalues --   -0.58210  -0.58125  -0.58056  -0.57812  -0.57242
 Alpha  occ. eigenvalues --   -0.56882  -0.56521  -0.56124  -0.55912  -0.55876
 Alpha  occ. eigenvalues --   -0.55595  -0.55471  -0.55192  -0.55096  -0.54931
 Alpha  occ. eigenvalues --   -0.54709  -0.54609  -0.54438  -0.54139  -0.54119
 Alpha  occ. eigenvalues --   -0.53825  -0.53720  -0.53641  -0.53346  -0.53088
 Alpha  occ. eigenvalues --   -0.52946  -0.52806  -0.52783  -0.52387  -0.52377
 Alpha  occ. eigenvalues --   -0.52085  -0.52030  -0.51728  -0.51572  -0.51453
 Alpha  occ. eigenvalues --   -0.51369  -0.51247  -0.51227  -0.51033  -0.50912
 Alpha  occ. eigenvalues --   -0.50772  -0.50603  -0.50423  -0.50254  -0.50048
 Alpha  occ. eigenvalues --   -0.50013  -0.50010  -0.49431  -0.49350  -0.49024
 Alpha  occ. eigenvalues --   -0.48775  -0.48510  -0.48301  -0.48201  -0.48096
 Alpha  occ. eigenvalues --   -0.48032  -0.48005  -0.47889  -0.47666  -0.47505
 Alpha  occ. eigenvalues --   -0.47366  -0.47275  -0.47130  -0.47088  -0.46762
 Alpha  occ. eigenvalues --   -0.46617  -0.46379  -0.46235  -0.46096  -0.46088
 Alpha  occ. eigenvalues --   -0.45906  -0.45787  -0.45522  -0.45410  -0.45257
 Alpha  occ. eigenvalues --   -0.45060  -0.45024  -0.44992  -0.44828  -0.44529
 Alpha  occ. eigenvalues --   -0.44469  -0.44373  -0.44218  -0.44093  -0.44081
 Alpha  occ. eigenvalues --   -0.43879  -0.43642  -0.43518  -0.43483  -0.43289
 Alpha  occ. eigenvalues --   -0.42992  -0.42818  -0.42752  -0.42596  -0.42282
 Alpha  occ. eigenvalues --   -0.42248  -0.42077  -0.41946  -0.41109  -0.40950
 Alpha  occ. eigenvalues --   -0.40888  -0.40458  -0.40097  -0.39933  -0.39889
 Alpha  occ. eigenvalues --   -0.39461  -0.39161  -0.38820  -0.38612  -0.38579
 Alpha  occ. eigenvalues --   -0.38245  -0.37799  -0.36823  -0.36710  -0.36477
 Alpha  occ. eigenvalues --   -0.36134  -0.35731  -0.35404  -0.33544  -0.33471
 Alpha  occ. eigenvalues --   -0.33189  -0.33060  -0.32939  -0.32589  -0.32445
 Alpha  occ. eigenvalues --   -0.32317  -0.32226  -0.31811  -0.26313  -0.25906
 Alpha  occ. eigenvalues --   -0.22794  -0.22214
 Alpha virt. eigenvalues --   -0.06648  -0.06232  -0.00324  -0.00234   0.01842
 Alpha virt. eigenvalues --    0.02598   0.04262   0.04612   0.05199   0.06319
 Alpha virt. eigenvalues --    0.06372   0.06710   0.07485   0.07705   0.08491

 Mulliken charges:
               1
     1  Mg   0.957171
     2  C   -0.054830
     3  C   -0.098050
     4  C   -0.052939
     5  C   -0.094219
     6  N   -0.331840
     7  C   -0.023715
     8  C   -0.114994
     9  C   -0.115703
    10  C    0.039227
    11  C    0.060828
    12  C    0.025455
    13  C   -0.134583
    14  H    0.044858
    15  N   -0.518691
    16  C    0.210403
    17  C   -0.172955
    18  C   -0.106195
    19  C    0.151489
    20  C    0.083493
    21  C    0.062073
    22  O   -0.196901
    23  C   -0.021434
    24  N   -0.326855
    25  C    0.062406
    26  C   -0.102080
    27  C   -0.070023
    28  C    0.069624
    29  C    0.021092
    30  C   -0.022405
    31  C   -0.034786
    32  N   -0.429153
    33  C    0.127773
    34  C   -0.206628
    35  C   -0.016857
    36  C    0.192843
    37  C    0.097419
    38  C    0.099153
    39  O   -0.220837
    40  C   -0.022041
    41  C    0.288755
    42  O   -0.244372
    43  O   -0.362509
    44  C    0.139821
    45  H    0.001604
    46  H   -0.029265
    47  H   -0.001569
    48  H    0.017304
    49  H    0.023679
    50  H    0.042907
    51  H    0.038785
    52  H    0.055123
    53  H    0.032696
    54  H    0.055657
    55  H    0.047928
    56  H    0.058772
    57  H    0.056009
    58  H    0.011826
    59  H    0.051523
    60  H    0.070907
    61  H    0.042006
    62  H    0.069550
    63  H    0.033428
    64  H    0.024318
    65  H    0.046115
    66  H    0.041574
    67  H    0.029648
    68  H    0.043985
    69  H    0.016334
    70  H    0.044039
    71  H    0.026341
    72  H    0.041579
    73  H    0.036680
    74  H    0.058305
    75  H    0.066056
    76  H    0.061063
    77  H    0.042317
    78  H    0.050450
    79  H    0.054039
    80  Mg   0.985065
    81  C   -0.029951
    82  C   -0.097580
    83  C   -0.088111
    84  C   -0.091648
    85  N   -0.320875
    86  C   -0.001370
    87  C   -0.052053
    88  C   -0.133823
    89  C    0.011241
    90  C    0.044503
    91  C   -0.023286
    92  C   -0.099812
    93  H    0.046663
    94  N   -0.499721
    95  C    0.214618
    96  C   -0.158474
    97  C   -0.076712
    98  C    0.175315
    99  C    0.073621
   100  C    0.037706
   101  O   -0.272520
   102  C    0.020668
   103  N   -0.349045
   104  C    0.045795
   105  C   -0.087875
   106  C   -0.049326
   107  C    0.040563
   108  C    0.013487
   109  C   -0.039890
   110  C   -0.032202
   111  N   -0.451917
   112  C    0.124928
   113  C   -0.194072
   114  C   -0.009013
   115  C    0.139219
   116  C    0.070669
   117  C    0.151115
   118  O   -0.214990
   119  C   -0.144506
   120  C    0.289244
   121  O   -0.219268
   122  O   -0.405875
   123  C    0.143363
   124  H   -0.011169
   125  H    0.021198
   126  H    0.001214
   127  H    0.028580
   128  H    0.029441
   129  H    0.028581
   130  H    0.059101
   131  H    0.036166
   132  H    0.041247
   133  H    0.036871
   134  H    0.058414
   135  H    0.059624
   136  H    0.054116
   137  H    0.057846
   138  H    0.036123
   139  H    0.065633
   140  H    0.039214
   141  H    0.055191
   142  H    0.050624
   143  H    0.044468
   144  H    0.052661
   145  H    0.038278
   146  H    0.049589
   147  H    0.034813
   148  H    0.019195
   149  H    0.041749
   150  H    0.039432
   151  H    0.036829
   152  H    0.060594
   153  H    0.027123
   154  H    0.060475
   155  H    0.091887
   156  H    0.068554
   157  H    0.050146
   158  H    0.052331
 Sum of Mulliken charges =  -0.00000

 Dipole moment (field-independent basis, Debye):
    X=              1.5213    Y=             -2.3770    Z=             -1.5962  Tot=              3.2422
 Quadrupole moment (field-independent basis, Debye-Ang):
   XX=           -214.1712   YY=           -451.3417   ZZ=           -509.4841
   XY=           -116.5448   XZ=             22.2540   YZ=            -22.0249

 Normal termination of Gaussian 16 at Mon Sep 20 17:16:37 2021.
