 Gaussian 16, Revision A.03,
 Gaussian 16:  ES64L-G16RevA.03 25-Dec-2016

 --------------------------------
 #p wB97XD/Def2SVP td=(nstates=5)
 --------------------------------

 --------------------------------
 TDDFT excited states in gaussian
 --------------------------------
 Symbolic Z-matrix:
 Charge =  0 Multiplicity = 1

                         Standard orientation:
 ---------------------------------------------------------------------
 Center     Atomic      Atomic             Coordinates (Angstroms)
 Number     Number       Type             X           Y           Z
 ---------------------------------------------------------------------
      1         12           0      -23.841947    0.531495    0.236289
      2          6           0      -22.521943   -2.207466   -1.559793
      3          6           0      -22.732809    2.653553   -2.201916
      4          6           0      -24.491220    3.036624    2.279046
      5          6           0      -24.503374   -1.705327    2.909301
      6          7           0      -22.846996    0.205324   -1.723458
      7          6           0      -22.442606   -0.952106   -2.208221
      8          6           0      -22.134739   -0.768548   -3.683322
      9          6           0      -21.769648    0.762389   -3.786830
     10          6           0      -22.483651    1.276255   -2.481333
     11          6           0      -20.212119    0.975947   -3.897490
     12          6           0      -23.359701   -1.062158   -4.587051
     13          6           0      -23.031135   -1.394150   -6.108804
     14          1           0      -21.598383   -1.386413   -6.648545
     15          7           0      -23.834497    2.524570   -0.009224
     16          6           0      -23.405073    3.274735   -1.133939
     17          6           0      -23.676035    4.706525   -0.866231
     18          6           0      -24.120572    4.818864    0.500002
     19          6           0      -24.184209    3.439415    1.029781
     20          6           0      -23.496492    5.786333   -1.874146
     21          6           0      -24.537846    6.050207    1.394764
     22          8           0      -24.991044    5.952144    2.543250
     23          6           0      -24.243618    7.431246    0.884959
     24          7           0      -24.315829    0.661459    2.368708
     25          6           0      -24.587394    1.799366    2.950579
     26          6           0      -25.023189    1.698522    4.385509
     27          6           0      -25.026327    0.146672    4.618015
     28          6           0      -24.680365   -0.365669    3.183800
     29          6           0      -24.170999    2.580466    5.302818
     30          6           0      -26.354245   -0.423039    5.100928
     31          6           0      -26.282783   -1.550547    6.192178
     32          7           0      -23.662354   -1.589804    0.656405
     33          6           0      -24.021711   -2.348726    1.787446
     34          6           0      -23.875755   -3.728904    1.475423
     35          6           0      -23.129725   -3.750922    0.254049
     36          6           0      -23.073697   -2.462803   -0.214655
     37          6           0      -24.443020   -4.871423    2.268079
     38          6           0      -22.525654   -4.539689   -0.846581
     39          8           0      -22.376985   -5.738975   -0.956437
     40          6           0      -21.901462   -3.507962   -1.901905
     41          6           0      -21.934687   -4.078920   -3.281760
     42          8           0      -22.907264   -4.396558   -3.900524
     43          8           0      -20.635472   -4.307900   -3.772125
     44          6           0      -20.473266   -5.436298   -4.713324
     45          1           0      -22.242845    3.398894   -2.832559
     46          1           0      -24.865224    3.780011    2.985261
     47          1           0      -24.789706   -2.373721    3.724081
     48          1           0      -21.393993   -1.545126   -3.873618
     49          1           0      -22.232838    1.227203   -4.657827
     50          1           0      -19.696413    0.016866   -3.862950
     51          1           0      -19.955844    1.452972   -2.951490
     52          1           0      -19.883054    1.474992   -4.809042
     53          1           0      -23.944071   -0.141870   -4.550258
     54          1           0      -23.918167   -1.870337   -4.114891
     55          1           0      -23.633339   -0.683245   -6.676591
     56          1           0      -23.479837   -2.373051   -6.279425
     57          1           0      -23.314980    5.517723   -2.914197
     58          1           0      -22.640851    6.422916   -1.650635
     59          1           0      -24.444213    6.324558   -1.844809
     60          1           0      -25.029058    7.849498    0.255655
     61          1           0      -23.309992    7.226653    0.359509
     62          1           0      -24.048996    8.039783    1.767655
     63          1           0      -26.042397    2.081263    4.333956
     64          1           0      -24.269231   -0.196820    5.321868
     65          1           0      -23.171177    2.782646    4.917424
     66          1           0      -24.043830    2.000077    6.215790
     67          1           0      -24.640802    3.540053    5.519766
     68          1           0      -26.925399   -0.843430    4.273360
     69          1           0      -26.941506    0.460674    5.350030
     70          1           0      -25.256992   -1.877115    6.362231
     71          1           0      -26.844637   -2.378529    5.760403
     72          1           0      -26.715272   -1.359985    7.174941
     73          1           0      -24.152591   -4.665935    3.298495
     74          1           0      -24.056911   -5.852534    1.990995
     75          1           0      -25.532510   -4.843818    2.231131
     76          1           0      -20.826401   -3.451934   -1.734029
     77          1           0      -20.168338   -5.025057   -5.675727
     78          1           0      -21.383044   -6.029860   -4.809774
     79          1           0      -19.675651   -6.046775   -4.290048
     80         12           0       23.556034    0.635607   -0.739351
     81          6           0       22.718589   -2.646923    0.319960
     82          6           0       20.195405    1.468428   -0.315439
     83          6           0       24.551433    3.767635   -0.550336
     84          6           0       27.034234   -0.507029   -0.761284
     85          7           0       21.683040   -0.465527    0.190816
     86          6           0       21.571972   -1.814815    0.269548
     87          6           0       20.108183   -2.190814    0.413786
     88          6           0       19.365200   -1.082683   -0.332701
     89          6           0       20.455417    0.083803   -0.100880
     90          6           0       19.109807   -1.255523   -1.831114
     91          6           0       19.757317   -2.388576    1.952818
     92          6           0       18.949207   -3.602526    2.194089
     93          1           0       17.788648   -3.498388    3.202666
     94          7           0       22.528242    2.447556   -0.418621
     95          6           0       21.118930    2.577596   -0.348446
     96          6           0       20.845602    3.989358   -0.251534
     97          6           0       22.049743    4.726977   -0.402508
     98          6           0       23.133286    3.681414   -0.442505
     99          6           0       19.417029    4.494779   -0.076427
    100          6           0       22.184478    6.197988   -0.363386
    101          8           0       21.179160    6.878416   -0.200656
    102          6           0       23.451158    6.987820   -0.410627
    103          7           0       25.615267    1.492209   -0.567119
    104          6           0       25.654406    2.831304   -0.715640
    105          6           0       27.101407    3.313253   -0.924823
    106          6           0       27.927852    1.925980   -1.154252
    107          6           0       26.816055    0.886103   -0.859145
    108          6           0       27.270068    4.440158   -2.040712
    109          6           0       29.219970    1.762534   -0.294133
    110          6           0       29.122508    0.903271    1.012398
    111          7           0       24.647611   -1.110700   -0.340951
    112          6           0       26.032581   -1.418706   -0.462812
    113          6           0       26.206010   -2.931041   -0.334205
    114          6           0       24.937812   -3.369103    0.012217
    115          6           0       24.043190   -2.240229   -0.025620
    116          6           0       27.433902   -3.853691   -0.457591
    117          6           0       24.160421   -4.529826    0.310516
    118          8           0       24.476011   -5.720788    0.320834
    119          6           0       22.802769   -4.025714    0.648000
    120          6           0       22.725627   -4.234821    2.177680
    121          8           0       23.227331   -3.530803    3.051534
    122          8           0       22.021261   -5.450679    2.399569
    123          6           0       21.919867   -5.930504    3.717836
    124          1           0       19.147122    1.773974   -0.293940
    125          1           0       24.761683    4.833964   -0.654082
    126          1           0       28.014423   -0.968369   -0.893462
    127          1           0       19.841558   -3.100546   -0.123965
    128          1           0       18.377982   -0.760516   -0.003468
    129          1           0       19.182354   -2.287358   -2.173638
    130          1           0       19.645632   -0.509675   -2.418739
    131          1           0       18.052325   -1.001549   -1.912850
    132          1           0       19.159637   -1.539249    2.283939
    133          1           0       20.613673   -2.303022    2.621809
    134          1           0       19.711629   -4.310745    2.516514
    135          1           0       18.519634   -3.920277    1.244154
    136          1           0       19.004507    4.926229   -0.988237
    137          1           0       19.391025    5.178991    0.770416
    138          1           0       18.754490    3.670535    0.188099
    139          1           0       23.880704    6.881340   -1.407050
    140          1           0       24.205689    6.722531    0.330930
    141          1           0       23.255147    8.059291   -0.423139
    142          1           0       27.372740    3.696956    0.058436
    143          1           0       28.137950    1.821464   -2.218159
    144          1           0       26.340949    4.991287   -2.185294
    145          1           0       27.714274    4.173982   -3.000577
    146          1           0       28.110033    5.021908   -1.657857
    147          1           0       29.662397    2.720765   -0.023036
    148          1           0       29.882134    1.234572   -0.979925
    149          1           0       29.870864    1.469180    1.567699
    150          1           0       29.423930   -0.143287    0.963009
    151          1           0       28.126334    1.051978    1.429586
    152          1           0       27.281638   -4.605590   -1.231120
    153          1           0       27.290806   -4.379152    0.486128
    154          1           0       28.320556   -3.220158   -0.467952
    155          1           0       22.052455   -4.653431    0.167137
    156          1           0       21.379196   -6.872383    3.818773
    157          1           0       21.386944   -5.177474    4.297015
    158          1           0       22.950870   -6.058734    4.048736
 ---------------------------------------------------------------------

 SCF Done:  E(RwB97XD) =  -4070.55303895     A.U. after   19 cycles

 Excitation energies and oscillator strengths:

 Excited State   1:      Singlet-A      1.6241 eV  763.42 nm  f=0.3512  <S**2>=0.000
     309 -> 315        0.20434
     312 -> 313        0.67802
     309 <- 315        0.12289
 This state for optimization and/or second-order correction.
 Total Energy, E(TD-HF/TD-DFT) =  -4070.49335568
 Copying the excited state density for this state as the 1-particle RhoCI density.

 Excited State   2:      Singlet-A      1.7665 eV  701.87 nm  f=0.3730  <S**2>=0.000
     310 -> 316       -0.19121
     311 -> 314        0.67833
     310 <- 316       -0.11016

 Excited State   3:      Singlet-A      2.1197 eV  584.92 nm  f=0.0966  <S**2>=0.000
     310 -> 314        0.63987
     311 -> 316        0.27485

 Excited State   4:      Singlet-A      2.1336 eV  581.11 nm  f=0.0541  <S**2>=0.000
     309 -> 313        0.61277
     312 -> 315       -0.34219

 Excited State   5:      Singlet-A      3.2682 eV  379.37 nm  f=0.0032  <S**2>=0.000
     304 -> 314       -0.16825
     306 -> 314        0.15588
     308 -> 314        0.64102
     308 -> 318        0.10638

 The electronic state is 1-A.
 Alpha  occ. eigenvalues --  -46.97668 -46.94866 -19.29958 -19.28464 -19.26351
 Alpha  occ. eigenvalues --  -19.25416 -19.24443 -19.24001 -19.23318 -19.22580
 Alpha  occ. eigenvalues --  -14.46997 -14.46524 -14.46517 -14.46312 -14.44844
 Alpha  occ. eigenvalues --  -14.44433 -14.44353 -14.42556 -10.44509 -10.42358
 Alpha  occ. eigenvalues --  -10.40853 -10.38755 -10.38592 -10.38068 -10.36334
 Alpha  occ. eigenvalues --  -10.35857 -10.35722 -10.35467 -10.35467 -10.35366
 Alpha  occ. eigenvalues --  -10.35055 -10.34950 -10.34895 -10.34872 -10.34778
 Alpha  occ. eigenvalues --  -10.34644 -10.34579 -10.34125 -10.34055 -10.33657
 Alpha  occ. eigenvalues --  -10.33580 -10.33499 -10.33427 -10.32843 -10.32581
 Alpha  occ. eigenvalues --  -10.32463 -10.32449 -10.32269 -10.32252 -10.32174
 Alpha  occ. eigenvalues --  -10.32171 -10.31979 -10.31973 -10.31949 -10.31945
 Alpha  occ. eigenvalues --  -10.31803 -10.31787 -10.31730 -10.31653 -10.31651
 Alpha  occ. eigenvalues --  -10.31646 -10.31620 -10.31609 -10.31465 -10.31385
 Alpha  occ. eigenvalues --  -10.31183 -10.31078 -10.31048 -10.30815 -10.30741
 Alpha  occ. eigenvalues --  -10.30677 -10.30230 -10.30175 -10.30132 -10.30119
 Alpha  occ. eigenvalues --  -10.29948 -10.29914 -10.29713 -10.29686 -10.29635
 Alpha  occ. eigenvalues --  -10.29533 -10.29519 -10.29401 -10.29189 -10.29049
 Alpha  occ. eigenvalues --  -10.28365  -3.23372  -3.20776  -1.96888  -1.96534
 Alpha  occ. eigenvalues --   -1.96284  -1.94378  -1.93899  -1.93737  -1.17995
 Alpha  occ. eigenvalues --   -1.17302  -1.12773  -1.11856  -1.11695  -1.11554
 Alpha  occ. eigenvalues --   -1.10864  -1.09164  -1.07099  -1.06506  -1.06216
 Alpha  occ. eigenvalues --   -1.05450  -1.04874  -1.03650  -1.03303  -1.03072
 Alpha  occ. eigenvalues --   -0.96412  -0.93725  -0.91150  -0.91038  -0.90844
 Alpha  occ. eigenvalues --   -0.90630  -0.89689  -0.89664  -0.89533  -0.89213
 Alpha  occ. eigenvalues --   -0.89174  -0.88795  -0.87512  -0.87308  -0.86700
 Alpha  occ. eigenvalues --   -0.85902  -0.85577  -0.85573  -0.84837  -0.84618
 Alpha  occ. eigenvalues --   -0.83594  -0.83563  -0.82814  -0.82568  -0.82243
 Alpha  occ. eigenvalues --   -0.81795  -0.80613  -0.79992  -0.79200  -0.79075
 Alpha  occ. eigenvalues --   -0.78809  -0.78277  -0.77970  -0.77285  -0.77158
 Alpha  occ. eigenvalues --   -0.77082  -0.74751  -0.74449  -0.73834  -0.73679
 Alpha  occ. eigenvalues --   -0.71844  -0.71739  -0.70725  -0.70598  -0.69258
 Alpha  occ. eigenvalues --   -0.69224  -0.68826  -0.68631  -0.67941  -0.67313
 Alpha  occ. eigenvalues --   -0.67102  -0.66922  -0.66701  -0.66556  -0.66543
 Alpha  occ. eigenvalues --   -0.65434  -0.64224  -0.63011  -0.62260  -0.61929
 Alpha  occ. eigenvalues --   -0.61771  -0.61276  -0.61080  -0.60867  -0.60567
 Alpha  occ. eigenvalues --   -0.60275  -0.60008  -0.59528  -0.59018  -0.58765
 Alpha  occ. eigenvalues --   -0.58459  -0.58101  -0.57942  -0.57624  -0.57394
 Alpha  occ. eigenvalues --   -0.57008  -0.56858  -0.56514  -0.56143  -0.55668
 Alpha  occ. eigenvalues --   -0.55642  -0.55305  -0.55127  -0.55051  -0.54980
 Alpha  occ. eigenvalues --   -0.54748  -0.54575  -0.54130  -0.54097  -0.53917
 Alpha  occ. eigenvalues --   -0.53898  -0.53662  -0.53614  -0.53338  -0.53267
 Alpha  occ. eigenvalues --   -0.53253  -0.53155  -0.52852  -0.52486  -0.52440
 Alpha  occ. eigenvalues --   -0.52093  -0.52061  -0.51929  -0.51906  -0.51403
 Alpha  occ. eigenvalues --   -0.51172  -0.51171  -0.50912  -0.50829  -0.50631
 Alpha  occ. eigenvalues --   -0.50430  -0.50236  -0.50184  -0.49934  -0.49745
 Alpha  occ. eigenvalues --   -0.49708  -0.49466  -0.49405  -0.49219  -0.49120
 Alpha  occ. eigenvalues --   -0.48924  -0.48779  -0.48544  -0.48430  -0.48075
 Alpha  occ. eigenvalues --   -0.48017  -0.47906  -0.47833  -0.47803  -0.47487
 Alpha  occ. eigenvalues --   -0.47367  -0.47336  -0.47236  -0.47066  -0.46945
 Alpha  occ. eigenvalues --   -0.46752  -0.46492  -0.46372  -0.46153  -0.46029
 Alpha  occ. eigenvalues --   -0.45878  -0.45803  -0.45635  -0.45448  -0.45314
 Alpha  occ. eigenvalues --   -0.45217  -0.45005  -0.44994  -0.44703  -0.44525
 Alpha  occ. eigenvalues --   -0.44350  -0.44202  -0.43975  -0.43928  -0.43606
 Alpha  occ. eigenvalues --   -0.43497  -0.43451  -0.43313  -0.43256  -0.43053
 Alpha  occ. eigenvalues --   -0.42965  -0.42892  -0.42877  -0.42333  -0.42013
 Alpha  occ. eigenvalues --   -0.41957  -0.41882  -0.41068  -0.40962  -0.40684
 Alpha  occ. eigenvalues --   -0.40504  -0.40182  -0.39886  -0.39706  -0.39633
 Alpha  occ. eigenvalues --   -0.39589  -0.38602  -0.38369  -0.38319  -0.37725
 Alpha  occ. eigenvalues --   -0.37665  -0.37341  -0.37183  -0.36231  -0.36208
 Alpha  occ. eigenvalues --   -0.35774  -0.35618  -0.35202  -0.33912  -0.33536
 Alpha  occ. eigenvalues --   -0.33401  -0.32987  -0.32718  -0.32502  -0.32148
 Alpha  occ. eigenvalues --   -0.32020  -0.31635  -0.30381  -0.25968  -0.25657
 Alpha  occ. eigenvalues --   -0.23146  -0.22837
 Alpha virt. eigenvalues --   -0.06886  -0.06808  -0.00733  -0.00087   0.01849
 Alpha virt. eigenvalues --    0.01896   0.02922   0.04311   0.04892   0.06044
 Alpha virt. eigenvalues --    0.06848   0.06996   0.07566   0.08119   0.08408

 Mulliken charges:
               1
     1  Mg   0.949504
     2  C    0.045801
     3  C   -0.095108
     4  C   -0.065536
     5  C   -0.086037
     6  N   -0.314207
     7  C    0.001079
     8  C   -0.120466
     9  C   -0.103236
    10  C    0.089414
    11  C    0.035010
    12  C   -0.006482
    13  C   -0.094833
    14  H    0.041420
    15  N   -0.554521
    16  C    0.176027
    17  C   -0.151054
    18  C   -0.082877
    19  C    0.208093
    20  C    0.035243
    21  C    0.082137
    22  O   -0.237312
    23  C   -0.013295
    24  N   -0.304585
    25  C   -0.029754
    26  C   -0.047681
    27  C   -0.103725
    28  C    0.058395
    29  C    0.030141
    30  C   -0.003886
    31  C   -0.057119
    32  N   -0.438258
    33  C    0.134136
    34  C   -0.193281
    35  C   -0.035291
    36  C    0.077389
    37  C    0.080572
    38  C    0.135302
    39  O   -0.202642
    40  C   -0.093425
    41  C    0.221179
    42  O   -0.208237
    43  O   -0.410348
    44  C    0.136759
    45  H    0.001483
    46  H    0.012940
    47  H   -0.022024
    48  H    0.032001
    49  H    0.036180
    50  H    0.038421
    51  H    0.032962
    52  H    0.048361
    53  H    0.023417
    54  H    0.054535
    55  H    0.041792
    56  H    0.065408
    57  H    0.042989
    58  H    0.065229
    59  H    0.060737
    60  H    0.080019
    61  H    0.041648
    62  H    0.065195
    63  H    0.042239
    64  H    0.040198
    65  H    0.046680
    66  H    0.033131
    67  H    0.056299
    68  H    0.030807
    69  H    0.022366
    70  H    0.035975
    71  H    0.038515
    72  H    0.045684
    73  H    0.035936
    74  H    0.058405
    75  H    0.050926
    76  H    0.080249
    77  H    0.051945
    78  H    0.069244
    79  H    0.055707
    80  Mg   0.936645
    81  C    0.010918
    82  C   -0.075239
    83  C   -0.029829
    84  C   -0.064501
    85  N   -0.298291
    86  C   -0.021607
    87  C   -0.051835
    88  C   -0.134197
    89  C    0.044037
    90  C    0.038274
    91  C    0.033727
    92  C   -0.117039
    93  H    0.034911
    94  N   -0.490313
    95  C    0.145720
    96  C   -0.165582
    97  C   -0.025011
    98  C    0.111788
    99  C    0.096274
   100  C   -0.007006
   101  O   -0.246468
   102  C    0.014014
   103  N   -0.325797
   104  C    0.062999
   105  C   -0.098278
   106  C   -0.020444
   107  C    0.007587
   108  C    0.005912
   109  C   -0.047049
   110  C   -0.048217
   111  N   -0.422745
   112  C    0.106744
   113  C   -0.210732
   114  C   -0.023513
   115  C    0.161791
   116  C    0.090964
   117  C    0.075823
   118  O   -0.216251
   119  C   -0.055103
   120  C    0.276435
   121  O   -0.229428
   122  O   -0.374834
   123  C    0.144812
   124  H    0.004571
   125  H   -0.047455
   126  H   -0.000897
   127  H    0.012685
   128  H    0.029573
   129  H    0.042153
   130  H    0.047013
   131  H    0.028401
   132  H    0.032663
   133  H    0.056439
   134  H    0.045315
   135  H    0.046280
   136  H    0.058307
   137  H    0.061354
   138  H    0.009461
   139  H    0.040878
   140  H    0.071655
   141  H    0.046893
   142  H    0.050767
   143  H    0.037818
   144  H    0.052387
   145  H    0.033877
   146  H    0.031532
   147  H    0.040214
   148  H    0.030989
   149  H    0.035620
   150  H    0.046493
   151  H    0.060504
   152  H    0.072936
   153  H    0.068003
   154  H    0.038974
   155  H    0.061035
   156  H    0.058054
   157  H    0.041805
   158  H    0.053638
 Sum of Mulliken charges =  -0.00000

 Dipole moment (field-independent basis, Debye):
    X=              2.0989    Y=              6.0868    Z=             -3.4050  Tot=              7.2835
 Quadrupole moment (field-independent basis, Debye-Ang):
   XX=           -387.7600   YY=           -549.6441   ZZ=           -487.3013
   XY=           -106.5013   XZ=           -100.5013   YZ=            -27.2428

 Normal termination of Gaussian 16 at Sat Sep 18 23:56:31 2021.
