 Gaussian 16, Revision A.03,
 Gaussian 16:  ES64L-G16RevA.03 25-Dec-2016

 --------------------------------
 #p wB97XD/Def2SVP td=(nstates=5)
 --------------------------------

 --------------------------------
 TDDFT excited states in gaussian
 --------------------------------
 Symbolic Z-matrix:
 Charge =  0 Multiplicity = 1

                         Standard orientation:
 ---------------------------------------------------------------------
 Center     Atomic      Atomic             Coordinates (Angstroms)
 Number     Number       Type             X           Y           Z
 ---------------------------------------------------------------------
      1         12           0       -9.131220    0.308658    0.219500
      2          6           0       -7.538863   -2.588554   -1.256622
      3          6           0      -11.179604   -1.779222    1.591456
      4          6           0      -10.599043    3.078619    1.237024
      5          6           0       -7.267322    2.471315   -2.029599
      6          7           0       -9.232905   -1.986267    0.247172
      7          6           0       -8.529091   -2.980120   -0.400709
      8          6           0       -9.094665   -4.313910   -0.069038
      9          6           0      -10.524699   -3.986678    0.432507
     10          6           0      -10.343465   -2.482830    0.746495
     11          6           0      -11.634026   -4.198667   -0.620940
     12          6           0       -8.278611   -4.956212    1.093903
     13          6           0       -7.918819   -6.484679    0.939167
     14          1           0       -6.735428   -7.107645    1.781501
     15          7           0      -10.735157    0.579757    1.370102
     16          6           0      -11.403398   -0.382540    1.948139
     17          6           0      -12.390238    0.216380    2.826844
     18          6           0      -12.100985    1.600700    2.785916
     19          6           0      -11.125196    1.792464    1.747496
     20          6           0      -13.322601   -0.659355    3.683462
     21          6           0      -12.746137    2.671226    3.621235
     22          8           0      -12.438426    3.816119    3.473257
     23          6           0      -13.696931    2.277152    4.704093
     24          7           0       -9.109343    2.498143   -0.580747
     25          6           0       -9.729716    3.381051    0.199155
     26          6           0       -9.307126    4.772869   -0.087826
     27          6           0       -8.359056    4.541657   -1.306888
     28          6           0       -8.201588    3.044857   -1.357053
     29          6           0      -10.427567    5.856392   -0.284901
     30          6           0       -7.004719    5.333844   -1.133375
     31          6           0       -6.746844    6.612988   -1.977608
     32          7           0       -7.759104    0.099171   -1.270670
     33          6           0       -7.019035    1.015215   -2.051190
     34          6           0       -6.065352    0.275501   -2.903460
     35          6           0       -6.242722   -1.066947   -2.596527
     36          6           0       -7.269039   -1.161145   -1.671919
     37          6           0       -5.188901    0.903135   -4.014314
     38          6           0       -5.724797   -2.428041   -2.948872
     39          8           0       -4.844108   -2.827625   -3.673359
     40          6           0       -6.675218   -3.497567   -2.210256
     41          6           0       -5.927406   -4.543598   -1.615272
     42          8           0       -5.550919   -4.494413   -0.435916
     43          8           0       -5.594213   -5.619520   -2.432202
     44          6           0       -4.983608   -6.836162   -1.813812
     45          1           0      -11.907094   -2.372291    2.148445
     46          1           0      -11.041111    4.000077    1.621412
     47          1           0       -6.692931    3.107609   -2.704627
     48          1           0       -9.209992   -4.904604   -0.978194
     49          1           0      -10.872738   -4.539879    1.304607
     50          1           0      -12.353582   -4.940739   -0.273732
     51          1           0      -11.144447   -4.548629   -1.529276
     52          1           0      -12.173057   -3.293671   -0.902573
     53          1           0       -8.913637   -4.840493    1.972418
     54          1           0       -7.396141   -4.328813    1.217626
     55          1           0       -7.751684   -6.676656   -0.120350
     56          1           0       -8.849387   -6.968407    1.238447
     57          1           0      -13.073562   -0.500910    4.733539
     58          1           0      -13.332362   -1.722243    3.444514
     59          1           0      -14.341554   -0.275840    3.639488
     60          1           0      -13.223223    1.668205    5.473637
     61          1           0      -14.518715    1.619433    4.421154
     62          1           0      -14.035989    3.178258    5.215731
     63          1           0       -8.698997    5.110223    0.751513
     64          1           0       -8.888629    4.792163   -2.226328
     65          1           0      -11.370582    5.364106   -0.049534
     66          1           0      -10.446040    6.390990   -1.235275
     67          1           0      -10.250691    6.664022    0.425615
     68          1           0       -6.175271    4.672146   -1.384406
     69          1           0       -6.866330    5.404695   -0.054526
     70          1           0       -6.355976    7.404983   -1.339016
     71          1           0       -7.673506    6.920951   -2.462219
     72          1           0       -5.992397    6.423337   -2.742058
     73          1           0       -4.925679    1.911789   -3.697069
     74          1           0       -5.792586    1.034005   -4.912689
     75          1           0       -4.292362    0.314854   -4.211245
     76          1           0       -7.346497   -3.918636   -2.958136
     77          1           0       -5.671410   -7.305248   -1.108840
     78          1           0       -3.959276   -6.650693   -1.492867
     79          1           0       -4.987234   -7.606966   -2.584390
     80         12           0        8.436506    0.954394    0.246048
     81          6           0       10.673389   -1.571048    0.939164
     82          6           0        5.859932   -1.515376    0.073469
     83          6           0        6.315995    3.242724   -0.768671
     84          6           0       11.016110    3.301517    0.260142
     85          7           0        8.368766   -1.269154    0.500681
     86          6           0        9.389839   -2.073365    0.810889
     87          6           0        8.846303   -3.525081    1.015243
     88          6           0        7.309749   -3.452414    0.585162
     89          6           0        7.159312   -1.944325    0.306846
     90          6           0        6.920446   -4.153966   -0.701853
     91          6           0        9.098007   -4.117637    2.409939
     92          6           0        9.740912   -5.491472    2.320802
     93          1           0        9.551408   -6.529105    3.436832
     94          7           0        6.357776    0.868952   -0.194363
     95          6           0        5.479183   -0.175467   -0.165841
     96          6           0        4.174886    0.219741   -0.461694
     97          6           0        4.263164    1.604068   -0.842718
     98          6           0        5.697983    1.980950   -0.596117
     99          6           0        2.972402   -0.712407   -0.429982
    100          6           0        3.184826    2.508977   -1.416019
    101          8           0        3.517322    3.632981   -1.839588
    102          6           0        1.794258    2.052494   -1.592909
    103          7           0        8.661975    2.937837   -0.142716
    104          6           0        7.609231    3.752471   -0.505871
    105          6           0        8.002281    5.254264   -0.764961
    106          6           0        9.463414    5.246263   -0.142299
    107          6           0        9.752277    3.739410   -0.013947
    108          6           0        7.990226    5.872148   -2.218750
    109          6           0        9.754505    6.162314    1.131854
    110          6           0        9.253102    5.624676    2.446102
    111          7           0       10.422063    0.929996    0.390785
    112          6           0       11.382589    1.923462    0.383701
    113          6           0       12.676366    1.416791    0.596782
    114          6           0       12.419573    0.064975    0.853016
    115          6           0       11.026757   -0.209414    0.724703
    116          6           0       13.858344    2.286919    0.665738
    117          6           0       13.136655   -1.130879    1.077020
    118          8           0       14.359623   -1.283921    1.095776
    119          6           0       12.032346   -2.307670    1.180181
    120          6           0       12.325175   -3.322003    0.182886
    121          8           0       12.136924   -3.242900   -1.009549
    122          8           0       12.952488   -4.350422    0.740244
    123          6           0       13.439420   -5.405132   -0.096591
    124          1           0        5.090228   -2.282769   -0.027843
    125          1           0        5.734214    4.104277   -1.101939
    126          1           0       11.793684    4.068247    0.252832
    127          1           0        9.403235   -4.046250    0.237236
    128          1           0        6.768961   -3.982749    1.369793
    129          1           0        7.719828   -4.736968   -1.160217
    130          1           0        6.642090   -3.422082   -1.459642
    131          1           0        5.993550   -4.709013   -0.554208
    132          1           0        8.216608   -4.183924    3.048020
    133          1           0        9.755589   -3.431825    2.943603
    134          1           0       10.817155   -5.317076    2.347293
    135          1           0        9.393788   -5.922820    1.382086
    136          1           0        3.209844   -1.660197    0.053259
    137          1           0        2.732079   -1.007548   -1.451609
    138          1           0        2.091147   -0.203484   -0.041275
    139          1           0        1.278276    2.660379   -2.336961
    140          1           0        1.283398    2.223602   -0.644855
    141          1           0        1.774537    1.008020   -1.903073
    142          1           0        7.475660    5.940519   -0.101001
    143          1           0       10.143602    5.708613   -0.856527
    144          1           0        7.657147    5.094744   -2.905223
    145          1           0        9.020251    6.004414   -2.552269
    146          1           0        7.430740    6.793059   -2.385595
    147          1           0        9.194099    7.082925    0.970845
    148          1           0       10.793482    6.475932    1.225756
    149          1           0        9.941139    5.978621    3.213051
    150          1           0        9.074790    4.559372    2.587043
    151          1           0        8.261975    6.053743    2.593386
    152          1           0       13.738835    3.303684    1.039053
    153          1           0       14.508471    2.281912   -0.208308
    154          1           0       14.469726    1.740983    1.383807
    155          1           0       12.104669   -2.742479    2.176896
    156          1           0       12.696535   -6.188441   -0.251376
    157          1           0       14.266023   -5.873753    0.437155
    158          1           0       13.726475   -5.003967   -1.068700
 ---------------------------------------------------------------------

 SCF Done:  E(RwB97XD) =  -4070.59367320     A.U. after   19 cycles

 Excitation energies and oscillator strengths:

 Excited State   1:      Singlet-A      1.6461 eV  753.18 nm  f=0.5471  <S**2>=0.000
     309 -> 315       -0.17282
     311 -> 313        0.15645
     312 -> 314        0.66679
     309 <- 315       -0.11127
 This state for optimization and/or second-order correction.
 Total Energy, E(TD-HF/TD-DFT) =  -4070.53317841
 Copying the excited state density for this state as the 1-particle RhoCI density.

 Excited State   2:      Singlet-A      1.6993 eV  729.64 nm  f=0.2761  <S**2>=0.000
     310 -> 316        0.16431
     311 -> 313        0.66867
     312 -> 314       -0.15458
     310 <- 316        0.10759

 Excited State   3:      Singlet-A      2.1227 eV  584.08 nm  f=0.1923  <S**2>=0.000
     310 -> 313        0.67080
     311 -> 316       -0.20486

 Excited State   4:      Singlet-A      2.1663 eV  572.33 nm  f=0.1719  <S**2>=0.000
     309 -> 314        0.64962
     312 -> 315        0.25718

 Excited State   5:      Singlet-A      3.4064 eV  363.97 nm  f=0.0000  <S**2>=0.000
     312 -> 313        0.70674

 The electronic state is 1-A.
 Alpha  occ. eigenvalues --  -46.95966 -46.93822 -19.29842 -19.29436 -19.24850
 Alpha  occ. eigenvalues --  -19.24471 -19.23700 -19.23447 -19.23356 -19.23039
 Alpha  occ. eigenvalues --  -14.46683 -14.46580 -14.46567 -14.44909 -14.44604
 Alpha  occ. eigenvalues --  -14.44546 -14.44103 -14.43349 -10.42566 -10.41911
 Alpha  occ. eigenvalues --  -10.40156 -10.39280 -10.38577 -10.38325 -10.35623
 Alpha  occ. eigenvalues --  -10.35478 -10.35374 -10.35284 -10.35037 -10.34935
 Alpha  occ. eigenvalues --  -10.34928 -10.34772 -10.34599 -10.34253 -10.34208
 Alpha  occ. eigenvalues --  -10.34006 -10.33924 -10.33764 -10.33542 -10.33202
 Alpha  occ. eigenvalues --  -10.33159 -10.33034 -10.32826 -10.32750 -10.32454
 Alpha  occ. eigenvalues --  -10.32443 -10.32442 -10.32307 -10.32289 -10.32194
 Alpha  occ. eigenvalues --  -10.32193 -10.32158 -10.32110 -10.32063 -10.31809
 Alpha  occ. eigenvalues --  -10.31519 -10.31492 -10.31484 -10.31474 -10.31470
 Alpha  occ. eigenvalues --  -10.31395 -10.31243 -10.31160 -10.31008 -10.31005
 Alpha  occ. eigenvalues --  -10.30706 -10.30571 -10.30561 -10.30414 -10.30329
 Alpha  occ. eigenvalues --  -10.30328 -10.30215 -10.30082 -10.30052 -10.30013
 Alpha  occ. eigenvalues --  -10.29862 -10.29826 -10.29756 -10.29729 -10.29567
 Alpha  occ. eigenvalues --  -10.29450 -10.29439 -10.29277 -10.29186 -10.28615
 Alpha  occ. eigenvalues --  -10.28446  -3.21945  -3.20014  -1.95519  -1.95076
 Alpha  occ. eigenvalues --   -1.94907  -1.93610  -1.93160  -1.92993  -1.19921
 Alpha  occ. eigenvalues --   -1.16567  -1.14582  -1.13274  -1.10883  -1.10467
 Alpha  occ. eigenvalues --   -1.09779  -1.08713  -1.08072  -1.07151  -1.07093
 Alpha  occ. eigenvalues --   -1.06389  -1.05535  -1.05124  -1.04368  -1.03149
 Alpha  occ. eigenvalues --   -0.93837  -0.93385  -0.91328  -0.91057  -0.90990
 Alpha  occ. eigenvalues --   -0.90438  -0.90041  -0.90020  -0.89926  -0.89801
 Alpha  occ. eigenvalues --   -0.89351  -0.89238  -0.88493  -0.87314  -0.86467
 Alpha  occ. eigenvalues --   -0.86302  -0.85566  -0.85116  -0.84652  -0.84236
 Alpha  occ. eigenvalues --   -0.84067  -0.84026  -0.83068  -0.82943  -0.82556
 Alpha  occ. eigenvalues --   -0.82346  -0.80946  -0.80029  -0.79245  -0.79051
 Alpha  occ. eigenvalues --   -0.78772  -0.78627  -0.78312  -0.77692  -0.77552
 Alpha  occ. eigenvalues --   -0.77006  -0.75221  -0.74915  -0.73262  -0.73216
 Alpha  occ. eigenvalues --   -0.71379  -0.71373  -0.70866  -0.70613  -0.70153
 Alpha  occ. eigenvalues --   -0.69534  -0.69472  -0.68872  -0.68237  -0.67693
 Alpha  occ. eigenvalues --   -0.67163  -0.67127  -0.66695  -0.66422  -0.66369
 Alpha  occ. eigenvalues --   -0.66164  -0.64118  -0.63667  -0.63262  -0.62254
 Alpha  occ. eigenvalues --   -0.62181  -0.61767  -0.61245  -0.60772  -0.60292
 Alpha  occ. eigenvalues --   -0.60215  -0.60103  -0.59728  -0.59454  -0.59364
 Alpha  occ. eigenvalues --   -0.58737  -0.58277  -0.57902  -0.57840  -0.57663
 Alpha  occ. eigenvalues --   -0.56839  -0.56411  -0.56114  -0.56107  -0.56007
 Alpha  occ. eigenvalues --   -0.55556  -0.55240  -0.55194  -0.54901  -0.54786
 Alpha  occ. eigenvalues --   -0.54594  -0.54474  -0.54177  -0.54123  -0.54048
 Alpha  occ. eigenvalues --   -0.53966  -0.53816  -0.53442  -0.53373  -0.53076
 Alpha  occ. eigenvalues --   -0.52691  -0.52351  -0.52226  -0.52016  -0.52002
 Alpha  occ. eigenvalues --   -0.51963  -0.51819  -0.51720  -0.51654  -0.51388
 Alpha  occ. eigenvalues --   -0.51312  -0.51177  -0.50966  -0.50935  -0.50840
 Alpha  occ. eigenvalues --   -0.50825  -0.50665  -0.50416  -0.50113  -0.50111
 Alpha  occ. eigenvalues --   -0.49897  -0.49848  -0.49651  -0.49496  -0.49487
 Alpha  occ. eigenvalues --   -0.49040  -0.48578  -0.48544  -0.48325  -0.48231
 Alpha  occ. eigenvalues --   -0.48115  -0.47885  -0.47744  -0.47633  -0.47504
 Alpha  occ. eigenvalues --   -0.47239  -0.47114  -0.47057  -0.46909  -0.46864
 Alpha  occ. eigenvalues --   -0.46698  -0.46656  -0.46601  -0.46324  -0.46167
 Alpha  occ. eigenvalues --   -0.46097  -0.45632  -0.45604  -0.45452  -0.45334
 Alpha  occ. eigenvalues --   -0.45200  -0.45096  -0.44980  -0.44884  -0.44838
 Alpha  occ. eigenvalues --   -0.44382  -0.44335  -0.44289  -0.43941  -0.43733
 Alpha  occ. eigenvalues --   -0.43366  -0.43348  -0.43218  -0.43085  -0.43077
 Alpha  occ. eigenvalues --   -0.42807  -0.42789  -0.42706  -0.42438  -0.42266
 Alpha  occ. eigenvalues --   -0.42170  -0.41963  -0.41922  -0.40912  -0.40677
 Alpha  occ. eigenvalues --   -0.40436  -0.39901  -0.39716  -0.39456  -0.39287
 Alpha  occ. eigenvalues --   -0.38975  -0.38649  -0.38427  -0.38358  -0.38154
 Alpha  occ. eigenvalues --   -0.37959  -0.37921  -0.36016  -0.35727  -0.35607
 Alpha  occ. eigenvalues --   -0.35253  -0.35169  -0.34972  -0.34148  -0.33789
 Alpha  occ. eigenvalues --   -0.33457  -0.33453  -0.32981  -0.32456  -0.32348
 Alpha  occ. eigenvalues --   -0.31995  -0.31991  -0.31720  -0.25832  -0.25646
 Alpha  occ. eigenvalues --   -0.23651  -0.23073
 Alpha virt. eigenvalues --   -0.07602  -0.07240   0.00713   0.01397   0.02768
 Alpha virt. eigenvalues --    0.02854   0.04517   0.04803   0.05284   0.06416
 Alpha virt. eigenvalues --    0.06499   0.07523   0.08108   0.08453   0.08738

 Mulliken charges:
               1
     1  Mg   0.973636
     2  C   -0.021636
     3  C   -0.054346
     4  C   -0.053486
     5  C   -0.110154
     6  N   -0.302049
     7  C   -0.006999
     8  C   -0.073398
     9  C   -0.132895
    10  C    0.070474
    11  C    0.036815
    12  C    0.034172
    13  C   -0.096278
    14  H    0.049348
    15  N   -0.460819
    16  C    0.091833
    17  C   -0.147216
    18  C   -0.078504
    19  C    0.134523
    20  C    0.063173
    21  C    0.052186
    22  O   -0.201124
    23  C   -0.020942
    24  N   -0.271150
    25  C    0.014913
    26  C   -0.095583
    27  C   -0.044669
    28  C    0.058082
    29  C    0.023186
    30  C   -0.029475
    31  C   -0.028143
    32  N   -0.485284
    33  C    0.125648
    34  C   -0.224837
    35  C   -0.055742
    36  C    0.152293
    37  C    0.077692
    38  C    0.162472
    39  O   -0.175738
    40  C   -0.082829
    41  C    0.266770
    42  O   -0.273649
    43  O   -0.389798
    44  C    0.157562
    45  H   -0.025485
    46  H    0.021396
    47  H    0.000173
    48  H    0.020727
    49  H    0.035218
    50  H    0.042233
    51  H    0.027983
    52  H    0.045495
    53  H    0.025190
    54  H    0.073300
    55  H    0.043890
    56  H    0.037491
    57  H    0.048727
    58  H    0.053878
    59  H    0.042398
    60  H    0.049948
    61  H    0.043170
    62  H    0.056500
    63  H    0.045979
    64  H    0.032012
    65  H    0.049370
    66  H    0.037950
    67  H    0.032289
    68  H    0.020376
    69  H    0.014556
    70  H    0.040524
    71  H    0.035100
    72  H    0.038634
    73  H    0.028649
    74  H    0.053491
    75  H    0.060555
    76  H    0.080624
    77  H    0.044137
    78  H    0.072556
    79  H    0.042930
    80  Mg   0.991923
    81  C   -0.044604
    82  C   -0.104951
    83  C   -0.051825
    84  C   -0.104406
    85  N   -0.349705
    86  C   -0.028632
    87  C   -0.021365
    88  C   -0.162751
    89  C    0.116123
    90  C    0.005803
    91  C    0.038015
    92  C   -0.145701
    93  H    0.028277
    94  N   -0.425685
    95  C    0.160264
    96  C   -0.174690
    97  C   -0.074156
    98  C    0.171651
    99  C    0.066092
   100  C    0.038094
   101  O   -0.260978
   102  C    0.004449
   103  N   -0.396140
   104  C    0.027787
   105  C   -0.070103
   106  C   -0.075849
   107  C    0.086886
   108  C    0.029278
   109  C   -0.031122
   110  C   -0.058046
   111  N   -0.469955
   112  C    0.131763
   113  C   -0.134976
   114  C   -0.038059
   115  C    0.194987
   116  C    0.072603
   117  C    0.095767
   118  O   -0.220147
   119  C   -0.078326
   120  C    0.235509
   121  O   -0.251491
   122  O   -0.328154
   123  C    0.135980
   124  H   -0.000875
   125  H    0.021540
   126  H   -0.005243
   127  H    0.033040
   128  H    0.043204
   129  H    0.043539
   130  H    0.040881
   131  H    0.035993
   132  H    0.039576
   133  H    0.029831
   134  H    0.062973
   135  H    0.056235
   136  H    0.042913
   137  H    0.059229
   138  H    0.058190
   139  H    0.055475
   140  H    0.067335
   141  H    0.047567
   142  H    0.038100
   143  H    0.027051
   144  H    0.040100
   145  H    0.027135
   146  H    0.056383
   147  H    0.028746
   148  H    0.032674
   149  H    0.037427
   150  H    0.047861
   151  H    0.028530
   152  H    0.045561
   153  H    0.055072
   154  H    0.044997
   155  H    0.065233
   156  H    0.042496
   157  H    0.055201
   158  H    0.066597
 Sum of Mulliken charges =  -0.00000

 Dipole moment (field-independent basis, Debye):
    X=             -9.2991    Y=             -0.9215    Z=              3.8678  Tot=             10.1135
 Quadrupole moment (field-independent basis, Debye-Ang):
   XX=           -507.2379   YY=           -457.9427   ZZ=           -515.9916
   XY=             52.3376   XZ=            -12.3936   YZ=             -8.8245

 Normal termination of Gaussian 16 at Sun Sep 19 14:19:41 2021.
