 Gaussian 16, Revision A.03,
 Gaussian 16:  ES64L-G16RevA.03 25-Dec-2016

 --------------------------------
 #p wB97XD/Def2SVP td=(nstates=5)
 --------------------------------

 --------------------------------
 TDDFT excited states in gaussian
 --------------------------------
 Symbolic Z-matrix:
 Charge =  0 Multiplicity = 1

                         Standard orientation:
 ---------------------------------------------------------------------
 Center     Atomic      Atomic             Coordinates (Angstroms)
 Number     Number       Type             X           Y           Z
 ---------------------------------------------------------------------
      1         12           0      -25.157822   -0.649880   -0.385420
      2          6           0      -25.463296    2.107730    1.714933
      3          6           0      -25.051827    1.384644   -3.068870
      4          6           0      -25.320964   -3.392900   -2.353846
      5          6           0      -25.762827   -2.661144    2.349278
      6          7           0      -25.270572    1.551520   -0.614517
      7          6           0      -25.182007    2.471977    0.398631
      8          6           0      -25.061243    3.840234   -0.156344
      9          6           0      -24.981412    3.686626   -1.679629
     10          6           0      -25.085317    2.111480   -1.864185
     11          6           0      -25.942122    4.480312   -2.551413
     12          6           0      -23.798509    4.641074    0.499596
     13          6           0      -24.102312    5.927369    1.302971
     14          1           0      -23.205868    7.136445    1.196090
     15          7           0      -25.061599   -0.971018   -2.413682
     16          6           0      -25.035514    0.013187   -3.390361
     17          6           0      -25.045975   -0.589963   -4.673304
     18          6           0      -25.129470   -1.997841   -4.497491
     19          6           0      -25.153979   -2.174297   -3.041850
     20          6           0      -24.848600    0.335201   -5.937248
     21          6           0      -25.250459   -3.021791   -5.624769
     22          8           0      -25.401778   -4.243341   -5.472023
     23          6           0      -25.104189   -2.587123   -7.016601
     24          7           0      -25.735809   -2.738210   -0.131326
     25          6           0      -25.614963   -3.678755   -1.045229
     26          6           0      -26.057290   -5.051147   -0.489339
     27          6           0      -25.683800   -4.792404    1.023402
     28          6           0      -25.699543   -3.269252    1.104730
     29          6           0      -27.552031   -5.526302   -0.616791
     30          6           0      -24.294596   -5.400715    1.544456
     31          6           0      -23.052599   -4.967988    0.879431
     32          7           0      -25.600337   -0.418250    1.704087
     33          6           0      -25.814900   -1.362541    2.727157
     34          6           0      -26.036356   -0.679865    3.961938
     35          6           0      -25.979708    0.659420    3.631279
     36          6           0      -25.602726    0.764048    2.252314
     37          6           0      -26.514880   -1.268114    5.197927
     38          6           0      -25.918143    1.933326    4.176066
     39          8           0      -26.066653    2.340898    5.332728
     40          6           0      -25.682158    2.964541    2.980293
     41          6           0      -26.965931    3.714679    2.845108
     42          8           0      -28.097823    3.345018    2.612921
     43          8           0      -26.645476    4.989304    3.074687
     44          6           0      -27.767459    5.978696    2.969088
     45          1           0      -24.801527    2.134776   -3.821901
     46          1           0      -25.212505   -4.253356   -3.016344
     47          1           0      -25.887318   -3.313449    3.215901
     48          1           0      -25.986371    4.337992    0.131643
     49          1           0      -23.975620    3.948115   -2.007682
     50          1           0      -26.690437    3.694374   -2.646486
     51          1           0      -25.527128    4.868894   -3.481575
     52          1           0      -26.445171    5.356363   -2.142955
     53          1           0      -23.082439    4.867985   -0.289695
     54          1           0      -23.272457    4.073907    1.267922
     55          1           0      -24.007827    5.651798    2.353719
     56          1           0      -25.141757    6.236829    1.202352
     57          1           0      -25.654993    0.131383   -6.641472
     58          1           0      -23.933397   -0.134845   -6.297399
     59          1           0      -24.896769    1.415736   -5.801882
     60          1           0      -25.833407   -1.817265   -7.265078
     61          1           0      -25.490467   -3.408700   -7.619378
     62          1           0      -24.086558   -2.346264   -7.325103
     63          1           0      -25.320024   -5.794095   -0.793912
     64          1           0      -26.484444   -5.289723    1.570372
     65          1           0      -28.308079   -4.758099   -0.458951
     66          1           0      -27.605077   -6.320955    0.128265
     67          1           0      -27.742139   -5.939111   -1.607876
     68          1           0      -24.246302   -6.487608    1.473507
     69          1           0      -24.046086   -5.021481    2.535638
     70          1           0      -22.842191   -4.009957    1.352763
     71          1           0      -23.057520   -4.788732   -0.196149
     72          1           0      -22.151390   -5.563055    1.023445
     73          1           0      -27.594144   -1.324978    5.051372
     74          1           0      -26.309035   -0.694571    6.101224
     75          1           0      -26.043584   -2.222524    5.435164
     76          1           0      -24.801294    3.591907    3.117068
     77          1           0      -27.580749    6.496089    2.027788
     78          1           0      -27.758880    6.637392    3.837209
     79          1           0      -28.779406    5.582230    2.881500
     80         12           0       25.048251   -0.683170    0.372328
     81          6           0       25.822279    1.996446   -1.907877
     82          6           0       23.961079    1.565232    2.590107
     83          6           0       25.206063   -3.106966    2.681236
     84          6           0       26.660410   -2.827410   -1.887635
     85          7           0       24.969048    1.490495    0.345514
     86          6           0       25.143883    2.377680   -0.730230
     87          6           0       24.610964    3.818840   -0.378642
     88          6           0       24.092730    3.638002    1.080226
     89          6           0       24.298233    2.123587    1.349874
     90          6           0       24.724084    4.492347    2.150034
     91          6           0       23.519444    4.362553   -1.447375
     92          6           0       23.818846    5.744123   -2.042165
     93          1           0       22.683899    6.806311   -1.795164
     94          7           0       24.503854   -0.790601    2.341588
     95          6           0       24.084950    0.226754    3.100991
     96          6           0       23.823077   -0.199751    4.476714
     97          6           0       24.287937   -1.559893    4.506059
     98          6           0       24.713644   -1.886072    3.140971
     99          6           0       23.257976    0.683835    5.504412
    100          6           0       24.388532   -2.414148    5.808729
    101          8           0       24.726126   -3.585969    5.788556
    102          6           0       24.056762   -1.869855    7.161522
    103          7           0       25.800059   -2.614810    0.371815
    104          6           0       25.626515   -3.482064    1.445099
    105          6           0       26.133829   -4.918918    1.092588
    106          6           0       26.260495   -4.867492   -0.475736
    107          6           0       26.185315   -3.358688   -0.708591
    108          6           0       27.361339   -5.474835    1.885423
    109          6           0       25.126944   -5.614544   -1.230488
    110          6           0       25.477676   -6.403229   -2.466886
    111          7           0       26.090956   -0.486845   -1.490223
    112          6           0       26.679417   -1.443778   -2.267371
    113          6           0       27.107030   -0.803476   -3.587215
    114          6           0       26.745195    0.519479   -3.506019
    115          6           0       26.196145    0.681544   -2.187860
    116          6           0       27.692337   -1.600930   -4.730424
    117          6           0       26.734811    1.817878   -4.156059
    118          8           0       27.175405    2.028341   -5.305443
    119          6           0       26.192072    2.917208   -3.062061
    120          6           0       27.226261    3.927072   -2.610204
    121          8           0       28.324744    3.555261   -2.152006
    122          8           0       26.873030    5.237132   -2.936370
    123          6           0       28.014094    6.144235   -2.895223
    124          1           0       23.491817    2.227945    3.319930
    125          1           0       25.162180   -3.852382    3.477612
    126          1           0       27.037636   -3.575969   -2.588170
    127          1           0       25.513029    4.425641   -0.454721
    128          1           0       23.080399    4.044039    1.062546
    129          1           0       25.528132    5.125767    1.775113
    130          1           0       25.232790    3.713958    2.717733
    131          1           0       24.011853    5.141414    2.660375
    132          1           0       22.595762    4.353807   -0.869394
    133          1           0       23.369341    3.604714   -2.215843
    134          1           0       24.043072    5.585728   -3.097026
    135          1           0       24.716393    6.148360   -1.572338
    136          1           0       23.788134    0.840836    6.443246
    137          1           0       22.412269    0.124859    5.903325
    138          1           0       22.783420    1.592486    5.133290
    139          1           0       23.006170   -1.583518    7.099827
    140          1           0       24.632653   -0.950991    7.275203
    141          1           0       24.304181   -2.663178    7.865764
    142          1           0       25.287433   -5.557312    1.346014
    143          1           0       27.245788   -5.167206   -0.831988
    144          1           0       27.536130   -4.729015    2.660527
    145          1           0       28.234067   -5.688002    1.268826
    146          1           0       27.101523   -6.348146    2.484970
    147          1           0       24.519702   -4.743148   -1.474739
    148          1           0       24.511540   -6.263087   -0.606639
    149          1           0       24.913949   -7.332937   -2.388840
    150          1           0       26.532827   -6.673801   -2.517760
    151          1           0       25.018129   -5.870081   -3.299521
    152          1           0       27.766873   -2.634983   -4.394344
    153          1           0       28.716341   -1.263189   -4.888375
    154          1           0       27.098097   -1.440712   -5.629814
    155          1           0       25.301472    3.394294   -3.471120
    156          1           0       28.343734    6.522559   -3.861859
    157          1           0       28.889828    5.736343   -2.390229
    158          1           0       27.697255    6.999619   -2.299092
 ---------------------------------------------------------------------

 SCF Done:  E(RwB97XD) =  -4070.57484311     A.U. after   19 cycles

 Excitation energies and oscillator strengths:

 Excited State   1:      Singlet-A      1.6412 eV  755.46 nm  f=0.3757  <S**2>=0.000
     309 -> 316       -0.17840
     312 -> 314        0.68498
     309 <- 316       -0.11658
 This state for optimization and/or second-order correction.
 Total Energy, E(TD-HF/TD-DFT) =  -4070.51453137
 Copying the excited state density for this state as the 1-particle RhoCI density.

 Excited State   2:      Singlet-A      1.6463 eV  753.11 nm  f=0.4109  <S**2>=0.000
     310 -> 315       -0.18108
     311 -> 313        0.68277
     310 <- 315       -0.11539

 Excited State   3:      Singlet-A      2.1205 eV  584.70 nm  f=0.1343  <S**2>=0.000
     310 -> 313        0.64941
     311 -> 315        0.26635

 Excited State   4:      Singlet-A      2.2310 eV  555.74 nm  f=0.0893  <S**2>=0.000
     309 -> 314        0.62833
     312 -> 316        0.31483

 Excited State   5:      Singlet-A      3.3232 eV  373.09 nm  f=0.0023  <S**2>=0.000
     306 -> 313       -0.37106
     306 -> 318        0.23953
     306 -> 320        0.16356
     307 -> 313        0.45668
     307 -> 318       -0.15066

 The electronic state is 1-A.
 Alpha  occ. eigenvalues --  -46.95705 -46.94759 -19.31952 -19.30302 -19.25836
 Alpha  occ. eigenvalues --  -19.25083 -19.24057 -19.23727 -19.23542 -19.23341
 Alpha  occ. eigenvalues --  -14.47201 -14.46609 -14.46452 -14.46266 -14.44340
 Alpha  occ. eigenvalues --  -14.44320 -14.43947 -14.43605 -10.44736 -10.42482
 Alpha  occ. eigenvalues --  -10.40627 -10.39066 -10.38872 -10.38226 -10.35685
 Alpha  occ. eigenvalues --  -10.35501 -10.35500 -10.35497 -10.35265 -10.34976
 Alpha  occ. eigenvalues --  -10.34753 -10.34659 -10.34374 -10.34329 -10.34131
 Alpha  occ. eigenvalues --  -10.34131 -10.34057 -10.33845 -10.33782 -10.33496
 Alpha  occ. eigenvalues --  -10.33200 -10.33152 -10.33076 -10.33032 -10.33029
 Alpha  occ. eigenvalues --  -10.32836 -10.32662 -10.32638 -10.32603 -10.32354
 Alpha  occ. eigenvalues --  -10.32321 -10.32317 -10.32195 -10.32035 -10.31982
 Alpha  occ. eigenvalues --  -10.31875 -10.31756 -10.31630 -10.31573 -10.31517
 Alpha  occ. eigenvalues --  -10.31503 -10.31492 -10.31431 -10.31307 -10.31281
 Alpha  occ. eigenvalues --  -10.31221 -10.31026 -10.31010 -10.30565 -10.30560
 Alpha  occ. eigenvalues --  -10.30351 -10.30345 -10.30143 -10.30066 -10.30009
 Alpha  occ. eigenvalues --  -10.29957 -10.29881 -10.29855 -10.29837 -10.29477
 Alpha  occ. eigenvalues --  -10.29377 -10.29355 -10.29254 -10.29219 -10.28732
 Alpha  occ. eigenvalues --  -10.28573  -3.21569  -3.20832  -1.95159  -1.94667
 Alpha  occ. eigenvalues --   -1.94554  -1.94405  -1.93942  -1.93833  -1.19220
 Alpha  occ. eigenvalues --   -1.18547  -1.12300  -1.11363  -1.11360  -1.10852
 Alpha  occ. eigenvalues --   -1.10188  -1.09588  -1.07461  -1.06335  -1.05942
 Alpha  occ. eigenvalues --   -1.05430  -1.05346  -1.04686  -1.04651  -1.03927
 Alpha  occ. eigenvalues --   -0.94654  -0.94227  -0.91153  -0.91010  -0.90648
 Alpha  occ. eigenvalues --   -0.90622  -0.90346  -0.89937  -0.89916  -0.89556
 Alpha  occ. eigenvalues --   -0.89303  -0.89152  -0.88837  -0.88094  -0.86597
 Alpha  occ. eigenvalues --   -0.86210  -0.86181  -0.85572  -0.85019  -0.84635
 Alpha  occ. eigenvalues --   -0.83966  -0.83849  -0.83543  -0.83181  -0.82730
 Alpha  occ. eigenvalues --   -0.82211  -0.80744  -0.80398  -0.79628  -0.79553
 Alpha  occ. eigenvalues --   -0.79338  -0.78892  -0.78160  -0.77924  -0.77324
 Alpha  occ. eigenvalues --   -0.76667  -0.75510  -0.74474  -0.73692  -0.72965
 Alpha  occ. eigenvalues --   -0.71371  -0.71071  -0.71029  -0.70350  -0.69854
 Alpha  occ. eigenvalues --   -0.69762  -0.69199  -0.68695  -0.67760  -0.67409
 Alpha  occ. eigenvalues --   -0.67280  -0.66958  -0.66916  -0.66807  -0.66377
 Alpha  occ. eigenvalues --   -0.65986  -0.64612  -0.64079  -0.62456  -0.62268
 Alpha  occ. eigenvalues --   -0.61944  -0.61768  -0.61339  -0.60905  -0.60628
 Alpha  occ. eigenvalues --   -0.60519  -0.60360  -0.60280  -0.59922  -0.59335
 Alpha  occ. eigenvalues --   -0.58451  -0.58267  -0.57724  -0.57508  -0.57424
 Alpha  occ. eigenvalues --   -0.57071  -0.57023  -0.56870  -0.56801  -0.56673
 Alpha  occ. eigenvalues --   -0.55722  -0.55462  -0.55324  -0.55195  -0.55131
 Alpha  occ. eigenvalues --   -0.54976  -0.54675  -0.54556  -0.54373  -0.54168
 Alpha  occ. eigenvalues --   -0.53877  -0.53777  -0.53563  -0.53463  -0.53199
 Alpha  occ. eigenvalues --   -0.53152  -0.53080  -0.53049  -0.52792  -0.52359
 Alpha  occ. eigenvalues --   -0.52199  -0.51757  -0.51690  -0.51577  -0.51416
 Alpha  occ. eigenvalues --   -0.51356  -0.51161  -0.51084  -0.50990  -0.50743
 Alpha  occ. eigenvalues --   -0.50586  -0.50470  -0.50307  -0.50277  -0.50095
 Alpha  occ. eigenvalues --   -0.50057  -0.49884  -0.49341  -0.49200  -0.49129
 Alpha  occ. eigenvalues --   -0.48943  -0.48792  -0.48701  -0.48640  -0.48443
 Alpha  occ. eigenvalues --   -0.48206  -0.47973  -0.47944  -0.47906  -0.47787
 Alpha  occ. eigenvalues --   -0.47615  -0.47338  -0.47206  -0.46592  -0.46519
 Alpha  occ. eigenvalues --   -0.46421  -0.46336  -0.46110  -0.46090  -0.46061
 Alpha  occ. eigenvalues --   -0.45964  -0.45734  -0.45651  -0.45571  -0.45324
 Alpha  occ. eigenvalues --   -0.45176  -0.45167  -0.44971  -0.44958  -0.44833
 Alpha  occ. eigenvalues --   -0.44615  -0.44495  -0.44173  -0.44090  -0.43775
 Alpha  occ. eigenvalues --   -0.43740  -0.43649  -0.43645  -0.43050  -0.43041
 Alpha  occ. eigenvalues --   -0.42867  -0.42701  -0.42672  -0.42473  -0.42115
 Alpha  occ. eigenvalues --   -0.42109  -0.41442  -0.41433  -0.41044  -0.40880
 Alpha  occ. eigenvalues --   -0.40222  -0.40067  -0.40005  -0.39761  -0.39667
 Alpha  occ. eigenvalues --   -0.39504  -0.39447  -0.39112  -0.38517  -0.38459
 Alpha  occ. eigenvalues --   -0.38079  -0.38051  -0.37101  -0.36502  -0.36451
 Alpha  occ. eigenvalues --   -0.36280  -0.35774  -0.35176  -0.33724  -0.33715
 Alpha  occ. eigenvalues --   -0.33526  -0.33000  -0.32738  -0.32624  -0.32590
 Alpha  occ. eigenvalues --   -0.32538  -0.32179  -0.31953  -0.26112  -0.25961
 Alpha  occ. eigenvalues --   -0.23286  -0.22593
 Alpha virt. eigenvalues --   -0.07372  -0.06781   0.00259   0.00578   0.01960
 Alpha virt. eigenvalues --    0.02303   0.04271   0.04322   0.04869   0.05100
 Alpha virt. eigenvalues --    0.05268   0.06983   0.07716   0.07998   0.08592

 Mulliken charges:
               1
     1  Mg   0.938908
     2  C   -0.014656
     3  C   -0.073711
     4  C   -0.062231
     5  C   -0.108089
     6  N   -0.378524
     7  C    0.014395
     8  C   -0.066691
     9  C   -0.052582
    10  C   -0.019136
    11  C    0.003418
    12  C    0.003982
    13  C   -0.135931
    14  H    0.038445
    15  N   -0.463592
    16  C    0.198218
    17  C   -0.182595
    18  C   -0.073531
    19  C    0.131150
    20  C    0.083075
    21  C    0.052661
    22  O   -0.248042
    23  C   -0.009968
    24  N   -0.296249
    25  C    0.020070
    26  C   -0.042585
    27  C   -0.112739
    28  C    0.095832
    29  C    0.041917
    30  C    0.013776
    31  C   -0.088527
    32  N   -0.408823
    33  C    0.114810
    34  C   -0.133396
    35  C    0.022732
    36  C    0.108508
    37  C    0.062405
    38  C    0.079777
    39  O   -0.226678
    40  C   -0.091734
    41  C    0.269335
    42  O   -0.244548
    43  O   -0.346885
    44  C    0.120677
    45  H   -0.007343
    46  H    0.014678
    47  H   -0.002403
    48  H    0.047197
    49  H    0.033934
    50  H    0.048103
    51  H    0.042009
    52  H    0.040863
    53  H    0.041732
    54  H    0.042504
    55  H    0.057987
    56  H    0.038152
    57  H    0.037965
    58  H    0.060504
    59  H    0.052905
    60  H    0.039060
    61  H    0.045929
    62  H    0.075405
    63  H    0.019754
    64  H    0.023025
    65  H    0.050116
    66  H    0.040575
    67  H    0.051593
    68  H    0.036083
    69  H    0.028690
    70  H    0.022175
    71  H    0.034920
    72  H    0.039557
    73  H    0.074349
    74  H    0.055803
    75  H    0.035987
    76  H    0.056721
    77  H    0.046824
    78  H    0.068340
    79  H    0.073664
    80  Mg   0.976093
    81  C   -0.099785
    82  C   -0.080656
    83  C   -0.088209
    84  C   -0.101324
    85  N   -0.370320
    86  C   -0.011440
    87  C   -0.072419
    88  C   -0.107085
    89  C    0.104473
    90  C    0.024226
    91  C    0.006804
    92  C   -0.108924
    93  H    0.027714
    94  N   -0.454508
    95  C    0.113943
    96  C   -0.149499
    97  C   -0.076257
    98  C    0.118083
    99  C    0.069296
   100  C    0.031533
   101  O   -0.238337
   102  C    0.011800
   103  N   -0.401134
   104  C    0.093415
   105  C   -0.058234
   106  C   -0.103703
   107  C    0.063950
   108  C    0.035216
   109  C   -0.016661
   110  C   -0.026197
   111  N   -0.388614
   112  C    0.148996
   113  C   -0.228881
   114  C    0.015788
   115  C    0.154300
   116  C    0.098511
   117  C    0.146781
   118  O   -0.221205
   119  C   -0.037366
   120  C    0.292852
   121  O   -0.256282
   122  O   -0.367190
   123  C    0.121093
   124  H   -0.014021
   125  H    0.016158
   126  H   -0.003789
   127  H    0.041630
   128  H    0.034173
   129  H    0.028909
   130  H    0.041586
   131  H    0.042991
   132  H    0.031969
   133  H    0.037928
   134  H    0.064363
   135  H    0.054533
   136  H    0.046849
   137  H    0.028293
   138  H    0.042600
   139  H    0.049408
   140  H    0.052076
   141  H    0.067749
   142  H    0.030977
   143  H    0.029194
   144  H    0.038581
   145  H    0.045344
   146  H    0.035507
   147  H    0.029332
   148  H    0.034945
   149  H    0.028930
   150  H    0.041860
   151  H    0.043804
   152  H    0.023026
   153  H    0.059035
   154  H    0.067085
   155  H    0.058182
   156  H    0.063449
   157  H    0.072075
   158  H    0.044628
 Sum of Mulliken charges =  -0.00000

 Dipole moment (field-independent basis, Debye):
    X=             -1.1542    Y=              2.1113    Z=             -1.4784  Tot=              2.8241
 Quadrupole moment (field-independent basis, Debye-Ang):
   XX=           -780.2242   YY=           -466.0050   ZZ=           -532.4205
   XY=             -7.6489   XZ=            114.5631   YZ=             -8.6486

 Normal termination of Gaussian 16 at Sat Sep 18 20:42:52 2021.
