 Gaussian 16, Revision A.03,
 Gaussian 16:  ES64L-G16RevA.03 25-Dec-2016

 --------------------------------
 #p wB97XD/Def2SVP td=(nstates=5)
 --------------------------------

 --------------------------------
 TDDFT excited states in gaussian
 --------------------------------
 Symbolic Z-matrix:
 Charge =  0 Multiplicity = 1

                         Standard orientation:
 ---------------------------------------------------------------------
 Center     Atomic      Atomic             Coordinates (Angstroms)
 Number     Number       Type             X           Y           Z
 ---------------------------------------------------------------------
      1         12           0       -8.737739   -0.464623   -0.197855
      2          6           0       -7.073182    2.497834    0.937012
      3          6           0      -11.015651    1.701308   -1.798925
      4          6           0      -10.763986   -2.980302   -0.717320
      5          6           0       -6.632548   -2.326126    1.716680
      6          7           0       -8.949900    1.827990   -0.426619
      7          6           0       -8.072235    2.742894    0.050824
      8          6           0       -8.439193    4.106515   -0.511063
      9          6           0       -9.683819    3.929924   -1.425877
     10          6           0       -9.893940    2.413662   -1.249864
     11          6           0      -10.950697    4.863853   -0.995951
     12          6           0       -7.255892    4.769471   -1.338175
     13          6           0       -6.930886    6.228784   -1.017672
     14          1           0       -8.066160    7.240008   -0.582446
     15          7           0      -10.673399   -0.608818   -1.093485
     16          6           0      -11.365931    0.345501   -1.678326
     17          6           0      -12.587145   -0.240981   -2.153852
     18          6           0      -12.534118   -1.650686   -2.010539
     19          6           0      -11.332500   -1.791373   -1.230503
     20          6           0      -13.606657    0.535394   -2.985716
     21          6           0      -13.364140   -2.805992   -2.547864
     22          8           0      -13.169305   -3.965296   -2.231523
     23          6           0      -14.420208   -2.447984   -3.557068
     24          7           0       -8.870679   -2.293354    0.715904
     25          6           0       -9.709982   -3.257087    0.153867
     26          6           0       -9.319083   -4.708087    0.545401
     27          6           0       -7.905342   -4.423864    1.179365
     28          6           0       -7.774382   -2.901176    1.210902
     29          6           0      -10.366334   -5.322195    1.485664
     30          6           0       -6.686849   -4.988766    0.306762
     31          6           0       -5.973703   -6.208359    0.786369
     32          7           0       -7.133027   -0.062547    0.958245
     33          6           0       -6.385971   -0.941297    1.712598
     34          6           0       -5.392450   -0.269510    2.546188
     35          6           0       -5.619345    1.125930    2.269705
     36          6           0       -6.745205    1.193950    1.415485
     37          6           0       -4.307509   -0.969423    3.281690
     38          6           0       -5.123898    2.477296    2.481563
     39          8           0       -4.134875    2.817252    3.156164
     40          6           0       -6.094041    3.471732    1.622889
     41          6           0       -6.711397    4.337004    2.615523
     42          8           0       -7.348505    3.928569    3.561683
     43          8           0       -6.495645    5.629200    2.342303
     44          6           0       -6.974912    6.726564    3.239993
     45          1           0      -11.707880    2.319537   -2.374158
     46          1           0      -11.123030   -3.904495   -1.176360
     47          1           0       -5.929812   -2.970989    2.247933
     48          1           0       -8.719660    4.734257    0.334752
     49          1           0       -9.492552    4.267411   -2.444655
     50          1           0      -10.618538    5.726262   -0.417923
     51          1           0      -11.600946    4.202033   -0.423287
     52          1           0      -11.484675    5.190815   -1.888026
     53          1           0       -7.343015    4.682699   -2.420352
     54          1           0       -6.327715    4.242102   -1.118350
     55          1           0       -6.406966    6.713822   -1.841561
     56          1           0       -6.180222    6.137758   -0.232605
     57          1           0      -13.501872    0.398431   -4.062117
     58          1           0      -13.648166    1.585165   -2.693709
     59          1           0      -14.584890    0.157967   -2.688734
     60          1           0      -14.124030   -1.701995   -4.295166
     61          1           0      -15.351654   -2.076622   -3.132039
     62          1           0      -14.566392   -3.294385   -4.228190
     63          1           0       -9.271132   -5.289042   -0.375224
     64          1           0       -7.885367   -4.882799    2.167926
     65          1           0      -11.283505   -4.741255    1.581660
     66          1           0       -9.987478   -5.416138    2.502773
     67          1           0      -10.618809   -6.323470    1.135120
     68          1           0       -5.870853   -4.283392    0.149705
     69          1           0       -6.967532   -5.183409   -0.727682
     70          1           0       -6.103814   -7.024115    0.076381
     71          1           0       -6.468948   -6.423104    1.733503
     72          1           0       -4.907083   -6.010319    0.891783
     73          1           0       -3.392358   -0.378461    3.296189
     74          1           0       -4.231434   -1.962267    2.838705
     75          1           0       -4.654558   -1.085903    4.309290
     76          1           0       -5.527377    4.082023    0.920945
     77          1           0       -6.670093    6.513759    4.264808
     78          1           0       -8.060005    6.832366    3.230816
     79          1           0       -6.679653    7.722464    2.910836
     80         12           0        8.322641   -1.023723   -0.462038
     81          6           0       10.136124    2.060588   -0.321728
     82          6           0        5.390381    0.742852   -0.188231
     83          6           0        6.561207   -3.885094   -0.118922
     84          6           0       11.367894   -2.659354    0.239747
     85          7           0        7.854280    1.143754   -0.290416
     86          6           0        8.719107    2.249034   -0.322119
     87          6           0        7.901463    3.515168   -0.315109
     88          6           0        6.503941    3.013054    0.244254
     89          6           0        6.595172    1.485519   -0.043067
     90          6           0        6.452482    3.340970    1.779078
     91          6           0        7.890635    4.281199   -1.684933
     92          6           0        8.065882    5.700103   -1.472121
     93          1           0        8.427150    6.546682   -2.794056
     94          7           0        6.227230   -1.418810   -0.368318
     95          6           0        5.200129   -0.563019   -0.305207
     96          6           0        3.971524   -1.293669   -0.364294
     97          6           0        4.266573   -2.640286   -0.326333
     98          6           0        5.799191   -2.735184   -0.322576
     99          6           0        2.580883   -0.592835   -0.245760
    100          6           0        3.308870   -3.847324   -0.398919
    101          8           0        3.762954   -4.960359   -0.315716
    102          6           0        1.834714   -3.649868   -0.662686
    103          7           0        8.893286   -2.952803    0.271504
    104          6           0        7.965684   -3.984198    0.174640
    105          6           0        8.636358   -5.313837    0.295806
    106          6           0       10.193006   -4.929222    0.390155
    107          6           0       10.178746   -3.427281    0.229646
    108          6           0        8.100619   -6.141214    1.415047
    109          6           0       11.209662   -5.655892   -0.650709
    110          6           0       12.291582   -6.495433   -0.095764
    111          7           0       10.368251   -0.485686   -0.153134
    112          6           0       11.453555   -1.286406    0.122904
    113          6           0       12.691826   -0.393301    0.166341
    114          6           0       12.239900    0.911429   -0.115926
    115          6           0       10.810866    0.809520   -0.250242
    116          6           0       14.109037   -0.886316    0.488806
    117          6           0       12.685011    2.271553   -0.153457
    118          8           0       13.834891    2.751971   -0.036060
    119          6           0       11.334289    3.097748   -0.118357
    120          6           0       11.510511    4.220676   -1.184323
    121          8           0       10.987059    4.118241   -2.308934
    122          8           0       12.196143    5.260210   -0.648558
    123          6           0       12.529455    6.233329   -1.744936
    124          1           0        4.456735    1.292759   -0.326422
    125          1           0        6.014256   -4.826283   -0.025112
    126          1           0       12.367906   -3.082278    0.355092
    127          1           0        8.328756    4.136962    0.471264
    128          1           0        5.669278    3.509618   -0.249307
    129          1           0        7.077371    2.686441    2.386195
    130          1           0        5.414036    3.319287    2.106882
    131          1           0        6.791841    4.366151    1.929011
    132          1           0        6.870114    4.213074   -2.062510
    133          1           0        8.583841    3.843609   -2.403713
    134          1           0        8.953741    5.901035   -0.872353
    135          1           0        7.144872    6.079372   -1.028720
    136          1           0        2.061349   -0.934706   -1.140876
    137          1           0        2.611368    0.496273   -0.273814
    138          1           0        2.103768   -0.873907    0.693007
    139          1           0        1.303562   -4.599455   -0.596442
    140          1           0        1.943388   -3.269154   -1.678192
    141          1           0        1.457703   -2.920502    0.054185
    142          1           0        8.420498   -5.774680   -0.668288
    143          1           0       10.518708   -5.203926    1.393118
    144          1           0        7.563593   -6.949043    0.919554
    145          1           0        7.336850   -5.626596    1.997880
    146          1           0        8.843541   -6.521899    2.116312
    147          1           0       11.705064   -4.801678   -1.112143
    148          1           0       10.605375   -6.154566   -1.407335
    149          1           0       13.271936   -6.086500   -0.338877
    150          1           0       12.122545   -7.355129   -0.743286
    151          1           0       12.122218   -6.787112    0.941638
    152          1           0       14.233897   -0.736910    1.560691
    153          1           0       14.877351   -0.330322   -0.048386
    154          1           0       14.202044   -1.925659    0.173728
    155          1           0       11.313943    3.489348    0.897748
    156          1           0       13.322590    5.910854   -2.419310
    157          1           0       12.787749    7.235010   -1.402934
    158          1           0       11.597513    6.386369   -2.289515
 ---------------------------------------------------------------------

 SCF Done:  E(RwB97XD) =  -4070.57212773     A.U. after   19 cycles

 Excitation energies and oscillator strengths:

 Excited State   1:      Singlet-A      1.6207 eV  765.01 nm  f=0.5474  <S**2>=0.000
     310 -> 316        0.17488
     311 -> 313        0.67165
     312 -> 314        0.13321
     310 <- 316        0.11411
 This state for optimization and/or second-order correction.
 Total Energy, E(TD-HF/TD-DFT) =  -4070.51256857
 Copying the excited state density for this state as the 1-particle RhoCI density.

 Excited State   2:      Singlet-A      1.6791 eV  738.41 nm  f=0.2428  <S**2>=0.000
     309 -> 315       -0.18857
     311 -> 313       -0.13240
     312 -> 314        0.66705
     309 <- 315       -0.11325

 Excited State   3:      Singlet-A      2.1416 eV  578.94 nm  f=0.1225  <S**2>=0.000
     310 -> 313        0.64819
     311 -> 316       -0.26601

 Excited State   4:      Singlet-A      2.2166 eV  559.35 nm  f=0.0064  <S**2>=0.000
     309 -> 314        0.55061
     312 -> 315        0.43344

 Excited State   5:      Singlet-A      3.1493 eV  393.69 nm  f=0.0000  <S**2>=0.000
     312 -> 313        0.70661

 The electronic state is 1-A.
 Alpha  occ. eigenvalues --  -46.95677 -46.95207 -19.31288 -19.30688 -19.24755
 Alpha  occ. eigenvalues --  -19.24624 -19.24490 -19.24379 -19.23690 -19.23677
 Alpha  occ. eigenvalues --  -14.46783 -14.46726 -14.46536 -14.46396 -14.44240
 Alpha  occ. eigenvalues --  -14.43892 -14.43892 -14.43635 -10.43488 -10.42541
 Alpha  occ. eigenvalues --  -10.39952 -10.39803 -10.39623 -10.38810 -10.36487
 Alpha  occ. eigenvalues --  -10.35620 -10.35345 -10.35320 -10.35272 -10.35209
 Alpha  occ. eigenvalues --  -10.35035 -10.34844 -10.34724 -10.34495 -10.34353
 Alpha  occ. eigenvalues --  -10.33925 -10.33837 -10.33439 -10.33271 -10.33031
 Alpha  occ. eigenvalues --  -10.32966 -10.32958 -10.32920 -10.32884 -10.32880
 Alpha  occ. eigenvalues --  -10.32682 -10.32570 -10.32509 -10.32483 -10.32406
 Alpha  occ. eigenvalues --  -10.32209 -10.32136 -10.32092 -10.32051 -10.32046
 Alpha  occ. eigenvalues --  -10.31956 -10.31901 -10.31898 -10.31884 -10.31388
 Alpha  occ. eigenvalues --  -10.31324 -10.31322 -10.31201 -10.30971 -10.30890
 Alpha  occ. eigenvalues --  -10.30819 -10.30809 -10.30511 -10.30487 -10.30418
 Alpha  occ. eigenvalues --  -10.30296 -10.30264 -10.30247 -10.30103 -10.29969
 Alpha  occ. eigenvalues --  -10.29950 -10.29893 -10.29851 -10.29727 -10.29702
 Alpha  occ. eigenvalues --  -10.29498 -10.29154 -10.29025 -10.28914 -10.28832
 Alpha  occ. eigenvalues --  -10.28757  -3.21480  -3.21272  -1.95059  -1.94827
 Alpha  occ. eigenvalues --   -1.94584  -1.94446  -1.94403  -1.94250  -1.18952
 Alpha  occ. eigenvalues --   -1.18133  -1.13941  -1.13259  -1.10968  -1.09961
 Alpha  occ. eigenvalues --   -1.09788  -1.09223  -1.06924  -1.06036  -1.05754
 Alpha  occ. eigenvalues --   -1.05376  -1.04969  -1.04599  -1.04164  -1.03334
 Alpha  occ. eigenvalues --   -0.94383  -0.93073  -0.90757  -0.90736  -0.90496
 Alpha  occ. eigenvalues --   -0.90378  -0.90196  -0.89970  -0.89403  -0.89291
 Alpha  occ. eigenvalues --   -0.89177  -0.89071  -0.88620  -0.87286  -0.86385
 Alpha  occ. eigenvalues --   -0.86233  -0.86184  -0.85577  -0.84786  -0.84497
 Alpha  occ. eigenvalues --   -0.84380  -0.83950  -0.83461  -0.82887  -0.82542
 Alpha  occ. eigenvalues --   -0.82296  -0.80458  -0.80098  -0.79827  -0.79384
 Alpha  occ. eigenvalues --   -0.79034  -0.78398  -0.78342  -0.77285  -0.77012
 Alpha  occ. eigenvalues --   -0.76776  -0.74728  -0.74053  -0.73628  -0.73320
 Alpha  occ. eigenvalues --   -0.70975  -0.70712  -0.69981  -0.69832  -0.69711
 Alpha  occ. eigenvalues --   -0.69323  -0.69152  -0.68219  -0.67697  -0.67325
 Alpha  occ. eigenvalues --   -0.66925  -0.66862  -0.66795  -0.66725  -0.66338
 Alpha  occ. eigenvalues --   -0.66196  -0.64640  -0.63953  -0.62715  -0.61872
 Alpha  occ. eigenvalues --   -0.61408  -0.61062  -0.60964  -0.60694  -0.60341
 Alpha  occ. eigenvalues --   -0.60280  -0.60121  -0.59701  -0.59299  -0.58947
 Alpha  occ. eigenvalues --   -0.58317  -0.57902  -0.57897  -0.57379  -0.57365
 Alpha  occ. eigenvalues --   -0.56948  -0.56520  -0.56173  -0.55896  -0.55827
 Alpha  occ. eigenvalues --   -0.55665  -0.55483  -0.55387  -0.55162  -0.55069
 Alpha  occ. eigenvalues --   -0.54784  -0.54755  -0.54549  -0.54482  -0.54449
 Alpha  occ. eigenvalues --   -0.54292  -0.54235  -0.53765  -0.53440  -0.53350
 Alpha  occ. eigenvalues --   -0.53153  -0.52761  -0.52701  -0.52405  -0.52223
 Alpha  occ. eigenvalues --   -0.52219  -0.52136  -0.52102  -0.52015  -0.51423
 Alpha  occ. eigenvalues --   -0.51384  -0.51247  -0.50956  -0.50927  -0.50748
 Alpha  occ. eigenvalues --   -0.50716  -0.50566  -0.50475  -0.50250  -0.50035
 Alpha  occ. eigenvalues --   -0.49899  -0.49866  -0.49657  -0.49571  -0.49261
 Alpha  occ. eigenvalues --   -0.48872  -0.48753  -0.48448  -0.48426  -0.48372
 Alpha  occ. eigenvalues --   -0.48292  -0.48060  -0.48054  -0.47910  -0.47658
 Alpha  occ. eigenvalues --   -0.47467  -0.47267  -0.47209  -0.46694  -0.46442
 Alpha  occ. eigenvalues --   -0.46413  -0.46362  -0.46197  -0.45993  -0.45929
 Alpha  occ. eigenvalues --   -0.45770  -0.45662  -0.45487  -0.45281  -0.45184
 Alpha  occ. eigenvalues --   -0.45127  -0.44917  -0.44898  -0.44836  -0.44674
 Alpha  occ. eigenvalues --   -0.44647  -0.44181  -0.43998  -0.43862  -0.43735
 Alpha  occ. eigenvalues --   -0.43704  -0.43564  -0.43427  -0.43293  -0.43129
 Alpha  occ. eigenvalues --   -0.42937  -0.42658  -0.42606  -0.42406  -0.42006
 Alpha  occ. eigenvalues --   -0.41830  -0.41620  -0.41486  -0.40681  -0.40508
 Alpha  occ. eigenvalues --   -0.40349  -0.40091  -0.39704  -0.39284  -0.39141
 Alpha  occ. eigenvalues --   -0.39081  -0.38892  -0.38760  -0.38454  -0.38346
 Alpha  occ. eigenvalues --   -0.37979  -0.36683  -0.36683  -0.35954  -0.35932
 Alpha  occ. eigenvalues --   -0.35735  -0.35469  -0.35106  -0.33905  -0.33849
 Alpha  occ. eigenvalues --   -0.33629  -0.33335  -0.33048  -0.32547  -0.32501
 Alpha  occ. eigenvalues --   -0.32146  -0.31837  -0.31374  -0.26113  -0.25986
 Alpha  occ. eigenvalues --   -0.23002  -0.21925
 Alpha virt. eigenvalues --   -0.07319  -0.05802  -0.00517   0.00569   0.01979
 Alpha virt. eigenvalues --    0.02163   0.03913   0.04543   0.04681   0.05141
 Alpha virt. eigenvalues --    0.07154   0.07352   0.07636   0.07862   0.07923

 Mulliken charges:
               1
     1  Mg   0.966569
     2  C   -0.049160
     3  C   -0.089597
     4  C   -0.059746
     5  C   -0.106574
     6  N   -0.317478
     7  C    0.011160
     8  C   -0.040212
     9  C   -0.105638
    10  C    0.050393
    11  C   -0.005217
    12  C   -0.008451
    13  C   -0.109910
    14  H    0.017953
    15  N   -0.388177
    16  C    0.164405
    17  C   -0.187774
    18  C   -0.058842
    19  C    0.115506
    20  C    0.051488
    21  C    0.080893
    22  O   -0.219014
    23  C   -0.036924
    24  N   -0.403650
    25  C    0.019408
    26  C   -0.075024
    27  C   -0.053899
    28  C    0.103359
    29  C    0.032554
    30  C   -0.056179
    31  C   -0.031271
    32  N   -0.481587
    33  C    0.161191
    34  C   -0.188141
    35  C   -0.019573
    36  C    0.159902
    37  C    0.090050
    38  C    0.119100
    39  O   -0.227816
    40  C   -0.061584
    41  C    0.258017
    42  O   -0.245329
    43  O   -0.357719
    44  C    0.146191
    45  H   -0.008906
    46  H    0.024965
    47  H    0.000851
    48  H    0.044352
    49  H    0.047064
    50  H    0.048171
    51  H    0.045379
    52  H    0.038193
    53  H    0.030232
    54  H    0.027438
    55  H    0.044374
    56  H    0.052013
    57  H    0.066899
    58  H    0.038439
    59  H    0.031715
    60  H    0.036123
    61  H    0.075010
    62  H    0.049699
    63  H    0.043956
    64  H    0.035980
    65  H    0.053258
    66  H    0.026670
    67  H    0.042222
    68  H    0.028154
    69  H    0.020542
    70  H    0.037128
    71  H    0.025804
    72  H    0.038167
    73  H    0.064321
    74  H    0.036403
    75  H    0.056370
    76  H    0.057182
    77  H    0.070543
    78  H    0.047228
    79  H    0.060412
    80  Mg   0.942563
    81  C    0.041555
    82  C   -0.128380
    83  C   -0.076484
    84  C   -0.077380
    85  N   -0.336069
    86  C   -0.017542
    87  C   -0.079430
    88  C   -0.155486
    89  C    0.135591
    90  C    0.021793
    91  C    0.093365
    92  C   -0.136315
    93  H    0.008373
    94  N   -0.446459
    95  C    0.165564
    96  C   -0.153369
    97  C   -0.108057
    98  C    0.165086
    99  C    0.056705
   100  C    0.032491
   101  O   -0.217758
   102  C    0.006150
   103  N   -0.392267
   104  C    0.060633
   105  C   -0.103465
   106  C   -0.058443
   107  C    0.088729
   108  C    0.029790
   109  C   -0.034560
   110  C   -0.028530
   111  N   -0.416452
   112  C    0.095788
   113  C   -0.195975
   114  C   -0.011776
   115  C    0.105131
   116  C    0.075117
   117  C    0.122505
   118  O   -0.235114
   119  C   -0.139065
   120  C    0.281260
   121  O   -0.275266
   122  O   -0.340398
   123  C    0.131752
   124  H   -0.009305
   125  H    0.028856
   126  H   -0.008462
   127  H    0.017321
   128  H    0.025819
   129  H    0.050618
   130  H    0.036851
   131  H    0.035685
   132  H    0.016091
   133  H    0.073329
   134  H    0.051831
   135  H    0.043675
   136  H    0.050746
   137  H    0.039183
   138  H    0.074116
   139  H    0.060574
   140  H    0.065935
   141  H    0.056280
   142  H    0.042736
   143  H    0.031495
   144  H    0.039371
   145  H    0.046032
   146  H    0.038521
   147  H    0.026769
   148  H    0.027948
   149  H    0.044890
   150  H    0.030108
   151  H    0.041853
   152  H    0.063099
   153  H    0.057411
   154  H    0.033222
   155  H    0.090177
   156  H    0.069878
   157  H    0.052373
   158  H    0.059073
 Sum of Mulliken charges =  -0.00000

 Dipole moment (field-independent basis, Debye):
    X=             -6.3371    Y=              0.0562    Z=             -4.3268  Tot=              7.6736
 Quadrupole moment (field-independent basis, Debye-Ang):
   XX=           -559.5691   YY=           -472.8834   ZZ=           -516.3893
   XY=            -57.9956   XZ=             43.0063   YZ=            -10.7435

 Normal termination of Gaussian 16 at Sun Sep 19 06:26:24 2021.
