 Gaussian 16, Revision A.03,
 Gaussian 16:  ES64L-G16RevA.03 25-Dec-2016

 --------------------------------
 #p wB97XD/Def2SVP td=(nstates=5)
 --------------------------------

 --------------------------------
 TDDFT excited states in gaussian
 --------------------------------
 Symbolic Z-matrix:
 Charge =  0 Multiplicity = 1

                         Standard orientation:
 ---------------------------------------------------------------------
 Center     Atomic      Atomic             Coordinates (Angstroms)
 Number     Number       Type             X           Y           Z
 ---------------------------------------------------------------------
      1         12           0       28.548853    0.119971    0.287972
      2          6           0       25.170564   -0.381059    0.210509
      3          6           0       28.923416   -3.405026   -0.023037
      4          6           0       31.873064    0.598537   -0.038381
      5          6           0       28.030455    3.507330   -0.339879
      6          7           0       27.116807   -1.714117   -0.274340
      7          6           0       25.784435   -1.647942    0.003372
      8          6           0       25.156292   -3.000748   -0.187157
      9          6           0       26.390607   -3.997741   -0.296781
     10          6           0       27.604744   -3.022627   -0.181832
     11          6           0       26.263782   -5.289766    0.424406
     12          6           0       24.025257   -3.204661   -1.302755
     13          6           0       24.099435   -2.371469   -2.547849
     14          1           0       23.953040   -3.099177   -3.876872
     15          7           0       30.161663   -1.227925    0.249575
     16          6           0       30.126780   -2.584722    0.156615
     17          6           0       31.440071   -3.155805    0.104120
     18          6           0       32.340812   -1.974864    0.219673
     19          6           0       31.462568   -0.786390    0.152908
     20          6           0       31.819137   -4.556489    0.012628
     21          6           0       33.855028   -1.940734    0.369129
     22          8           0       34.491619   -2.927109    0.252860
     23          6           0       34.706704   -0.717092    0.564496
     24          7           0       29.738773    1.760553   -0.250990
     25          6           0       31.074179    1.718052   -0.127568
     26          6           0       31.738368    3.108065   -0.621236
     27          6           0       30.492372    4.078968   -0.330891
     28          6           0       29.374757    3.063879   -0.364203
     29          6           0       33.021485    3.527988    0.101231
     30          6           0       30.423382    5.269255   -1.304592
     31          6           0       30.207920    6.695798   -0.785569
     32          7           0       26.935613    1.324410   -0.118345
     33          6           0       26.833901    2.695695   -0.317109
     34          6           0       25.488296    3.120969   -0.325783
     35          6           0       24.755670    1.973793   -0.069249
     36          6           0       25.681550    0.877959    0.054064
     37          6           0       24.966204    4.515318   -0.486077
     38          6           0       23.507426    1.380322    0.174796
     39          8           0       22.409327    1.933003    0.176110
     40          6           0       23.675936   -0.165682    0.193093
     41          6           0       22.960810   -0.575051    1.472281
     42          8           0       22.074379   -1.453531    1.529599
     43          8           0       23.570233    0.083407    2.514213
     44          6           0       23.295934   -0.259738    3.931072
     45          1           0       28.968747   -4.473341   -0.244348
     46          1           0       32.913363    0.728124   -0.343668
     47          1           0       27.878918    4.581059   -0.465890
     48          1           0       24.563570   -3.231444    0.698790
     49          1           0       26.453215   -4.277986   -1.347880
     50          1           0       27.135326   -5.535438    1.031049
     51          1           0       25.960681   -6.102682   -0.235460
     52          1           0       25.465996   -5.211391    1.163043
     53          1           0       23.011131   -3.003735   -0.957193
     54          1           0       24.103852   -4.210470   -1.716578
     55          1           0       24.908333   -1.641754   -2.561734
     56          1           0       23.182252   -1.782820   -2.586007
     57          1           0       31.057790   -5.157493    0.508885
     58          1           0       32.789985   -4.784693    0.450872
     59          1           0       31.845984   -4.803268   -1.049342
     60          1           0       33.953822   -0.166591    1.129108
     61          1           0       34.942803   -0.210016   -0.370522
     62          1           0       35.639786   -0.841846    1.114192
     63          1           0       31.848973    3.012717   -1.701836
     64          1           0       30.394973    4.521812    0.660014
     65          1           0       32.753655    4.347407    0.768814
     66          1           0       33.830696    3.669881   -0.614519
     67          1           0       33.424632    2.748100    0.746571
     68          1           0       29.617391    5.049072   -2.005101
     69          1           0       31.308208    5.230020   -1.940099
     70          1           0       30.872325    7.485328   -1.137049
     71          1           0       30.120140    6.744786    0.300577
     72          1           0       29.168684    6.875650   -1.058924
     73          1           0       24.060604    4.731342    0.081289
     74          1           0       24.763720    4.687191   -1.543479
     75          1           0       25.662540    5.279044   -0.137295
     76          1           0       23.160401   -0.472653   -0.716088
     77          1           0       24.190450   -0.220299    4.552428
     78          1           0       22.884521   -1.268807    3.960748
     79          1           0       22.576835    0.314878    4.513523
     80         12           0      -28.129521    0.649375    0.236298
     81          6           0      -26.873524   -2.492024   -0.602532
     82          6           0      -25.717243    2.099882   -1.754059
     83          6           0      -29.535659    3.493171    1.075288
     84          6           0      -31.172993   -0.999685    1.376657
     85          7           0      -26.394424   -0.195339   -1.017704
     86          6           0      -26.086491   -1.507703   -1.242438
     87          6           0      -24.871937   -1.631126   -2.092359
     88          6           0      -24.529517   -0.141781   -2.496517
     89          6           0      -25.609684    0.699634   -1.710973
     90          6           0      -23.043954    0.255918   -2.307344
     91          6           0      -25.090230   -2.527899   -3.335169
     92          6           0      -24.006570   -3.600895   -3.425828
     93          1           0      -23.223252   -3.720365   -4.767896
     94          7           0      -27.661165    2.549944   -0.250443
     95          6           0      -26.604156    2.982257   -1.050044
     96          6           0      -26.645602    4.437783   -0.993819
     97          6           0      -27.750368    4.883637   -0.129625
     98          6           0      -28.359670    3.604799    0.354727
     99          6           0      -25.816834    5.276250   -1.831649
    100          6           0      -28.141430    6.298832   -0.017651
    101          8           0      -27.557662    7.213546   -0.560277
    102          6           0      -29.360908    6.769167    0.695457
    103          7           0      -30.028016    1.127788    1.030528
    104          6           0      -30.232400    2.383214    1.544522
    105          6           0      -31.601282    2.467137    2.186191
    106          6           0      -32.253629    1.186199    1.821688
    107          6           0      -31.147548    0.396108    1.323774
    108          6           0      -31.600656    2.842293    3.724721
    109          6           0      -33.272412    1.326699    0.639001
    110          6           0      -34.395163    0.395518    0.627553
    111          7           0      -28.910428   -1.344249    0.410105
    112          6           0      -30.099957   -1.861710    0.939402
    113          6           0      -29.965241   -3.276448    1.091857
    114          6           0      -28.758499   -3.586269    0.475810
    115          6           0      -28.150787   -2.359303    0.028155
    116          6           0      -30.988607   -4.142647    1.728422
    117          6           0      -27.916867   -4.647220    0.087692
    118          8           0      -28.043351   -5.840886    0.246414
    119          6           0      -26.668587   -4.004899   -0.557465
    120          6           0      -25.469156   -4.451476    0.168753
    121          8           0      -25.002028   -3.920946    1.190678
    122          8           0      -25.028772   -5.643339   -0.359451
    123          6           0      -23.795421   -6.246524    0.118861
    124          1           0      -24.890485    2.490931   -2.349799
    125          1           0      -30.137666    4.355348    1.372946
    126          1           0      -32.093392   -1.451014    1.753045
    127          1           0      -24.074166   -1.857986   -1.384553
    128          1           0      -24.680247    0.067751   -3.555070
    129          1           0      -22.549474   -0.714963   -2.257892
    130          1           0      -22.819611    0.929569   -1.480255
    131          1           0      -22.682948    0.771027   -3.197200
    132          1           0      -24.982327   -2.004637   -4.285072
    133          1           0      -26.089124   -2.951279   -3.231577
    134          1           0      -24.638025   -4.488384   -3.386979
    135          1           0      -23.383603   -3.506096   -2.537655
    136          1           0      -25.157034    4.627697   -2.408365
    137          1           0      -25.126347    5.939748   -1.310115
    138          1           0      -26.448961    5.821635   -2.533295
    139          1           0      -29.246139    6.205089    1.621080
    140          1           0      -30.238508    6.440559    0.138113
    141          1           0      -29.326598    7.844480    0.871797
    142          1           0      -32.054353    3.319611    1.681453
    143          1           0      -32.662549    0.574872    2.626218
    144          1           0      -30.607500    3.163753    4.038973
    145          1           0      -32.055088    2.098290    4.379911
    146          1           0      -32.136257    3.766367    3.940477
    147          1           0      -32.733582    1.260782   -0.306286
    148          1           0      -33.722215    2.319433    0.635780
    149          1           0      -35.200332    0.814263    1.232232
    150          1           0      -34.109755   -0.601595    0.964452
    151          1           0      -34.875048    0.412708   -0.351506
    152          1           0      -31.440575   -3.650834    2.589679
    153          1           0      -30.621411   -5.130546    2.006953
    154          1           0      -31.785058   -4.182947    0.985298
    155          1           0      -26.457278   -4.395657   -1.552922
    156          1           0      -23.777309   -6.702894    1.108611
    157          1           0      -22.982215   -5.525920    0.034517
    158          1           0      -23.642783   -7.093318   -0.549246
 ---------------------------------------------------------------------

 SCF Done:  E(RwB97XD) =  -4070.52926718     A.U. after   20 cycles

 Excitation energies and oscillator strengths:

 Excited State   1:      Singlet-A      1.5770 eV  786.23 nm  f=0.3862  <S**2>=0.000
     309 -> 316        0.17491
     311 -> 313        0.68654
     309 <- 316        0.11856
 This state for optimization and/or second-order correction.
 Total Energy, E(TD-HF/TD-DFT) =  -4070.47131522
 Copying the excited state density for this state as the 1-particle RhoCI density.

 Excited State   2:      Singlet-A      1.6144 eV  767.99 nm  f=0.3676  <S**2>=0.000
     310 -> 315       -0.19429
     312 -> 314        0.68134
     310 <- 315       -0.12116

 Excited State   3:      Singlet-A      2.0921 eV  592.64 nm  f=0.1443  <S**2>=0.000
     309 -> 313        0.64990
     311 -> 316       -0.25882

 Excited State   4:      Singlet-A      2.1298 eV  582.14 nm  f=0.0992  <S**2>=0.000
     310 -> 314        0.63365
     312 -> 315        0.30002

 Excited State   5:      Singlet-A      3.0081 eV  412.17 nm  f=0.0074  <S**2>=0.000
     306 -> 313       -0.21843
     308 -> 313        0.63559
     308 -> 318        0.12410

 The electronic state is 1-A.
 Alpha  occ. eigenvalues --  -46.96318 -46.95281 -19.31492 -19.30090 -19.25341
 Alpha  occ. eigenvalues --  -19.24309 -19.23623 -19.23391 -19.22400 -19.22197
 Alpha  occ. eigenvalues --  -14.47191 -14.46917 -14.46664 -14.46544 -14.44902
 Alpha  occ. eigenvalues --  -14.44623 -14.44301 -14.43756 -10.44411 -10.42934
 Alpha  occ. eigenvalues --  -10.38367 -10.38193 -10.37644 -10.37480 -10.36582
 Alpha  occ. eigenvalues --  -10.36161 -10.35674 -10.35672 -10.35644 -10.35580
 Alpha  occ. eigenvalues --  -10.35398 -10.35141 -10.35078 -10.35026 -10.34937
 Alpha  occ. eigenvalues --  -10.34873 -10.34709 -10.34451 -10.34164 -10.33883
 Alpha  occ. eigenvalues --  -10.33460 -10.33089 -10.33057 -10.32970 -10.32957
 Alpha  occ. eigenvalues --  -10.32702 -10.32696 -10.32590 -10.32522 -10.32420
 Alpha  occ. eigenvalues --  -10.32379 -10.32377 -10.32367 -10.32265 -10.32197
 Alpha  occ. eigenvalues --  -10.32062 -10.32008 -10.31933 -10.31887 -10.31850
 Alpha  occ. eigenvalues --  -10.31607 -10.31573 -10.31403 -10.31336 -10.31316
 Alpha  occ. eigenvalues --  -10.31293 -10.31198 -10.31118 -10.30767 -10.30765
 Alpha  occ. eigenvalues --  -10.30721 -10.30706 -10.30665 -10.30352 -10.30324
 Alpha  occ. eigenvalues --  -10.30221 -10.30086 -10.30080 -10.29925 -10.29636
 Alpha  occ. eigenvalues --  -10.29355 -10.29055 -10.29015 -10.28951 -10.28778
 Alpha  occ. eigenvalues --  -10.28745  -3.22252  -3.21218  -1.95793  -1.95407
 Alpha  occ. eigenvalues --   -1.95192  -1.94809  -1.94351  -1.94173  -1.17904
 Alpha  occ. eigenvalues --   -1.17621  -1.13592  -1.12280  -1.12054  -1.11670
 Alpha  occ. eigenvalues --   -1.09504  -1.08891  -1.07226  -1.06981  -1.06446
 Alpha  occ. eigenvalues --   -1.05810  -1.05000  -1.04949  -1.04177  -1.03622
 Alpha  occ. eigenvalues --   -0.95760  -0.94628  -0.92644  -0.91734  -0.91450
 Alpha  occ. eigenvalues --   -0.90985  -0.90643  -0.90329  -0.89928  -0.89639
 Alpha  occ. eigenvalues --   -0.89202  -0.89181  -0.88264  -0.87804  -0.87160
 Alpha  occ. eigenvalues --   -0.86471  -0.86445  -0.85927  -0.85368  -0.85023
 Alpha  occ. eigenvalues --   -0.84493  -0.84113  -0.83371  -0.82955  -0.82783
 Alpha  occ. eigenvalues --   -0.82569  -0.80584  -0.80483  -0.79908  -0.79767
 Alpha  occ. eigenvalues --   -0.79059  -0.78932  -0.78669  -0.78236  -0.77451
 Alpha  occ. eigenvalues --   -0.77334  -0.75607  -0.75394  -0.74019  -0.73761
 Alpha  occ. eigenvalues --   -0.71987  -0.71399  -0.71311  -0.71023  -0.70369
 Alpha  occ. eigenvalues --   -0.69937  -0.69467  -0.68581  -0.68402  -0.68219
 Alpha  occ. eigenvalues --   -0.67885  -0.67525  -0.67284  -0.66710  -0.66687
 Alpha  occ. eigenvalues --   -0.66399  -0.65621  -0.64012  -0.62711  -0.62302
 Alpha  occ. eigenvalues --   -0.61473  -0.61468  -0.61446  -0.60968  -0.60874
 Alpha  occ. eigenvalues --   -0.60067  -0.59924  -0.59593  -0.59374  -0.59230
 Alpha  occ. eigenvalues --   -0.58520  -0.58393  -0.57817  -0.57815  -0.57410
 Alpha  occ. eigenvalues --   -0.57278  -0.57129  -0.57083  -0.56415  -0.56361
 Alpha  occ. eigenvalues --   -0.56165  -0.55974  -0.55300  -0.55137  -0.55107
 Alpha  occ. eigenvalues --   -0.54740  -0.54486  -0.54444  -0.54227  -0.54064
 Alpha  occ. eigenvalues --   -0.54024  -0.53770  -0.53747  -0.53674  -0.53581
 Alpha  occ. eigenvalues --   -0.53343  -0.53208  -0.53182  -0.53059  -0.52660
 Alpha  occ. eigenvalues --   -0.52564  -0.52352  -0.51956  -0.51928  -0.51644
 Alpha  occ. eigenvalues --   -0.51611  -0.51467  -0.51343  -0.51138  -0.51053
 Alpha  occ. eigenvalues --   -0.50959  -0.50769  -0.50477  -0.50405  -0.50154
 Alpha  occ. eigenvalues --   -0.49835  -0.49508  -0.49497  -0.49304  -0.49169
 Alpha  occ. eigenvalues --   -0.49072  -0.49055  -0.48937  -0.48834  -0.48714
 Alpha  occ. eigenvalues --   -0.48562  -0.48391  -0.48239  -0.48162  -0.48078
 Alpha  occ. eigenvalues --   -0.47665  -0.47591  -0.47485  -0.47278  -0.47235
 Alpha  occ. eigenvalues --   -0.46981  -0.46879  -0.46832  -0.46514  -0.46456
 Alpha  occ. eigenvalues --   -0.46139  -0.45969  -0.45954  -0.45584  -0.45410
 Alpha  occ. eigenvalues --   -0.45320  -0.45158  -0.44998  -0.44978  -0.44854
 Alpha  occ. eigenvalues --   -0.44677  -0.44566  -0.44459  -0.44388  -0.44059
 Alpha  occ. eigenvalues --   -0.43981  -0.43950  -0.43664  -0.43644  -0.43532
 Alpha  occ. eigenvalues --   -0.43431  -0.43362  -0.43219  -0.43079  -0.42582
 Alpha  occ. eigenvalues --   -0.42469  -0.42195  -0.42162  -0.41104  -0.40959
 Alpha  occ. eigenvalues --   -0.40644  -0.40443  -0.39961  -0.39644  -0.39452
 Alpha  occ. eigenvalues --   -0.39294  -0.39063  -0.38992  -0.38365  -0.38293
 Alpha  occ. eigenvalues --   -0.38169  -0.37553  -0.36816  -0.36341  -0.35868
 Alpha  occ. eigenvalues --   -0.35730  -0.35334  -0.35194  -0.33815  -0.33594
 Alpha  occ. eigenvalues --   -0.33082  -0.32656  -0.32595  -0.32036  -0.31684
 Alpha  occ. eigenvalues --   -0.31543  -0.31533  -0.30411  -0.26401  -0.26223
 Alpha  occ. eigenvalues --   -0.23536  -0.23371
 Alpha virt. eigenvalues --   -0.08053  -0.07513  -0.00591  -0.00037   0.02320
 Alpha virt. eigenvalues --    0.02322   0.04063   0.04468   0.04818   0.05841
 Alpha virt. eigenvalues --    0.06499   0.06639   0.07344   0.07459   0.07942

 Mulliken charges:
               1
     1  Mg   0.958511
     2  C    0.008128
     3  C   -0.083258
     4  C   -0.083951
     5  C   -0.096662
     6  N   -0.330785
     7  C   -0.005452
     8  C   -0.018803
     9  C   -0.091824
    10  C    0.035683
    11  C    0.041614
    12  C   -0.010971
    13  C   -0.168681
    14  H    0.030004
    15  N   -0.448366
    16  C    0.171396
    17  C   -0.181751
    18  C   -0.096613
    19  C    0.137367
    20  C    0.086329
    21  C    0.013445
    22  O   -0.209782
    23  C   -0.014984
    24  N   -0.361648
    25  C    0.084130
    26  C   -0.138979
    27  C   -0.084343
    28  C    0.074853
    29  C    0.050081
    30  C   -0.015307
    31  C   -0.044755
    32  N   -0.442093
    33  C    0.139273
    34  C   -0.188077
    35  C    0.058642
    36  C    0.110003
    37  C    0.078528
    38  C    0.062376
    39  O   -0.216453
    40  C   -0.121113
    41  C    0.312887
    42  O   -0.256661
    43  O   -0.379221
    44  C    0.145008
    45  H    0.008444
    46  H    0.003801
    47  H   -0.014194
    48  H    0.042126
    49  H    0.049759
    50  H    0.035479
    51  H    0.041457
    52  H    0.026935
    53  H    0.059234
    54  H    0.045133
    55  H    0.064511
    56  H    0.055862
    57  H    0.031674
    58  H    0.063198
    59  H    0.053806
    60  H    0.032408
    61  H    0.070921
    62  H    0.057992
    63  H    0.056102
    64  H    0.040617
    65  H    0.038901
    66  H    0.039570
    67  H    0.032349
    68  H    0.030254
    69  H    0.027706
    70  H    0.056412
    71  H    0.025822
    72  H    0.030884
    73  H    0.060949
    74  H    0.060878
    75  H    0.031922
    76  H    0.065551
    77  H    0.053570
    78  H    0.053924
    79  H    0.058316
    80  Mg   0.953374
    81  C    0.048223
    82  C   -0.057381
    83  C   -0.121920
    84  C   -0.096223
    85  N   -0.342746
    86  C   -0.024107
    87  C   -0.029559
    88  C   -0.145868
    89  C    0.045664
    90  C    0.012156
    91  C    0.023772
    92  C   -0.137336
    93  H    0.039243
    94  N   -0.537323
    95  C    0.202029
    96  C   -0.171456
    97  C   -0.064019
    98  C    0.269774
    99  C    0.097467
   100  C   -0.011503
   101  O   -0.239008
   102  C    0.006730
   103  N   -0.368882
   104  C    0.069649
   105  C   -0.083414
   106  C   -0.081679
   107  C    0.063047
   108  C    0.032039
   109  C    0.003096
   110  C   -0.018634
   111  N   -0.407144
   112  C    0.111760
   113  C   -0.185378
   114  C   -0.015221
   115  C    0.112900
   116  C    0.089657
   117  C    0.108496
   118  O   -0.187614
   119  C   -0.127583
   120  C    0.253655
   121  O   -0.269051
   122  O   -0.361197
   123  C    0.148986
   124  H    0.001529
   125  H   -0.005780
   126  H   -0.002794
   127  H    0.049542
   128  H    0.042579
   129  H    0.038451
   130  H    0.051712
   131  H    0.032400
   132  H    0.051887
   133  H    0.051953
   134  H    0.064219
   135  H    0.053295
   136  H    0.001040
   137  H    0.057470
   138  H    0.064855
   139  H    0.039577
   140  H    0.062497
   141  H    0.058204
   142  H    0.032788
   143  H    0.027088
   144  H    0.034031
   145  H    0.045457
   146  H    0.027814
   147  H    0.039416
   148  H    0.019982
   149  H    0.027115
   150  H    0.029221
   151  H    0.034559
   152  H    0.036168
   153  H    0.067939
   154  H    0.051120
   155  H    0.050898
   156  H    0.058146
   157  H    0.047301
   158  H    0.050849
 Sum of Mulliken charges =  -0.00000

 Dipole moment (field-independent basis, Debye):
    X=              0.5432    Y=              3.7320    Z=              1.4102  Tot=              4.0264
 Quadrupole moment (field-independent basis, Debye-Ang):
   XX=           -289.9342   YY=           -533.8552   ZZ=           -489.8118
   XY=             78.1082   XZ=             32.2240   YZ=             11.2807

 Normal termination of Gaussian 16 at Sat Sep 18 22:17:07 2021.
