 Gaussian 16, Revision A.03,
 Gaussian 16:  ES64L-G16RevA.03 25-Dec-2016

 --------------------------------
 #p wB97XD/Def2SVP td=(nstates=5)
 --------------------------------

 --------------------------------
 TDDFT excited states in gaussian
 --------------------------------
 Symbolic Z-matrix:
 Charge =  0 Multiplicity = 1

                         Standard orientation:
 ---------------------------------------------------------------------
 Center     Atomic      Atomic             Coordinates (Angstroms)
 Number     Number       Type             X           Y           Z
 ---------------------------------------------------------------------
      1         12           0      -10.082725    0.195676    0.817249
      2          6           0       -9.150805   -1.898765   -2.048141
      3          6           0       -7.196934   -1.035050    2.279167
      4          6           0      -10.239741    2.689253    2.798988
      5          6           0      -12.686885    1.467154   -1.307243
      6          7           0       -8.253622   -1.258292    0.045800
      7          6           0       -8.104970   -1.984055   -1.115850
      8          6           0       -6.707087   -2.704168   -1.104404
      9          6           0       -6.252473   -2.640831    0.364105
     10          6           0       -7.281278   -1.592189    0.934879
     11          6           0       -6.308998   -3.965450    1.233056
     12          6           0       -5.683942   -2.110803   -2.132499
     13          6           0       -4.803644   -3.106593   -2.856577
     14          1           0       -3.334714   -3.245243   -2.347085
     15          7           0       -8.984421    0.690975    2.387508
     16          6           0       -7.908964    0.033248    2.919779
     17          6           0       -7.428888    0.750018    4.132858
     18          6           0       -8.311784    1.853719    4.261703
     19          6           0       -9.199913    1.800599    3.103106
     20          6           0       -6.198134    0.406902    4.987978
     21          6           0       -8.225869    3.035031    5.232399
     22          8           0       -7.347438    2.994388    6.089614
     23          6           0       -9.096628    4.143617    5.234301
     24          7           0      -11.156428    2.009015    0.576668
     25          6           0      -11.192197    2.745162    1.744279
     26          6           0      -12.317350    3.841244    1.596134
     27          6           0      -12.865412    3.613153    0.141820
     28          6           0      -12.267846    2.220383   -0.171250
     29          6           0      -13.426054    3.819829    2.683948
     30          6           0      -12.554801    4.694123   -0.970543
     31          6           0      -13.412794    5.970974   -0.998071
     32          7           0      -10.876188   -0.114379   -1.228284
     33          6           0      -11.997117    0.386600   -1.859564
     34          6           0      -12.265085   -0.296041   -3.102144
     35          6           0      -11.164932   -1.226827   -3.210228
     36          6           0      -10.275785   -1.081056   -2.088711
     37          6           0      -13.395906    0.044955   -4.022982
     38          6           0      -10.591545   -2.173339   -4.058550
     39          8           0      -10.854764   -2.483053   -5.212653
     40          6           0       -9.217986   -2.561912   -3.438825
     41          6           0       -9.276752   -4.065306   -3.300523
     42          8           0       -8.380416   -4.818822   -3.688317
     43          8           0      -10.392501   -4.578049   -2.523853
     44          6           0      -10.200481   -5.971258   -2.124327
     45          1           0       -6.333393   -1.460148    2.794003
     46          1           0      -10.528322    3.485341    3.488489
     47          1           0      -13.563356    1.899838   -1.793931
     48          1           0       -6.869758   -3.773454   -1.246896
     49          1           0       -5.275890   -2.167558    0.466028
     50          1           0       -5.267569   -4.269618    1.335834
     51          1           0       -6.821686   -4.765127    0.699269
     52          1           0       -6.825846   -3.880255    2.188882
     53          1           0       -4.912602   -1.477880   -1.692955
     54          1           0       -6.209000   -1.567808   -2.918650
     55          1           0       -4.867187   -2.870813   -3.918888
     56          1           0       -5.250308   -4.092896   -2.726911
     57          1           0       -6.429783    0.553735    6.043244
     58          1           0       -5.420941    1.065357    4.600196
     59          1           0       -5.934122   -0.645123    4.889007
     60          1           0      -10.088487    3.791866    5.519969
     61          1           0       -9.100688    4.725173    4.312361
     62          1           0       -8.595499    4.793308    5.952665
     63          1           0      -11.940128    4.862975    1.623477
     64          1           0      -13.941445    3.440958    0.145881
     65          1           0      -14.360103    3.700654    2.134729
     66          1           0      -13.415703    4.779247    3.200223
     67          1           0      -13.144957    2.975789    3.314964
     68          1           0      -12.702615    4.144806   -1.900902
     69          1           0      -11.544616    5.088734   -0.859447
     70          1           0      -14.132565    5.744885   -0.210836
     71          1           0      -14.005610    6.029068   -1.912038
     72          1           0      -12.905394    6.915184   -0.801787
     73          1           0      -13.264292    1.100107   -4.259011
     74          1           0      -14.374152    0.003950   -3.544305
     75          1           0      -13.314087   -0.442294   -4.994650
     76          1           0       -8.457560   -2.315202   -4.179511
     77          1           0      -10.844870   -5.919103   -1.245931
     78          1           0       -9.146132   -6.232021   -2.032641
     79          1           0      -10.729960   -6.574993   -2.861490
     80         12           0       10.102710    0.745971   -0.069362
     81          6           0        8.296790   -2.105747    1.138664
     82          6           0        7.066692    2.293604   -0.597530
     83          6           0       11.732845    3.042363   -1.725998
     84          6           0       12.997053   -1.112039    0.356086
     85          7           0        7.852243    0.026547   -0.013538
     86          6           0        7.449913   -1.115605    0.624222
     87          6           0        5.925130   -1.041727    0.905256
     88          6           0        5.501451    0.357545    0.290565
     89          6           0        6.869502    0.974990   -0.177587
     90          6           0        4.462275    0.356991   -0.908312
     91          6           0        5.522979   -1.151952    2.400226
     92          6           0        4.379564   -2.037371    2.747631
     93          1           0        3.301449   -2.517221    1.702355
     94          7           0        9.498560    2.488761   -1.075933
     95          6           0        8.223752    3.054295   -1.081837
     96          6           0        8.255635    4.290706   -1.886429
     97          6           0        9.658322    4.564388   -2.117911
     98          6           0       10.363980    3.349622   -1.647948
     99          6           0        7.068850    5.114038   -2.286279
    100          6           0       10.363862    5.789089   -2.746531
    101          8           0       11.577690    6.057161   -2.623854
    102          6           0        9.512728    6.804223   -3.397030
    103          7           0       12.014647    0.877977   -0.629923
    104          6           0       12.427346    1.946791   -1.394821
    105          6           0       13.976495    1.991512   -1.506945
    106          6           0       14.381219    0.826509   -0.499045
    107          6           0       13.051809    0.149099   -0.214943
    108          6           0       14.627508    1.841500   -2.942197
    109          6           0       15.071071    1.237590    0.792063
    110          6           0       16.530852    0.762869    0.949377
    111          7           0       10.612856   -1.122726    0.777147
    112          6           0       11.833813   -1.750640    0.848739
    113          6           0       11.672182   -3.100500    1.404639
    114          6           0       10.305404   -3.230144    1.576351
    115          6           0        9.700885   -2.015031    1.183982
    116          6           0       12.707888   -4.145654    1.658163
    117          6           0        9.333721   -4.147098    2.053563
    118          8           0        9.435505   -5.271807    2.621184
    119          6           0        8.040105   -3.496840    1.799610
    120          6           0        7.140235   -4.418081    1.021181
    121          8           0        7.282279   -4.716428   -0.115237
    122          8           0        6.113032   -4.797912    1.780819
    123          6           0        5.308403   -5.898099    1.370131
    124          1           0        6.151575    2.851413   -0.807740
    125          1           0       12.411478    3.746975   -2.213026
    126          1           0       13.904099   -1.716100    0.412694
    127          1           0        5.481981   -1.873325    0.356131
    128          1           0        5.094929    0.998071    1.072654
    129          1           0        3.997016   -0.604824   -1.122239
    130          1           0        5.026137    0.599556   -1.810225
    131          1           0        3.705114    1.126828   -0.756395
    132          1           0        5.234560   -0.193335    2.833047
    133          1           0        6.327829   -1.536803    3.025829
    134          1           0        3.736959   -1.539039    3.474091
    135          1           0        4.794698   -2.932791    3.209389
    136          1           0        7.068020    5.245271   -3.368132
    137          1           0        7.201085    6.087969   -1.815023
    138          1           0        6.150116    4.740748   -1.832678
    139          1           0        9.022320    6.325507   -4.244691
    140          1           0       10.204812    7.541135   -3.803840
    141          1           0        8.880484    7.329156   -2.681436
    142          1           0       14.269741    2.944337   -1.065072
    143          1           0       15.057579    0.165635   -1.041065
    144          1           0       13.849534    1.731605   -3.696849
    145          1           0       15.390569    1.063517   -2.987494
    146          1           0       15.198321    2.750919   -3.130572
    147          1           0       14.525187    1.054554    1.717703
    148          1           0       15.140008    2.324758    0.774553
    149          1           0       16.818240    0.361637    1.921036
    150          1           0       17.150129    1.660253    0.944888
    151          1           0       16.864952    0.024436    0.221798
    152          1           0       13.718371   -3.736869    1.685426
    153          1           0       12.770787   -4.822692    0.806368
    154          1           0       12.364599   -4.715878    2.521265
    155          1           0        7.609008   -3.301711    2.781186
    156          1           0        5.906583   -6.793303    1.545862
    157          1           0        5.147861   -5.883052    0.292021
    158          1           0        4.409098   -5.978610    1.981339
 ---------------------------------------------------------------------

 SCF Done:  E(RwB97XD) =  -4070.55347908     A.U. after   19 cycles

 Excitation energies and oscillator strengths:

 Excited State   1:      Singlet-A      1.6679 eV  743.37 nm  f=0.3413  <S**2>=0.000
     309 -> 315       -0.20189
     311 -> 314        0.67630
     309 <- 315       -0.11947
 This state for optimization and/or second-order correction.
 Total Energy, E(TD-HF/TD-DFT) =  -4070.49218643
 Copying the excited state density for this state as the 1-particle RhoCI density.

 Excited State   2:      Singlet-A      1.6706 eV  742.14 nm  f=0.4252  <S**2>=0.000
     310 -> 316       -0.18095
     312 -> 313        0.68372
     310 <- 316       -0.11400

 Excited State   3:      Singlet-A      2.1574 eV  574.68 nm  f=0.1306  <S**2>=0.000
     310 -> 313        0.64722
     312 -> 316        0.26935

 Excited State   4:      Singlet-A      2.1892 eV  566.36 nm  f=0.0661  <S**2>=0.000
     309 -> 314        0.61390
     311 -> 315        0.33133

 Excited State   5:      Singlet-A      3.2121 eV  385.99 nm  f=0.0157  <S**2>=0.000
     308 -> 314        0.61858
     308 -> 317        0.12023
     311 -> 315       -0.24213

 The electronic state is 1-A.
 Alpha  occ. eigenvalues --  -46.97186 -46.95249 -19.30261 -19.29004 -19.25098
 Alpha  occ. eigenvalues --  -19.24621 -19.24192 -19.23928 -19.23511 -19.22978
 Alpha  occ. eigenvalues --  -14.47436 -14.46656 -14.46652 -14.46218 -14.45503
 Alpha  occ. eigenvalues --  -14.44334 -14.44100 -14.43824 -10.43341 -10.42922
 Alpha  occ. eigenvalues --  -10.38989 -10.38861 -10.38797 -10.37565 -10.36493
 Alpha  occ. eigenvalues --  -10.36051 -10.35781 -10.35732 -10.35695 -10.35540
 Alpha  occ. eigenvalues --  -10.35276 -10.35091 -10.35073 -10.34940 -10.34674
 Alpha  occ. eigenvalues --  -10.34552 -10.34120 -10.33962 -10.33656 -10.33472
 Alpha  occ. eigenvalues --  -10.33453 -10.33382 -10.33320 -10.33151 -10.33076
 Alpha  occ. eigenvalues --  -10.32994 -10.32992 -10.32804 -10.32768 -10.32550
 Alpha  occ. eigenvalues --  -10.32523 -10.32450 -10.32418 -10.32386 -10.32370
 Alpha  occ. eigenvalues --  -10.32318 -10.32307 -10.32192 -10.32185 -10.31682
 Alpha  occ. eigenvalues --  -10.31607 -10.31557 -10.31485 -10.31246 -10.31075
 Alpha  occ. eigenvalues --  -10.30964 -10.30933 -10.30857 -10.30853 -10.30831
 Alpha  occ. eigenvalues --  -10.30788 -10.30752 -10.30726 -10.30585 -10.30418
 Alpha  occ. eigenvalues --  -10.30211 -10.30146 -10.30109 -10.29765 -10.29727
 Alpha  occ. eigenvalues --  -10.29724 -10.29384 -10.29339 -10.29315 -10.29274
 Alpha  occ. eigenvalues --  -10.29155  -3.23088  -3.21269  -1.96612  -1.96255
 Alpha  occ. eigenvalues --   -1.96008  -1.94841  -1.94404  -1.94239  -1.20846
 Alpha  occ. eigenvalues --   -1.16149  -1.12782  -1.11944  -1.11271  -1.10448
 Alpha  occ. eigenvalues --   -1.10383  -1.08618  -1.07195  -1.06912  -1.05805
 Alpha  occ. eigenvalues --   -1.05450  -1.05440  -1.04513  -1.03772  -1.03175
 Alpha  occ. eigenvalues --   -0.95645  -0.94958  -0.91032  -0.90985  -0.90915
 Alpha  occ. eigenvalues --   -0.90488  -0.90433  -0.90242  -0.89742  -0.89078
 Alpha  occ. eigenvalues --   -0.88973  -0.88767  -0.88210  -0.87940  -0.87014
 Alpha  occ. eigenvalues --   -0.86530  -0.85856  -0.85687  -0.85408  -0.84570
 Alpha  occ. eigenvalues --   -0.84525  -0.83967  -0.83658  -0.83201  -0.82478
 Alpha  occ. eigenvalues --   -0.81927  -0.80336  -0.80249  -0.79672  -0.79362
 Alpha  occ. eigenvalues --   -0.79097  -0.79049  -0.78282  -0.77845  -0.77313
 Alpha  occ. eigenvalues --   -0.77123  -0.75195  -0.74913  -0.74007  -0.73475
 Alpha  occ. eigenvalues --   -0.71386  -0.71186  -0.70935  -0.70635  -0.69803
 Alpha  occ. eigenvalues --   -0.69458  -0.69096  -0.68214  -0.67850  -0.67604
 Alpha  occ. eigenvalues --   -0.67418  -0.67088  -0.66881  -0.66835  -0.66474
 Alpha  occ. eigenvalues --   -0.66117  -0.65044  -0.63958  -0.62507  -0.62317
 Alpha  occ. eigenvalues --   -0.61898  -0.61886  -0.61356  -0.61307  -0.61147
 Alpha  occ. eigenvalues --   -0.60997  -0.60196  -0.59741  -0.59274  -0.59090
 Alpha  occ. eigenvalues --   -0.58745  -0.58445  -0.58089  -0.57680  -0.57145
 Alpha  occ. eigenvalues --   -0.56899  -0.56831  -0.56390  -0.55918  -0.55766
 Alpha  occ. eigenvalues --   -0.55704  -0.55565  -0.55361  -0.55307  -0.55234
 Alpha  occ. eigenvalues --   -0.54939  -0.54927  -0.54669  -0.54530  -0.54363
 Alpha  occ. eigenvalues --   -0.53999  -0.53768  -0.53651  -0.53514  -0.53500
 Alpha  occ. eigenvalues --   -0.53417  -0.53054  -0.53038  -0.52604  -0.52031
 Alpha  occ. eigenvalues --   -0.51947  -0.51899  -0.51888  -0.51789  -0.51606
 Alpha  occ. eigenvalues --   -0.51269  -0.51188  -0.51013  -0.50987  -0.50703
 Alpha  occ. eigenvalues --   -0.50652  -0.50541  -0.50420  -0.50211  -0.50172
 Alpha  occ. eigenvalues --   -0.50151  -0.49983  -0.49746  -0.49617  -0.49336
 Alpha  occ. eigenvalues --   -0.49335  -0.48864  -0.48745  -0.48703  -0.48565
 Alpha  occ. eigenvalues --   -0.48175  -0.48130  -0.48084  -0.47986  -0.47943
 Alpha  occ. eigenvalues --   -0.47759  -0.47400  -0.47184  -0.46996  -0.46754
 Alpha  occ. eigenvalues --   -0.46693  -0.46526  -0.46506  -0.46425  -0.46409
 Alpha  occ. eigenvalues --   -0.46108  -0.45808  -0.45652  -0.45636  -0.45357
 Alpha  occ. eigenvalues --   -0.45245  -0.44904  -0.44650  -0.44596  -0.44516
 Alpha  occ. eigenvalues --   -0.44466  -0.44351  -0.44148  -0.44138  -0.43985
 Alpha  occ. eigenvalues --   -0.43848  -0.43546  -0.43514  -0.43412  -0.43346
 Alpha  occ. eigenvalues --   -0.43137  -0.42893  -0.42252  -0.42217  -0.42180
 Alpha  occ. eigenvalues --   -0.41999  -0.41913  -0.41571  -0.41310  -0.41057
 Alpha  occ. eigenvalues --   -0.40866  -0.40081  -0.39899  -0.39843  -0.39706
 Alpha  occ. eigenvalues --   -0.39258  -0.39098  -0.38586  -0.38384  -0.38299
 Alpha  occ. eigenvalues --   -0.37763  -0.37412  -0.36675  -0.36629  -0.36121
 Alpha  occ. eigenvalues --   -0.36025  -0.35349  -0.35159  -0.33936  -0.33720
 Alpha  occ. eigenvalues --   -0.33620  -0.33571  -0.33301  -0.32864  -0.32598
 Alpha  occ. eigenvalues --   -0.32199  -0.31589  -0.30953  -0.26490  -0.26045
 Alpha  occ. eigenvalues --   -0.23358  -0.23112
 Alpha virt. eigenvalues --   -0.07283  -0.07228  -0.00893   0.00449   0.01787
 Alpha virt. eigenvalues --    0.01849   0.03559   0.04124   0.04228   0.05401
 Alpha virt. eigenvalues --    0.06723   0.06906   0.07761   0.08042   0.08343

 Mulliken charges:
               1
     1  Mg   0.966283
     2  C   -0.023574
     3  C   -0.063248
     4  C   -0.091968
     5  C   -0.100895
     6  N   -0.282543
     7  C   -0.034109
     8  C    0.018280
     9  C   -0.119575
    10  C   -0.008275
    11  C    0.015424
    12  C    0.017628
    13  C   -0.125710
    14  H    0.021744
    15  N   -0.499237
    16  C    0.163063
    17  C   -0.190257
    18  C   -0.055612
    19  C    0.214913
    20  C    0.096938
    21  C    0.017569
    22  O   -0.245955
    23  C    0.020453
    24  N   -0.384825
    25  C    0.048364
    26  C   -0.125782
    27  C   -0.090079
    28  C    0.045039
    29  C    0.037759
    30  C   -0.003819
    31  C   -0.042768
    32  N   -0.423472
    33  C    0.155343
    34  C   -0.159411
    35  C   -0.021019
    36  C    0.158926
    37  C    0.093571
    38  C    0.074623
    39  O   -0.216075
    40  C   -0.098968
    41  C    0.286780
    42  O   -0.256739
    43  O   -0.417830
    44  C    0.139097
    45  H   -0.001597
    46  H   -0.023728
    47  H   -0.001757
    48  H    0.034789
    49  H    0.043814
    50  H    0.048292
    51  H    0.036859
    52  H    0.049470
    53  H    0.047988
    54  H    0.043978
    55  H    0.057590
    56  H    0.052871
    57  H    0.068308
    58  H    0.068760
    59  H    0.030870
    60  H    0.075563
    61  H    0.063866
    62  H    0.054725
    63  H    0.035852
    64  H    0.020072
    65  H    0.037962
    66  H    0.042270
    67  H    0.042262
    68  H    0.028988
    69  H    0.036256
    70  H    0.015499
    71  H    0.040303
    72  H    0.050233
    73  H    0.034180
    74  H    0.047988
    75  H    0.062979
    76  H    0.072123
    77  H    0.050763
    78  H    0.068794
    79  H    0.052762
    80  Mg   0.968502
    81  C   -0.020818
    82  C   -0.037290
    83  C   -0.068949
    84  C   -0.100271
    85  N   -0.318712
    86  C   -0.004821
    87  C   -0.025534
    88  C   -0.108580
    89  C    0.038891
    90  C    0.011026
    91  C    0.006959
    92  C   -0.131445
    93  H    0.013477
    94  N   -0.444897
    95  C    0.109598
    96  C   -0.188460
    97  C   -0.082096
    98  C    0.150514
    99  C    0.090971
   100  C    0.056843
   101  O   -0.260058
   102  C   -0.010239
   103  N   -0.428954
   104  C    0.096595
   105  C   -0.123091
   106  C   -0.081908
   107  C    0.106412
   108  C    0.027995
   109  C    0.012412
   110  C   -0.064920
   111  N   -0.411517
   112  C    0.113872
   113  C   -0.170864
   114  C   -0.051469
   115  C    0.143697
   116  C    0.088554
   117  C    0.114932
   118  O   -0.251428
   119  C   -0.028770
   120  C    0.225524
   121  O   -0.205568
   122  O   -0.332513
   123  C    0.138731
   124  H   -0.013826
   125  H    0.020175
   126  H   -0.001487
   127  H    0.046156
   128  H    0.041805
   129  H    0.041011
   130  H    0.040710
   131  H    0.039821
   132  H    0.033387
   133  H    0.031351
   134  H    0.045432
   135  H    0.057710
   136  H    0.058393
   137  H    0.041331
   138  H    0.035347
   139  H    0.054263
   140  H    0.046952
   141  H    0.066198
   142  H    0.046342
   143  H    0.023348
   144  H    0.051700
   145  H    0.034872
   146  H    0.038271
   147  H    0.040906
   148  H    0.022552
   149  H    0.029625
   150  H    0.032288
   151  H    0.037123
   152  H    0.030965
   153  H    0.058301
   154  H    0.072531
   155  H    0.069061
   156  H    0.047787
   157  H    0.056635
   158  H    0.060628
 Sum of Mulliken charges =  -0.00000

 Dipole moment (field-independent basis, Debye):
    X=             -3.6251    Y=              4.6819    Z=              5.5016  Tot=              8.0827
 Quadrupole moment (field-independent basis, Debye-Ang):
   XX=           -448.7836   YY=           -518.1606   ZZ=           -556.5640
   XY=            -35.2719   XZ=            -41.5512   YZ=            -23.1590

 Normal termination of Gaussian 16 at Mon Sep 20 07:42:00 2021.
