 Gaussian 16, Revision A.03,
 Gaussian 16:  ES64L-G16RevA.03 25-Dec-2016

 --------------------------------
 #p wB97XD/Def2SVP td=(nstates=5)
 --------------------------------

 --------------------------------
 TDDFT excited states in gaussian
 --------------------------------
 Symbolic Z-matrix:
 Charge =  0 Multiplicity = 1

                         Standard orientation:
 ---------------------------------------------------------------------
 Center     Atomic      Atomic             Coordinates (Angstroms)
 Number     Number       Type             X           Y           Z
 ---------------------------------------------------------------------
      1         12           0       27.249517    0.614398   -0.002911
      2          6           0       23.833710    1.172460   -0.838354
      3          6           0       26.595443    1.588065    3.215304
      4          6           0       30.228954   -0.914533    1.013150
      5          6           0       27.695734   -0.914406   -3.135341
      6          7           0       25.234889    1.073136    1.084614
      7          6           0       24.079050    1.467104    0.525533
      8          6           0       23.310030    2.325392    1.513214
      9          6           0       24.162643    2.414833    2.868938
     10          6           0       25.501449    1.747326    2.268438
     11          6           0       24.326669    3.901664    3.256504
     12          6           0       21.917361    1.763438    1.749364
     13          6           0       21.785950    0.222841    1.804887
     14          1           0       21.535066   -0.409364    3.201187
     15          7           0       28.341900    0.438435    1.875808
     16          6           0       27.836024    0.916415    3.065058
     17          6           0       28.891528    0.777583    4.018794
     18          6           0       29.955556   -0.034571    3.469353
     19          6           0       29.584881   -0.182994    2.039196
     20          6           0       28.744851    1.198533    5.462745
     21          6           0       31.105062   -0.709860    4.219030
     22          8           0       31.178528   -0.619276    5.429364
     23          6           0       32.125005   -1.479698    3.572153
     24          7           0       28.704186   -0.807385   -0.885766
     25          6           0       29.859997   -1.127288   -0.322770
     26          6           0       30.721527   -2.033396   -1.187211
     27          6           0       29.703309   -2.312229   -2.375105
     28          6           0       28.669148   -1.261939   -2.185119
     29          6           0       32.093837   -1.355057   -1.673920
     30          6           0       29.188578   -3.824171   -2.327202
     31          6           0       29.587241   -4.800122   -3.397763
     32          7           0       26.170592    0.422231   -1.687667
     33          6           0       26.527859   -0.116731   -2.940414
     34          6           0       25.453595    0.103214   -3.926629
     35          6           0       24.437441    0.616259   -3.120667
     36          6           0       24.826115    0.695532   -1.737758
     37          6           0       25.475363   -0.072031   -5.484440
     38          6           0       23.045996    1.074618   -3.185214
     39          8           0       22.233596    1.194620   -4.117153
     40          6           0       22.596943    1.467885   -1.739219
     41          6           0       21.507293    0.472515   -1.535923
     42          8           0       21.636970   -0.723305   -1.595848
     43          8           0       20.339483    1.095332   -1.405389
     44          6           0       19.103883    0.291549   -1.103469
     45          1           0       26.483631    2.164631    4.135753
     46          1           0       31.202726   -1.382606    1.170459
     47          1           0       27.896463   -1.510719   -4.028445
     48          1           0       23.266197    3.240867    0.923180
     49          1           0       23.721344    1.834924    3.679968
     50          1           0       23.882790    4.045773    4.241341
     51          1           0       23.818612    4.601437    2.592454
     52          1           0       25.400689    4.074170    3.320552
     53          1           0       21.247331    2.108797    0.961987
     54          1           0       21.530218    2.094005    2.713622
     55          1           0       22.663275   -0.370658    1.548043
     56          1           0       20.958910   -0.001541    1.131174
     57          1           0       27.743292    1.572561    5.676606
     58          1           0       29.553407    1.895565    5.685593
     59          1           0       28.998706    0.335611    6.077398
     60          1           0       31.782442   -2.388938    3.077687
     61          1           0       32.867386   -1.784423    4.309547
     62          1           0       32.501757   -0.789130    2.816874
     63          1           0       30.919104   -3.010541   -0.747199
     64          1           0       30.373212   -2.282522   -3.234623
     65          1           0       32.188665   -0.365344   -1.226225
     66          1           0       32.021311   -1.223915   -2.753737
     67          1           0       33.001203   -1.937948   -1.508370
     68          1           0       28.105855   -3.876128   -2.442291
     69          1           0       29.452560   -4.296721   -1.382093
     70          1           0       28.813910   -4.975455   -4.145681
     71          1           0       29.729139   -5.689869   -2.783432
     72          1           0       30.588623   -4.653166   -3.802748
     73          1           0       25.418120   -1.139236   -5.696927
     74          1           0       26.378931    0.417612   -5.848011
     75          1           0       24.565782    0.369346   -5.891405
     76          1           0       22.298490    2.515466   -1.793546
     77          1           0       18.635791   -0.116921   -1.999383
     78          1           0       18.357550    0.895956   -0.586325
     79          1           0       19.445531   -0.497336   -0.433391
     80         12           0      -26.099913   -0.826808    0.078538
     81          6           0      -27.146797    2.624061   -0.243821
     82          6           0      -23.982005   -0.183284   -2.274699
     83          6           0      -25.486609   -4.054951    0.334448
     84          6           0      -29.046818   -1.526700    2.087405
     85          7           0      -25.552139    1.102702   -1.041605
     86          6           0      -26.073474    2.379780   -1.052998
     87          6           0      -25.367608    3.216999   -2.057832
     88          6           0      -24.719840    2.175761   -3.006433
     89          6           0      -24.778554    0.930218   -2.090917
     90          6           0      -25.501690    1.932947   -4.316031
     91          6           0      -24.244066    4.041509   -1.358715
     92          6           0      -24.116716    5.555991   -1.782664
     93          1           0      -23.366643    6.580249   -0.841223
     94          7           0      -24.786976   -1.978039   -0.881075
     95          6           0      -23.908852   -1.539900   -1.743410
     96          6           0      -23.031829   -2.640749   -2.095039
     97          6           0      -23.423407   -3.690026   -1.230534
     98          6           0      -24.625873   -3.259670   -0.570137
     99          6           0      -21.861051   -2.438436   -3.073995
    100          6           0      -22.748477   -5.025654   -1.087105
    101          8           0      -23.193418   -5.846974   -0.342239
    102          6           0      -21.462989   -5.273971   -1.806648
    103          7           0      -27.353948   -2.617388    0.888438
    104          6           0      -26.695180   -3.772528    0.954093
    105          6           0      -27.347087   -4.735107    1.874179
    106          6           0      -28.625659   -3.932611    2.273754
    107          6           0      -28.371136   -2.556593    1.717413
    108          6           0      -27.588522   -6.199010    1.357511
    109          6           0      -28.857889   -3.971621    3.834665
    110          6           0      -29.993373   -4.854957    4.422740
    111          7           0      -27.714313    0.195638    0.782462
    112          6           0      -28.788854   -0.144474    1.634363
    113          6           0      -29.604020    1.058750    1.900470
    114          6           0      -28.984513    2.096818    1.217491
    115          6           0      -27.904502    1.570191    0.529494
    116          6           0      -30.955394    1.071954    2.655254
    117          6           0      -29.110171    3.566600    0.954966
    118          8           0      -29.865112    4.425762    1.344926
    119          6           0      -28.007248    3.940754   -0.156928
    120          6           0      -27.329641    5.144511    0.158077
    121          8           0      -26.269252    5.154008    0.798801
    122          8           0      -27.933891    6.329577   -0.249967
    123          6           0      -27.173504    7.610726   -0.123747
    124          1           0      -23.195407   -0.090831   -3.025649
    125          1           0      -25.246142   -5.111308    0.470644
    126          1           0      -29.930957   -1.718359    2.697341
    127          1           0      -26.092639    3.773080   -2.652718
    128          1           0      -23.702108    2.384564   -3.335591
    129          1           0      -24.885333    2.181646   -5.180460
    130          1           0      -26.379307    2.577941   -4.284279
    131          1           0      -25.881756    0.918229   -4.437638
    132          1           0      -23.319486    3.530829   -1.628519
    133          1           0      -24.409572    3.918810   -0.288555
    134          1           0      -25.120822    5.923233   -1.993069
    135          1           0      -23.568152    5.483316   -2.722512
    136          1           0      -20.927779   -2.571333   -2.525243
    137          1           0      -21.855577   -1.498101   -3.624144
    138          1           0      -21.818347   -3.265035   -3.782650
    139          1           0      -20.668090   -4.602033   -1.484081
    140          1           0      -21.453956   -5.077351   -2.878673
    141          1           0      -21.112832   -6.276508   -1.559594
    142          1           0      -26.715359   -4.822533    2.758144
    143          1           0      -29.476613   -4.305439    1.703274
    144          1           0      -27.097450   -6.263204    0.387074
    145          1           0      -28.616532   -6.562859    1.345115
    146          1           0      -27.112338   -6.889907    2.053425
    147          1           0      -29.091582   -2.964510    4.181016
    148          1           0      -27.859332   -4.086409    4.256319
    149          1           0      -29.618439   -5.419189    5.276498
    150          1           0      -30.372987   -5.521346    3.648008
    151          1           0      -30.811891   -4.234629    4.789839
    152          1           0      -30.915783    0.294085    3.417266
    153          1           0      -31.747499    0.763720    1.972464
    154          1           0      -31.164357    2.042485    3.105856
    155          1           0      -28.522170    4.059194   -1.109852
    156          1           0      -26.278484    7.598888   -0.747362
    157          1           0      -27.075873    7.917232    0.917014
    158          1           0      -27.744295    8.361628   -0.669902
 ---------------------------------------------------------------------

 SCF Done:  E(RwB97XD) =  -4070.54057345     A.U. after   20 cycles

 Excitation energies and oscillator strengths:

 Excited State   1:      Singlet-A      1.6286 eV  761.31 nm  f=0.3513  <S**2>=0.000
     309 -> 315        0.20689
     312 -> 314        0.67852
     309 <- 315        0.12523
 This state for optimization and/or second-order correction.
 Total Energy, E(TD-HF/TD-DFT) =  -4070.48072521
 Copying the excited state density for this state as the 1-particle RhoCI density.

 Excited State   2:      Singlet-A      1.6949 eV  731.51 nm  f=0.3807  <S**2>=0.000
     310 -> 316        0.16834
     311 -> 313        0.68667
     310 <- 316        0.11048

 Excited State   3:      Singlet-A      2.1227 eV  584.09 nm  f=0.2214  <S**2>=0.000
     310 -> 313        0.67196
     311 -> 316       -0.20544

 Excited State   4:      Singlet-A      2.1415 eV  578.95 nm  f=0.0705  <S**2>=0.000
     309 -> 314        0.61694
     312 -> 315       -0.33158

 Excited State   5:      Singlet-A      3.1855 eV  389.21 nm  f=0.0153  <S**2>=0.000
     308 -> 314        0.65682
     308 -> 317       -0.10733
     312 -> 315        0.20214

 The electronic state is 1-A.
 Alpha  occ. eigenvalues --  -46.96562 -46.95783 -19.30311 -19.29191 -19.24625
 Alpha  occ. eigenvalues --  -19.24316 -19.23924 -19.23810 -19.23453 -19.23103
 Alpha  occ. eigenvalues --  -14.47029 -14.46579 -14.46385 -14.44767 -14.44735
 Alpha  occ. eigenvalues --  -14.44419 -14.44369 -14.44170 -10.42586 -10.42323
 Alpha  occ. eigenvalues --  -10.39933 -10.39125 -10.39018 -10.38279 -10.36244
 Alpha  occ. eigenvalues --  -10.36130 -10.35415 -10.35370 -10.35294 -10.35096
 Alpha  occ. eigenvalues --  -10.35029 -10.35026 -10.34745 -10.34739 -10.34734
 Alpha  occ. eigenvalues --  -10.34076 -10.34026 -10.33983 -10.33929 -10.33832
 Alpha  occ. eigenvalues --  -10.33585 -10.33356 -10.33019 -10.32963 -10.32961
 Alpha  occ. eigenvalues --  -10.32849 -10.32825 -10.32455 -10.32401 -10.32268
 Alpha  occ. eigenvalues --  -10.32243 -10.32239 -10.32233 -10.32212 -10.32133
 Alpha  occ. eigenvalues --  -10.31975 -10.31916 -10.31900 -10.31740 -10.31485
 Alpha  occ. eigenvalues --  -10.31316 -10.31300 -10.31299 -10.31160 -10.31006
 Alpha  occ. eigenvalues --  -10.30881 -10.30856 -10.30695 -10.30563 -10.30561
 Alpha  occ. eigenvalues --  -10.30394 -10.30354 -10.30274 -10.30167 -10.30094
 Alpha  occ. eigenvalues --  -10.30020 -10.29878 -10.29840 -10.29598 -10.29548
 Alpha  occ. eigenvalues --  -10.29517 -10.29398 -10.29347 -10.29333 -10.29082
 Alpha  occ. eigenvalues --  -10.29002  -3.22356  -3.21762  -1.95900  -1.95503
 Alpha  occ. eigenvalues --   -1.95336  -1.95288  -1.94894  -1.94722  -1.19252
 Alpha  occ. eigenvalues --   -1.16321  -1.14427  -1.13044  -1.12442  -1.11056
 Alpha  occ. eigenvalues --   -1.09918  -1.08532  -1.07827  -1.06974  -1.06917
 Alpha  occ. eigenvalues --   -1.06613  -1.05691  -1.04445  -1.03676  -1.02963
 Alpha  occ. eigenvalues --   -0.93938  -0.93190  -0.91147  -0.90848  -0.90816
 Alpha  occ. eigenvalues --   -0.90694  -0.90180  -0.89882  -0.89770  -0.89622
 Alpha  occ. eigenvalues --   -0.89040  -0.88088  -0.87349  -0.87127  -0.86616
 Alpha  occ. eigenvalues --   -0.86275  -0.85935  -0.84945  -0.84797  -0.84544
 Alpha  occ. eigenvalues --   -0.84077  -0.83915  -0.83072  -0.82876  -0.82378
 Alpha  occ. eigenvalues --   -0.82227  -0.80773  -0.79856  -0.79308  -0.79037
 Alpha  occ. eigenvalues --   -0.78604  -0.78353  -0.78227  -0.78130  -0.77385
 Alpha  occ. eigenvalues --   -0.76931  -0.74865  -0.74727  -0.73734  -0.73089
 Alpha  occ. eigenvalues --   -0.71208  -0.70869  -0.70718  -0.70463  -0.70111
 Alpha  occ. eigenvalues --   -0.69971  -0.69281  -0.68705  -0.68055  -0.67534
 Alpha  occ. eigenvalues --   -0.67508  -0.67173  -0.66981  -0.66791  -0.66238
 Alpha  occ. eigenvalues --   -0.66046  -0.64435  -0.63493  -0.63050  -0.62265
 Alpha  occ. eigenvalues --   -0.62071  -0.61271  -0.61059  -0.61021  -0.60655
 Alpha  occ. eigenvalues --   -0.60032  -0.59832  -0.59529  -0.59269  -0.59172
 Alpha  occ. eigenvalues --   -0.58575  -0.58237  -0.57834  -0.57638  -0.57481
 Alpha  occ. eigenvalues --   -0.56987  -0.56892  -0.56493  -0.55918  -0.55833
 Alpha  occ. eigenvalues --   -0.55831  -0.55408  -0.55368  -0.55030  -0.55019
 Alpha  occ. eigenvalues --   -0.54598  -0.54594  -0.54472  -0.54378  -0.53982
 Alpha  occ. eigenvalues --   -0.53931  -0.53775  -0.53698  -0.53472  -0.53222
 Alpha  occ. eigenvalues --   -0.52619  -0.52531  -0.52184  -0.52085  -0.52072
 Alpha  occ. eigenvalues --   -0.51799  -0.51751  -0.51639  -0.51634  -0.51537
 Alpha  occ. eigenvalues --   -0.51404  -0.51182  -0.51171  -0.50940  -0.50757
 Alpha  occ. eigenvalues --   -0.50650  -0.50494  -0.50236  -0.50199  -0.49944
 Alpha  occ. eigenvalues --   -0.49728  -0.49697  -0.49468  -0.49351  -0.49246
 Alpha  occ. eigenvalues --   -0.48926  -0.48852  -0.48550  -0.48376  -0.48218
 Alpha  occ. eigenvalues --   -0.48145  -0.47756  -0.47712  -0.47563  -0.47457
 Alpha  occ. eigenvalues --   -0.47306  -0.47253  -0.47105  -0.47049  -0.46879
 Alpha  occ. eigenvalues --   -0.46815  -0.46733  -0.46523  -0.46430  -0.46280
 Alpha  occ. eigenvalues --   -0.45941  -0.45933  -0.45619  -0.45511  -0.45426
 Alpha  occ. eigenvalues --   -0.45275  -0.45144  -0.44908  -0.44874  -0.44730
 Alpha  occ. eigenvalues --   -0.44663  -0.44356  -0.44160  -0.43984  -0.43776
 Alpha  occ. eigenvalues --   -0.43467  -0.43366  -0.43272  -0.43204  -0.42912
 Alpha  occ. eigenvalues --   -0.42790  -0.42554  -0.42270  -0.42093  -0.42009
 Alpha  occ. eigenvalues --   -0.41979  -0.41787  -0.41762  -0.41740  -0.40559
 Alpha  occ. eigenvalues --   -0.40257  -0.39918  -0.39567  -0.39401  -0.39155
 Alpha  occ. eigenvalues --   -0.39099  -0.38861  -0.38469  -0.38350  -0.38171
 Alpha  occ. eigenvalues --   -0.37719  -0.37699  -0.36209  -0.36100  -0.35628
 Alpha  occ. eigenvalues --   -0.35558  -0.35040  -0.34762  -0.33976  -0.33621
 Alpha  occ. eigenvalues --   -0.33608  -0.33280  -0.32772  -0.32765  -0.32619
 Alpha  occ. eigenvalues --   -0.32398  -0.31795  -0.31133  -0.26215  -0.25466
 Alpha  occ. eigenvalues --   -0.23466  -0.23134
 Alpha virt. eigenvalues --   -0.07425  -0.07135  -0.00677   0.01573   0.02332
 Alpha virt. eigenvalues --    0.03040   0.04127   0.04563   0.04711   0.05485
 Alpha virt. eigenvalues --    0.06733   0.07165   0.07580   0.07724   0.08918

 Mulliken charges:
               1
     1  Mg   0.941954
     2  C   -0.038147
     3  C   -0.073421
     4  C   -0.078290
     5  C   -0.055616
     6  N   -0.319935
     7  C   -0.053010
     8  C   -0.002963
     9  C   -0.147409
    10  C    0.056764
    11  C    0.022577
    12  C   -0.011782
    13  C   -0.138073
    14  H    0.013822
    15  N   -0.462259
    16  C    0.168063
    17  C   -0.174987
    18  C   -0.086667
    19  C    0.201754
    20  C    0.084682
    21  C    0.035907
    22  O   -0.235994
    23  C    0.005259
    24  N   -0.322733
    25  C    0.047468
    26  C   -0.151697
    27  C   -0.062459
    28  C    0.046598
    29  C    0.017238
    30  C   -0.028936
    31  C   -0.050498
    32  N   -0.501277
    33  C    0.150853
    34  C   -0.184774
    35  C   -0.035112
    36  C    0.186954
    37  C    0.087869
    38  C    0.097750
    39  O   -0.231122
    40  C   -0.050460
    41  C    0.238280
    42  O   -0.235909
    43  O   -0.346806
    44  C    0.130794
    45  H    0.013638
    46  H   -0.019970
    47  H    0.003335
    48  H    0.035232
    49  H    0.061582
    50  H    0.033391
    51  H    0.044483
    52  H    0.040386
    53  H    0.041172
    54  H    0.041322
    55  H    0.087264
    56  H    0.047489
    57  H    0.029827
    58  H    0.048589
    59  H    0.062120
    60  H    0.066392
    61  H    0.056738
    62  H    0.054707
    63  H    0.040397
    64  H    0.018083
    65  H    0.043573
    66  H    0.031208
    67  H    0.046354
    68  H    0.037482
    69  H    0.032166
    70  H    0.053201
    71  H    0.028103
    72  H    0.026655
    73  H    0.054279
    74  H    0.056628
    75  H    0.063011
    76  H    0.067934
    77  H    0.072751
    78  H    0.059144
    79  H    0.067088
    80  Mg   0.973808
    81  C   -0.021028
    82  C   -0.054229
    83  C   -0.053590
    84  C   -0.110041
    85  N   -0.301811
    86  C   -0.007166
    87  C   -0.073359
    88  C   -0.132733
    89  C    0.070347
    90  C    0.036915
    91  C    0.034158
    92  C   -0.096394
    93  H    0.049868
    94  N   -0.460798
    95  C    0.091554
    96  C   -0.147539
    97  C   -0.078549
    98  C    0.134329
    99  C    0.063444
   100  C    0.051887
   101  O   -0.201381
   102  C   -0.020646
   103  N   -0.271197
   104  C    0.014668
   105  C   -0.095354
   106  C   -0.044773
   107  C    0.058158
   108  C    0.023256
   109  C   -0.029465
   110  C   -0.028146
   111  N   -0.485518
   112  C    0.125817
   113  C   -0.223705
   114  C   -0.055344
   115  C    0.152444
   116  C    0.077580
   117  C    0.163235
   118  O   -0.174814
   119  C   -0.083154
   120  C    0.267173
   121  O   -0.273050
   122  O   -0.390004
   123  C    0.157571
   124  H   -0.025710
   125  H    0.021063
   126  H   -0.000154
   127  H    0.020587
   128  H    0.035033
   129  H    0.041933
   130  H    0.027853
   131  H    0.045275
   132  H    0.025024
   133  H    0.073834
   134  H    0.043923
   135  H    0.037077
   136  H    0.048489
   137  H    0.053694
   138  H    0.042015
   139  H    0.049852
   140  H    0.042937
   141  H    0.056151
   142  H    0.045877
   143  H    0.031656
   144  H    0.049310
   145  H    0.037542
   146  H    0.032018
   147  H    0.020877
   148  H    0.014722
   149  H    0.040147
   150  H    0.034903
   151  H    0.038236
   152  H    0.028674
   153  H    0.052705
   154  H    0.061913
   155  H    0.080210
   156  H    0.043677
   157  H    0.073793
   158  H    0.042440
 Sum of Mulliken charges =  -0.00000

 Dipole moment (field-independent basis, Debye):
    X=              4.9001    Y=             -0.8730    Z=             -4.7153  Tot=              6.8562
 Quadrupole moment (field-independent basis, Debye-Ang):
   XX=           -551.2631   YY=           -504.8783   ZZ=           -517.8377
   XY=             76.5430   XZ=             23.6355   YZ=             -3.9312

 Normal termination of Gaussian 16 at Sat Sep 18 15:31:54 2021.
