 Gaussian 16, Revision A.03,
 Gaussian 16:  ES64L-G16RevA.03 25-Dec-2016

 --------------------------------
 #p wB97XD/Def2SVP td=(nstates=5)
 --------------------------------

 --------------------------------
 TDDFT excited states in gaussian
 --------------------------------
 Symbolic Z-matrix:
 Charge =  0 Multiplicity = 1

                         Standard orientation:
 ---------------------------------------------------------------------
 Center     Atomic      Atomic             Coordinates (Angstroms)
 Number     Number       Type             X           Y           Z
 ---------------------------------------------------------------------
      1         12           0      -31.860285    0.134268    0.285583
      2          6           0      -29.617411   -1.518267   -1.803956
      3          6           0      -32.657955    2.264030   -2.295634
      4          6           0      -33.781111    1.795810    2.510904
      5          6           0      -30.657305   -1.877472    2.982887
      6          7           0      -31.114843    0.381936   -1.742833
      7          6           0      -30.228264   -0.405930   -2.409671
      8          6           0      -30.119338   -0.001598   -3.885590
      9          6           0      -31.017719    1.312908   -3.921929
     10          6           0      -31.656282    1.300782   -2.529100
     11          6           0      -30.185971    2.569660   -4.148060
     12          6           0      -30.727835   -1.012819   -4.921355
     13          6           0      -30.133724   -1.027057   -6.305823
     14          1           0      -29.286025    0.083487   -6.740365
     15          7           0      -33.097377    1.713763    0.100878
     16          6           0      -33.282337    2.473484   -1.071552
     17          6           0      -34.363963    3.382167   -0.795106
     18          6           0      -34.759173    3.251825    0.560291
     19          6           0      -33.864047    2.216056    1.132325
     20          6           0      -34.804891    4.462331   -1.759587
     21          6           0      -35.828584    3.908911    1.327808
     22          8           0      -35.920804    3.840034    2.534918
     23          6           0      -36.832447    4.887127    0.616568
     24          7           0      -32.339735   -0.101174    2.463064
     25          6           0      -33.122514    0.717712    3.099765
     26          6           0      -33.188570    0.377625    4.619146
     27          6           0      -32.271734   -0.821349    4.779905
     28          6           0      -31.642072   -0.958744    3.347051
     29          6           0      -32.862584    1.675901    5.497457
     30          6           0      -33.003099   -2.079281    5.294299
     31          6           0      -32.947703   -2.361643    6.842232
     32          7           0      -30.686883   -1.496910    0.538964
     33          6           0      -30.277297   -2.217828    1.688096
     34          6           0      -29.396750   -3.269141    1.346497
     35          6           0      -29.057492   -2.950314   -0.036771
     36          6           0      -29.917099   -1.887007   -0.435387
     37          6           0      -28.680289   -4.185225    2.321741
     38          6           0      -28.177973   -3.369711   -1.064755
     39          8           0      -27.352522   -4.272357   -1.124177
     40          6           0      -28.607072   -2.433162   -2.376131
     41          6           0      -27.324414   -1.817507   -2.852917
     42          8           0      -26.595744   -1.096459   -2.163294
     43          8           0      -26.953094   -2.260806   -4.156937
     44          6           0      -25.675917   -1.697520   -4.696185
     45          1           0      -32.860432    2.903894   -3.157884
     46          1           0      -34.274253    2.492161    3.191815
     47          1           0      -30.293196   -2.553330    3.759022
     48          1           0      -29.066275    0.218802   -4.061878
     49          1           0      -31.761727    1.296829   -4.718247
     50          1           0      -29.185361    2.322425   -4.501647
     51          1           0      -30.166863    3.225474   -3.277207
     52          1           0      -30.513721    3.167160   -4.998782
     53          1           0      -31.797326   -0.814170   -4.981457
     54          1           0      -30.689588   -1.995638   -4.451053
     55          1           0      -30.967256   -0.985898   -7.006641
     56          1           0      -29.552619   -1.940393   -6.433493
     57          1           0      -34.588844    5.469718   -1.403944
     58          1           0      -35.869033    4.324098   -1.955411
     59          1           0      -34.322923    4.458812   -2.737102
     60          1           0      -36.311669    5.842149    0.542419
     61          1           0      -37.673040    5.105553    1.275339
     62          1           0      -37.070285    4.538574   -0.387704
     63          1           0      -34.238397    0.122223    4.764348
     64          1           0      -31.401667   -0.586434    5.391077
     65          1           0      -32.027219    1.483625    6.170587
     66          1           0      -33.662746    1.948413    6.185911
     67          1           0      -32.593024    2.437557    4.764643
     68          1           0      -32.544811   -2.923682    4.778256
     69          1           0      -34.034069   -2.001462    4.948802
     70          1           0      -32.027614   -2.911398    7.043609
     71          1           0      -33.799451   -2.844173    7.321978
     72          1           0      -32.779073   -1.353009    7.217976
     73          1           0      -29.411826   -4.972200    2.503232
     74          1           0      -28.458387   -3.674679    3.258119
     75          1           0      -27.663771   -4.478021    2.055818
     76          1           0      -29.086622   -3.070954   -3.119695
     77          1           0      -24.819182   -1.997015   -4.093597
     78          1           0      -25.597557   -0.617390   -4.822634
     79          1           0      -25.640822   -2.237314   -5.642487
     80         12           0       31.739791    0.573685   -0.417754
     81          6           0       29.571822   -2.212625    0.200947
     82          6           0       29.024213    2.664251    0.462154
     83          6           0       33.892241    3.141292   -0.231621
     84          6           0       34.385766   -1.636731   -0.579781
     85          7           0       29.520514    0.281169    0.252307
     86          6           0       28.963317   -0.952940    0.438550
     87          6           0       27.634141   -0.808310    1.162582
     88          6           0       27.415456    0.747503    0.945769
     89          6           0       28.711021    1.332583    0.529585
     90          6           0       26.298663    1.181116   -0.062199
     91          6           0       27.748755   -1.374464    2.614296
     92          6           0       26.603743   -2.304633    3.190934
     93          1           0       25.804647   -1.853631    4.426819
     94          7           0       31.512252    2.573727   -0.152450
     95          6           0       30.323475    3.272227    0.186498
     96          6           0       30.575615    4.699670    0.257103
     97          6           0       32.011093    4.821008    0.059006
     98          6           0       32.510024    3.471392   -0.127382
     99          6           0       29.520909    5.656130    0.629854
    100          6           0       32.738032    6.176976    0.042739
    101          8           0       32.034254    7.192649    0.316548
    102          6           0       34.232918    6.388798   -0.277785
    103          7           0       33.903579    0.788773   -0.136496
    104          6           0       34.545947    1.933581   -0.267272
    105          6           0       36.014674    1.663278   -0.207166
    106          6           0       36.124474    0.124846   -0.381217
    107          6           0       34.694933   -0.309777   -0.276832
    108          6           0       37.005024    2.441326   -1.175223
    109          6           0       37.078067   -0.624131    0.685847
    110          6           0       38.356600   -1.327436    0.168004
    111          7           0       31.958961   -1.453636   -0.433958
    112          6           0       33.068516   -2.208199   -0.505433
    113          6           0       32.761644   -3.590962   -0.464449
    114          6           0       31.384634   -3.627215   -0.232957
    115          6           0       30.927366   -2.286351   -0.175943
    116          6           0       33.622443   -4.779987   -0.617731
    117          6           0       30.328258   -4.564009   -0.003709
    118          8           0       30.396639   -5.769158    0.088411
    119          6           0       29.022648   -3.608024    0.354585
    120          6           0       27.939465   -3.864275   -0.602130
    121          8           0       28.075297   -3.990818   -1.825672
    122          8           0       26.769856   -3.901843    0.126653
    123          6           0       25.542557   -4.151867   -0.627354
    124          1           0       28.225637    3.361554    0.719999
    125          1           0       34.643170    3.918396   -0.076822
    126          1           0       35.145186   -2.372671   -0.852724
    127          1           0       26.890329   -1.298546    0.533954
    128          1           0       27.267185    1.021686    1.990910
    129          1           0       26.770546    1.811510   -0.817235
    130          1           0       25.502814    1.778199    0.382466
    131          1           0       25.841038    0.373754   -0.634720
    132          1           0       27.773654   -0.435021    3.166051
    133          1           0       28.681736   -1.883534    2.855101
    134          1           0       27.096736   -3.256380    3.388168
    135          1           0       25.949281   -2.583694    2.365717
    136          1           0       29.092117    5.289200    1.562674
    137          1           0       28.713757    5.623093   -0.101640
    138          1           0       29.777919    6.715416    0.655295
    139          1           0       34.813102    6.012675    0.565004
    140          1           0       34.279741    7.409286   -0.656510
    141          1           0       34.384673    5.741225   -1.141994
    142          1           0       36.344988    1.968844    0.784847
    143          1           0       36.368009    0.039692   -1.440321
    144          1           0       37.943871    2.481771   -0.622359
    145          1           0       36.581131    3.423015   -1.386077
    146          1           0       37.116420    1.821042   -2.064741
    147          1           0       36.408854   -1.336087    1.168652
    148          1           0       37.297138    0.087683    1.481623
    149          1           0       38.457224   -2.346726    0.538470
    150          1           0       39.222521   -0.736958    0.468537
    151          1           0       38.439255   -1.341323   -0.918930
    152          1           0       33.042289   -5.670346   -0.858103
    153          1           0       34.025842   -4.795436    0.394923
    154          1           0       34.503816   -4.485014   -1.187041
    155          1           0       28.750099   -3.688211    1.406301
    156          1           0       25.630851   -5.034419   -1.261328
    157          1           0       25.292054   -3.274232   -1.225082
    158          1           0       24.733497   -4.341276    0.078126
 ---------------------------------------------------------------------

 SCF Done:  E(RwB97XD) =  -4070.61989959     A.U. after   19 cycles

 Excitation energies and oscillator strengths:

 Excited State   1:      Singlet-A      1.6376 eV  757.10 nm  f=0.3876  <S**2>=0.000
     310 -> 315       -0.19097
     312 -> 314        0.68326
     310 <- 315       -0.12121
 This state for optimization and/or second-order correction.
 Total Energy, E(TD-HF/TD-DFT) =  -4070.55971818
 Copying the excited state density for this state as the 1-particle RhoCI density.

 Excited State   2:      Singlet-A      1.6919 eV  732.81 nm  f=0.3738  <S**2>=0.000
     309 -> 316        0.17799
     311 -> 313        0.68410
     309 <- 316        0.11255

 Excited State   3:      Singlet-A      2.1733 eV  570.48 nm  f=0.1434  <S**2>=0.000
     309 -> 313        0.64713
     311 -> 316       -0.26327

 Excited State   4:      Singlet-A      2.1989 eV  563.84 nm  f=0.1290  <S**2>=0.000
     310 -> 314        0.63869
     312 -> 315        0.29219

 Excited State   5:      Singlet-A      3.3072 eV  374.89 nm  f=0.0054  <S**2>=0.000
     308 -> 314        0.66954
     308 -> 318        0.10683

 The electronic state is 1-A.
 Alpha  occ. eigenvalues --  -46.95243 -46.94341 -19.31496 -19.29362 -19.25517
 Alpha  occ. eigenvalues --  -19.24805 -19.24379 -19.24366 -19.23212 -19.23175
 Alpha  occ. eigenvalues --  -14.47289 -14.46537 -14.46253 -14.45960 -14.44860
 Alpha  occ. eigenvalues --  -14.44549 -14.44416 -14.43916 -10.43943 -10.42912
 Alpha  occ. eigenvalues --  -10.39520 -10.39489 -10.39241 -10.38308 -10.36187
 Alpha  occ. eigenvalues --  -10.35888 -10.35712 -10.35346 -10.35206 -10.34921
 Alpha  occ. eigenvalues --  -10.34876 -10.34842 -10.34779 -10.34676 -10.34666
 Alpha  occ. eigenvalues --  -10.34390 -10.34384 -10.34316 -10.33976 -10.33767
 Alpha  occ. eigenvalues --  -10.33091 -10.32950 -10.32818 -10.32792 -10.32780
 Alpha  occ. eigenvalues --  -10.32711 -10.32402 -10.32247 -10.32209 -10.32063
 Alpha  occ. eigenvalues --  -10.32062 -10.32004 -10.31874 -10.31844 -10.31840
 Alpha  occ. eigenvalues --  -10.31788 -10.31672 -10.31660 -10.31624 -10.31615
 Alpha  occ. eigenvalues --  -10.31550 -10.31538 -10.31526 -10.31510 -10.31428
 Alpha  occ. eigenvalues --  -10.31227 -10.31186 -10.31099 -10.30811 -10.30787
 Alpha  occ. eigenvalues --  -10.30661 -10.30552 -10.30471 -10.30468 -10.30289
 Alpha  occ. eigenvalues --  -10.30285 -10.30268 -10.30118 -10.29890 -10.29890
 Alpha  occ. eigenvalues --  -10.29745 -10.29687 -10.29611 -10.28972 -10.28610
 Alpha  occ. eigenvalues --  -10.28502  -3.21240  -3.20450  -1.94818  -1.94352
 Alpha  occ. eigenvalues --   -1.94224  -1.94059  -1.93572  -1.93439  -1.18720
 Alpha  occ. eigenvalues --   -1.15572  -1.13424  -1.13079  -1.10807  -1.10364
 Alpha  occ. eigenvalues --   -1.09448  -1.08006  -1.07462  -1.07209  -1.06748
 Alpha  occ. eigenvalues --   -1.05953  -1.05745  -1.05402  -1.04548  -1.04387
 Alpha  occ. eigenvalues --   -0.95154  -0.94038  -0.91236  -0.91224  -0.90846
 Alpha  occ. eigenvalues --   -0.90358  -0.90198  -0.89996  -0.89881  -0.89795
 Alpha  occ. eigenvalues --   -0.89411  -0.89409  -0.88196  -0.87964  -0.86581
 Alpha  occ. eigenvalues --   -0.86245  -0.85754  -0.84888  -0.84601  -0.84148
 Alpha  occ. eigenvalues --   -0.83912  -0.83454  -0.83325  -0.82437  -0.82340
 Alpha  occ. eigenvalues --   -0.81985  -0.80805  -0.80181  -0.79583  -0.79186
 Alpha  occ. eigenvalues --   -0.78815  -0.78773  -0.78215  -0.77800  -0.77279
 Alpha  occ. eigenvalues --   -0.77004  -0.75193  -0.75120  -0.74188  -0.73613
 Alpha  occ. eigenvalues --   -0.71722  -0.71571  -0.71374  -0.70912  -0.70424
 Alpha  occ. eigenvalues --   -0.69955  -0.69318  -0.68738  -0.68062  -0.67725
 Alpha  occ. eigenvalues --   -0.67614  -0.67189  -0.67108  -0.66970  -0.66771
 Alpha  occ. eigenvalues --   -0.66621  -0.64948  -0.63387  -0.62435  -0.62136
 Alpha  occ. eigenvalues --   -0.61921  -0.61607  -0.61498  -0.61336  -0.60893
 Alpha  occ. eigenvalues --   -0.60546  -0.60392  -0.59747  -0.59588  -0.59317
 Alpha  occ. eigenvalues --   -0.58290  -0.58173  -0.57894  -0.57592  -0.57007
 Alpha  occ. eigenvalues --   -0.56844  -0.56570  -0.56463  -0.55959  -0.55656
 Alpha  occ. eigenvalues --   -0.55386  -0.55283  -0.55157  -0.54894  -0.54885
 Alpha  occ. eigenvalues --   -0.54568  -0.54444  -0.54283  -0.54231  -0.54050
 Alpha  occ. eigenvalues --   -0.53958  -0.53637  -0.53493  -0.53343  -0.53173
 Alpha  occ. eigenvalues --   -0.52906  -0.52519  -0.52515  -0.52241  -0.52144
 Alpha  occ. eigenvalues --   -0.51984  -0.51891  -0.51777  -0.51651  -0.51518
 Alpha  occ. eigenvalues --   -0.51496  -0.51342  -0.51213  -0.51012  -0.50721
 Alpha  occ. eigenvalues --   -0.50584  -0.50397  -0.50309  -0.50062  -0.49847
 Alpha  occ. eigenvalues --   -0.49648  -0.49605  -0.49595  -0.49535  -0.49428
 Alpha  occ. eigenvalues --   -0.49390  -0.49207  -0.49073  -0.48976  -0.48849
 Alpha  occ. eigenvalues --   -0.48620  -0.48568  -0.48379  -0.48080  -0.47884
 Alpha  occ. eigenvalues --   -0.47757  -0.47535  -0.47371  -0.47042  -0.46957
 Alpha  occ. eigenvalues --   -0.46943  -0.46661  -0.46505  -0.46467  -0.46233
 Alpha  occ. eigenvalues --   -0.46088  -0.45821  -0.45675  -0.45565  -0.45525
 Alpha  occ. eigenvalues --   -0.45289  -0.45203  -0.45011  -0.44954  -0.44900
 Alpha  occ. eigenvalues --   -0.44826  -0.44763  -0.44573  -0.44512  -0.44238
 Alpha  occ. eigenvalues --   -0.43932  -0.43766  -0.43484  -0.43465  -0.43191
 Alpha  occ. eigenvalues --   -0.43137  -0.43072  -0.42775  -0.42693  -0.42233
 Alpha  occ. eigenvalues --   -0.42182  -0.42133  -0.41783  -0.41332  -0.40857
 Alpha  occ. eigenvalues --   -0.40654  -0.40554  -0.40208  -0.39813  -0.39760
 Alpha  occ. eigenvalues --   -0.39583  -0.39253  -0.38972  -0.38541  -0.38111
 Alpha  occ. eigenvalues --   -0.37778  -0.37745  -0.37139  -0.36462  -0.36095
 Alpha  occ. eigenvalues --   -0.35918  -0.35556  -0.35285  -0.33856  -0.33548
 Alpha  occ. eigenvalues --   -0.33168  -0.33141  -0.32756  -0.32318  -0.32232
 Alpha  occ. eigenvalues --   -0.31754  -0.31601  -0.31546  -0.26149  -0.26078
 Alpha  occ. eigenvalues --   -0.23394  -0.23108
 Alpha virt. eigenvalues --   -0.07423  -0.07285   0.00185   0.00247   0.02235
 Alpha virt. eigenvalues --    0.02392   0.04483   0.04507   0.05484   0.06410
 Alpha virt. eigenvalues --    0.06835   0.06891   0.07584   0.07882   0.08522

 Mulliken charges:
               1
     1  Mg   0.981169
     2  C   -0.071092
     3  C   -0.108073
     4  C   -0.077319
     5  C   -0.077048
     6  N   -0.334005
     7  C    0.003282
     8  C   -0.040056
     9  C   -0.140283
    10  C    0.072984
    11  C    0.018717
    12  C    0.018233
    13  C   -0.105820
    14  H    0.036520
    15  N   -0.531780
    16  C    0.234381
    17  C   -0.151222
    18  C   -0.045557
    19  C    0.152437
    20  C    0.052160
    21  C    0.017232
    22  O   -0.224855
    23  C   -0.005358
    24  N   -0.321220
    25  C    0.055838
    26  C   -0.094114
    27  C   -0.043690
    28  C    0.027664
    29  C    0.014722
    30  C   -0.005381
    31  C   -0.042802
    32  N   -0.449116
    33  C    0.125019
    34  C   -0.138752
    35  C   -0.084715
    36  C    0.187696
    37  C    0.059568
    38  C    0.113483
    39  O   -0.211590
    40  C   -0.083719
    41  C    0.288677
    42  O   -0.260484
    43  O   -0.404785
    44  C    0.141066
    45  H    0.004104
    46  H    0.032120
    47  H    0.000464
    48  H    0.043805
    49  H    0.038841
    50  H    0.033326
    51  H    0.049258
    52  H    0.023054
    53  H    0.024368
    54  H    0.025383
    55  H    0.048835
    56  H    0.067396
    57  H    0.063463
    58  H    0.049914
    59  H    0.030817
    60  H    0.053348
    61  H    0.056024
    62  H    0.038221
    63  H    0.048299
    64  H    0.027366
    65  H    0.030057
    66  H    0.045680
    67  H    0.051204
    68  H    0.026150
    69  H    0.026671
    70  H    0.037033
    71  H    0.054577
    72  H    0.027402
    73  H    0.054150
    74  H    0.037491
    75  H    0.064156
    76  H    0.072273
    77  H    0.058572
    78  H    0.054406
    79  H    0.053765
    80  Mg   0.980745
    81  C   -0.123854
    82  C   -0.080684
    83  C   -0.101673
    84  C   -0.096463
    85  N   -0.314476
    86  C   -0.024940
    87  C   -0.047727
    88  C   -0.085470
    89  C    0.060919
    90  C    0.030209
    91  C   -0.009416
    92  C   -0.101144
    93  H    0.050331
    94  N   -0.481434
    95  C    0.127739
    96  C   -0.142816
    97  C   -0.097858
    98  C    0.230133
    99  C    0.077123
   100  C    0.025843
   101  O   -0.277720
   102  C    0.020147
   103  N   -0.347132
   104  C    0.019067
   105  C   -0.090636
   106  C   -0.109004
   107  C    0.094359
   108  C    0.033648
   109  C    0.010066
   110  C   -0.047581
   111  N   -0.436830
   112  C    0.106397
   113  C   -0.206222
   114  C   -0.066825
   115  C    0.192809
   116  C    0.118106
   117  C    0.144234
   118  O   -0.188412
   119  C   -0.050655
   120  C    0.292292
   121  O   -0.254425
   122  O   -0.371194
   123  C    0.136636
   124  H   -0.000080
   125  H   -0.036550
   126  H    0.002965
   127  H    0.018589
   128  H    0.029569
   129  H    0.037168
   130  H    0.045347
   131  H    0.037069
   132  H    0.031072
   133  H    0.053662
   134  H    0.048082
   135  H    0.042430
   136  H    0.047732
   137  H    0.033315
   138  H    0.069372
   139  H    0.083948
   140  H    0.065079
   141  H    0.043334
   142  H    0.038404
   143  H    0.032678
   144  H    0.040655
   145  H    0.041123
   146  H    0.031833
   147  H    0.033605
   148  H    0.025554
   149  H    0.046673
   150  H    0.035579
   151  H    0.033273
   152  H    0.080988
   153  H    0.046771
   154  H    0.029901
   155  H    0.059571
   156  H    0.065659
   157  H    0.052741
   158  H    0.056674
 Sum of Mulliken charges =  -0.00000

 Dipole moment (field-independent basis, Debye):
    X=             -2.6553    Y=              4.0249    Z=             -1.7237  Tot=              5.1206
 Quadrupole moment (field-independent basis, Debye-Ang):
   XX=           -145.6683   YY=           -568.2030   ZZ=           -479.6282
   XY=            -93.8030   XZ=             85.4164   YZ=            -30.4300

 Normal termination of Gaussian 16 at Mon Sep 20 09:28:43 2021.
