 Gaussian 16, Revision A.03,
 Gaussian 16:  ES64L-G16RevA.03 25-Dec-2016

 --------------------------------
 #p wB97XD/Def2SVP td=(nstates=5)
 --------------------------------

 --------------------------------
 TDDFT excited states in gaussian
 --------------------------------
 Symbolic Z-matrix:
 Charge =  0 Multiplicity = 1

                         Standard orientation:
 ---------------------------------------------------------------------
 Center     Atomic      Atomic             Coordinates (Angstroms)
 Number     Number       Type             X           Y           Z
 ---------------------------------------------------------------------
      1         12           0      -24.049019    0.515647    0.241121
      2          6           0      -22.821809   -2.415216   -1.052624
      3          6           0      -22.381300    2.226026   -2.218705
      4          6           0      -25.187673    3.495792    1.601398
      5          6           0      -25.342596   -1.218233    2.950490
      6          7           0      -22.678803   -0.013601   -1.455160
      7          6           0      -22.422673   -1.308873   -1.804577
      8          6           0      -21.607923   -1.374032   -3.004456
      9          6           0      -21.243781    0.066675   -3.326612
     10          6           0      -22.118420    0.857829   -2.258507
     11          6           0      -19.734217    0.488681   -3.293987
     12          6           0      -22.348949   -2.115456   -4.168803
     13          6           0      -21.464421   -2.944970   -5.162526
     14          1           0      -20.011472   -2.475364   -5.372394
     15          7           0      -23.889689    2.569329   -0.338515
     16          6           0      -23.154649    3.042382   -1.411992
     17          6           0      -23.277323    4.513371   -1.463199
     18          6           0      -24.116759    4.908895   -0.334172
     19          6           0      -24.458356    3.651894    0.354147
     20          6           0      -22.599174    5.402364   -2.492822
     21          6           0      -24.641792    6.289307   -0.015405
     22          8           0      -25.415612    6.433327    0.947352
     23          6           0      -24.276049    7.523676   -0.751355
     24          7           0      -25.047728    1.087218    2.060572
     25          6           0      -25.433623    2.337924    2.328850
     26          6           0      -26.319742    2.377629    3.585011
     27          6           0      -26.613630    0.815925    3.924776
     28          6           0      -25.662091    0.179162    2.851522
     29          6           0      -25.638860    3.180735    4.735832
     30          6           0      -28.079130    0.348776    3.708231
     31          6           0      -28.857189   -0.014637    4.981786
     32          7           0      -24.044403   -1.421917    0.912016
     33          6           0      -24.602786   -2.000081    2.054366
     34          6           0      -24.348970   -3.457900    2.063511
     35          6           0      -23.634549   -3.617421    0.852735
     36          6           0      -23.470327   -2.364249    0.204173
     37          6           0      -24.787525   -4.444654    3.029685
     38          6           0      -23.068683   -4.638161   -0.053374
     39          8           0      -23.050279   -5.838857    0.007722
     40          6           0      -22.485352   -3.880406   -1.298850
     41          6           0      -21.078251   -4.277206   -1.467335
     42          8           0      -20.215126   -3.879409   -0.668397
     43          8           0      -20.810036   -4.968096   -2.609219
     44          6           0      -19.417471   -5.226204   -2.961781
     45          1           0      -21.839360    2.740300   -3.015130
     46          1           0      -25.505595    4.446799    2.034357
     47          1           0      -25.875368   -1.734830    3.751449
     48          1           0      -20.699586   -1.926381   -2.761303
     49          1           0      -21.702626    0.392564   -4.260804
     50          1           0      -18.940763   -0.227060   -3.076494
     51          1           0      -19.631026    1.301909   -2.575995
     52          1           0      -19.401921    0.983489   -4.206925
     53          1           0      -22.988272   -1.411656   -4.701886
     54          1           0      -23.150242   -2.720203   -3.744587
     55          1           0      -21.943388   -2.987897   -6.141120
     56          1           0      -21.278953   -3.961863   -4.817914
     57          1           0      -22.105784    4.844010   -3.287630
     58          1           0      -21.812895    6.003391   -2.035191
     59          1           0      -23.348396    5.946315   -3.067769
     60          1           0      -24.888590    8.321773   -0.332996
     61          1           0      -24.434791    7.452521   -1.828179
     62          1           0      -23.201620    7.689195   -0.670112
     63          1           0      -27.284000    2.781892    3.276715
     64          1           0      -26.261230    0.530725    4.915964
     65          1           0      -26.290584    3.927848    5.188994
     66          1           0      -24.760824    3.713718    4.370006
     67          1           0      -25.307021    2.410197    5.432121
     68          1           0      -28.162383   -0.519596    3.055773
     69          1           0      -28.673858    1.103426    3.193077
     70          1           0      -28.462758    0.555926    5.822687
     71          1           0      -28.696890   -1.073669    5.181449
     72          1           0      -29.912589    0.123028    4.750305
     73          1           0      -24.766010   -5.460426    2.635536
     74          1           0      -25.790591   -4.257314    3.412408
     75          1           0      -24.019018   -4.514745    3.799618
     76          1           0      -23.139498   -4.251568   -2.088524
     77          1           0      -18.897662   -5.895378   -2.275595
     78          1           0      -18.875781   -4.293979   -3.121588
     79          1           0      -19.377126   -5.756131   -3.913310
     80         12           0       24.128206    0.531923   -0.115989
     81          6           0       21.900098   -2.181322   -0.126819
     82          6           0       21.783991    2.346448   -1.775653
     83          6           0       26.119852    3.082503    0.357594
     84          6           0       25.972003   -1.363565    2.328176
     85          7           0       22.139173    0.084125   -0.900592
     86          6           0       21.414057   -1.067552   -0.779425
     87          6           0       19.965662   -0.768530   -1.194256
     88          6           0       20.151543    0.394300   -2.162742
     89          6           0       21.391027    1.029348   -1.503702
     90          6           0       20.445027   -0.067714   -3.608787
     91          6           0       19.081159   -0.378590    0.047305
     92          6           0       17.898278   -1.374427    0.485817
     93          1           0       17.936304   -2.008806    1.886598
     94          7           0       23.951824    2.462748   -0.584602
     95          6           0       22.916525    3.025371   -1.295182
     96          6           0       23.262777    4.380943   -1.588391
     97          6           0       24.584167    4.646143   -1.098106
     98          6           0       24.962340    3.386475   -0.394330
     99          6           0       22.319950    5.360726   -2.367499
    100          6           0       25.376335    5.984420   -1.326302
    101          8           0       24.921530    6.836193   -2.026112
    102          6           0       26.771021    6.041330   -0.905682
    103          7           0       25.634412    0.926678    1.407365
    104          6           0       26.487636    1.919374    1.060159
    105          6           0       27.902720    1.697750    1.567450
    106          6           0       27.756065    0.497138    2.489752
    107          6           0       26.344395   -0.036084    2.062782
    108          6           0       28.935778    1.435574    0.409900
    109          6           0       27.878106    0.697635    4.073438
    110          6           0       29.074236    0.214070    4.848686
    111          7           0       24.122715   -1.414824    0.747756
    112          6           0       24.919576   -2.043260    1.713335
    113          6           0       24.423850   -3.363267    2.038076
    114          6           0       23.260494   -3.458808    1.314715
    115          6           0       23.069406   -2.260441    0.551037
    116          6           0       25.034029   -4.293202    3.002346
    117          6           0       22.134492   -4.332617    1.022697
    118          8           0       21.927097   -5.498086    1.382430
    119          6           0       21.279947   -3.598839    0.010701
    120          6           0       21.263809   -4.439132   -1.261578
    121          8           0       22.308751   -4.725044   -1.841691
    122          8           0       19.974310   -4.909910   -1.553997
    123          6           0       19.891870   -5.740127   -2.725859
    124          1           0       21.078340    2.847703   -2.440953
    125          1           0       26.889766    3.842594    0.216272
    126          1           0       26.597533   -1.972480    2.984530
    127          1           0       19.545885   -1.705582   -1.560928
    128          1           0       19.253739    1.010064   -2.126265
    129          1           0       19.705196    0.542037   -4.126218
    130          1           0       20.217313   -1.134033   -3.608450
    131          1           0       21.455517    0.096624   -3.983150
    132          1           0       18.583986    0.560740   -0.194416
    133          1           0       19.754491   -0.156012    0.874684
    134          1           0       17.973235   -2.223169   -0.194397
    135          1           0       16.893970   -0.974738    0.350568
    136          1           0       22.136210    6.344591   -1.936926
    137          1           0       21.364215    4.842102   -2.449721
    138          1           0       22.660831    5.552031   -3.385156
    139          1           0       26.928795    5.854644    0.156782
    140          1           0       27.163388    7.027850   -1.152373
    141          1           0       27.386636    5.431220   -1.565230
    142          1           0       28.307963    2.573684    2.075127
    143          1           0       28.459004   -0.285744    2.204970
    144          1           0       29.506510    2.321536    0.132150
    145          1           0       28.434377    0.936740   -0.419461
    146          1           0       29.661324    0.714501    0.789112
    147          1           0       27.000086    0.492977    4.685106
    148          1           0       27.941993    1.785262    4.031069
    149          1           0       29.673991    1.020119    5.270209
    150          1           0       29.726679   -0.360914    4.191117
    151          1           0       28.650850   -0.417435    5.629403
    152          1           0       25.600256   -3.700531    3.721352
    153          1           0       25.744793   -4.885174    2.425033
    154          1           0       24.290504   -4.956319    3.442179
    155          1           0       20.296702   -3.616337    0.478881
    156          1           0       19.925916   -5.196820   -3.670567
    157          1           0       18.973615   -6.326629   -2.737345
    158          1           0       20.673656   -6.495822   -2.797282
 ---------------------------------------------------------------------

 SCF Done:  E(RwB97XD) =  -4070.65152139     A.U. after   19 cycles

 Excitation energies and oscillator strengths:

 Excited State   1:      Singlet-A      1.6668 eV  743.86 nm  f=0.2765  <S**2>=0.000
     309 -> 315       -0.19624
     311 -> 313        0.67650
     309 <- 315       -0.11987
 This state for optimization and/or second-order correction.
 Total Energy, E(TD-HF/TD-DFT) =  -4070.59026857
 Copying the excited state density for this state as the 1-particle RhoCI density.

 Excited State   2:      Singlet-A      1.6697 eV  742.56 nm  f=0.4703  <S**2>=0.000
     310 -> 316       -0.19350
     312 -> 314        0.67582
     310 <- 316       -0.11792

 Excited State   3:      Singlet-A      2.1969 eV  564.36 nm  f=0.0830  <S**2>=0.000
     310 -> 314        0.62407
     312 -> 316        0.31820

 Excited State   4:      Singlet-A      2.2262 eV  556.94 nm  f=0.0510  <S**2>=0.000
     309 -> 313        0.60362
     311 -> 315        0.35684

 Excited State   5:      Singlet-A      3.4244 eV  362.06 nm  f=0.1931  <S**2>=0.000
     308 -> 314        0.53338
     310 -> 314        0.16254
     312 -> 316       -0.41061

 The electronic state is 1-A.
 Alpha  occ. eigenvalues --  -46.95223 -46.95035 -19.31293 -19.31189 -19.25560
 Alpha  occ. eigenvalues --  -19.24261 -19.24088 -19.24072 -19.23859 -19.23409
 Alpha  occ. eigenvalues --  -14.46735 -14.46682 -14.46407 -14.46289 -14.44122
 Alpha  occ. eigenvalues --  -14.43995 -14.43977 -14.43832 -10.44157 -10.43420
 Alpha  occ. eigenvalues --  -10.38984 -10.38935 -10.38872 -10.38617 -10.36073
 Alpha  occ. eigenvalues --  -10.35261 -10.35177 -10.35145 -10.34922 -10.34878
 Alpha  occ. eigenvalues --  -10.34699 -10.34692 -10.34666 -10.34575 -10.34420
 Alpha  occ. eigenvalues --  -10.34121 -10.34072 -10.33952 -10.33841 -10.33549
 Alpha  occ. eigenvalues --  -10.33345 -10.33292 -10.33287 -10.32677 -10.32631
 Alpha  occ. eigenvalues --  -10.32520 -10.32495 -10.32330 -10.32202 -10.32150
 Alpha  occ. eigenvalues --  -10.32060 -10.31966 -10.31951 -10.31949 -10.31947
 Alpha  occ. eigenvalues --  -10.31925 -10.31893 -10.31661 -10.31659 -10.31432
 Alpha  occ. eigenvalues --  -10.31432 -10.31332 -10.31253 -10.31220 -10.31032
 Alpha  occ. eigenvalues --  -10.31030 -10.30945 -10.30940 -10.30911 -10.30735
 Alpha  occ. eigenvalues --  -10.30525 -10.30367 -10.30127 -10.30100 -10.30092
 Alpha  occ. eigenvalues --  -10.29971 -10.29932 -10.29929 -10.29926 -10.29865
 Alpha  occ. eigenvalues --  -10.29501 -10.29431 -10.29361 -10.29316 -10.29207
 Alpha  occ. eigenvalues --  -10.29160  -3.21093  -3.21081  -1.94703  -1.94647
 Alpha  occ. eigenvalues --   -1.94220  -1.94198  -1.94069  -1.94049  -1.18616
 Alpha  occ. eigenvalues --   -1.18175  -1.14108  -1.13189  -1.11360  -1.11135
 Alpha  occ. eigenvalues --   -1.10470  -1.09313  -1.07116  -1.06787  -1.06283
 Alpha  occ. eigenvalues --   -1.06058  -1.05396  -1.04917  -1.04116  -1.03006
 Alpha  occ. eigenvalues --   -0.95062  -0.94455  -0.91017  -0.91011  -0.90851
 Alpha  occ. eigenvalues --   -0.90461  -0.90169  -0.89593  -0.89578  -0.89129
 Alpha  occ. eigenvalues --   -0.89056  -0.88660  -0.88211  -0.86940  -0.86508
 Alpha  occ. eigenvalues --   -0.86148  -0.85887  -0.85450  -0.84470  -0.84449
 Alpha  occ. eigenvalues --   -0.84208  -0.83791  -0.83154  -0.83013  -0.82832
 Alpha  occ. eigenvalues --   -0.82512  -0.80405  -0.79953  -0.79489  -0.79244
 Alpha  occ. eigenvalues --   -0.79181  -0.78345  -0.78226  -0.78151  -0.77049
 Alpha  occ. eigenvalues --   -0.76819  -0.74883  -0.74597  -0.74116  -0.73489
 Alpha  occ. eigenvalues --   -0.71169  -0.70957  -0.70603  -0.70268  -0.70109
 Alpha  occ. eigenvalues --   -0.70020  -0.68926  -0.68760  -0.67796  -0.67776
 Alpha  occ. eigenvalues --   -0.67568  -0.67341  -0.67047  -0.66870  -0.66479
 Alpha  occ. eigenvalues --   -0.66331  -0.64732  -0.64712  -0.62214  -0.62057
 Alpha  occ. eigenvalues --   -0.61838  -0.61565  -0.61216  -0.61110  -0.60885
 Alpha  occ. eigenvalues --   -0.60716  -0.60490  -0.60216  -0.59713  -0.59279
 Alpha  occ. eigenvalues --   -0.58223  -0.58070  -0.58044  -0.57833  -0.57354
 Alpha  occ. eigenvalues --   -0.57255  -0.56896  -0.56672  -0.55925  -0.55916
 Alpha  occ. eigenvalues --   -0.55484  -0.55398  -0.55109  -0.54945  -0.54878
 Alpha  occ. eigenvalues --   -0.54727  -0.54722  -0.54622  -0.54344  -0.54149
 Alpha  occ. eigenvalues --   -0.54132  -0.53734  -0.53552  -0.53413  -0.53237
 Alpha  occ. eigenvalues --   -0.53072  -0.52960  -0.52819  -0.52389  -0.52134
 Alpha  occ. eigenvalues --   -0.52098  -0.51913  -0.51810  -0.51742  -0.51585
 Alpha  occ. eigenvalues --   -0.51294  -0.51260  -0.51047  -0.50930  -0.50616
 Alpha  occ. eigenvalues --   -0.50456  -0.50379  -0.50267  -0.50023  -0.50016
 Alpha  occ. eigenvalues --   -0.49853  -0.49444  -0.49407  -0.49160  -0.49063
 Alpha  occ. eigenvalues --   -0.49037  -0.48642  -0.48523  -0.48314  -0.48215
 Alpha  occ. eigenvalues --   -0.48185  -0.48045  -0.47903  -0.47813  -0.47629
 Alpha  occ. eigenvalues --   -0.47446  -0.47380  -0.47289  -0.47156  -0.46845
 Alpha  occ. eigenvalues --   -0.46473  -0.46392  -0.46257  -0.46248  -0.46101
 Alpha  occ. eigenvalues --   -0.45800  -0.45757  -0.45560  -0.45535  -0.45400
 Alpha  occ. eigenvalues --   -0.45270  -0.45094  -0.45037  -0.44958  -0.44544
 Alpha  occ. eigenvalues --   -0.44543  -0.44386  -0.44094  -0.44073  -0.43893
 Alpha  occ. eigenvalues --   -0.43795  -0.43655  -0.43531  -0.43378  -0.43137
 Alpha  occ. eigenvalues --   -0.43006  -0.42838  -0.42766  -0.42610  -0.42583
 Alpha  occ. eigenvalues --   -0.42295  -0.42246  -0.41959  -0.41863  -0.41413
 Alpha  occ. eigenvalues --   -0.40901  -0.40086  -0.39945  -0.39475  -0.39423
 Alpha  occ. eigenvalues --   -0.39203  -0.39175  -0.38779  -0.38705  -0.38626
 Alpha  occ. eigenvalues --   -0.38592  -0.37934  -0.36837  -0.36722  -0.36024
 Alpha  occ. eigenvalues --   -0.35918  -0.35744  -0.35365  -0.33557  -0.33280
 Alpha  occ. eigenvalues --   -0.33203  -0.32952  -0.32895  -0.32702  -0.32330
 Alpha  occ. eigenvalues --   -0.32231  -0.31824  -0.31701  -0.26327  -0.25798
 Alpha  occ. eigenvalues --   -0.22807  -0.22606
 Alpha virt. eigenvalues --   -0.06661  -0.06655  -0.00337   0.00184   0.02585
 Alpha virt. eigenvalues --    0.02587   0.04598   0.04684   0.05186   0.06119
 Alpha virt. eigenvalues --    0.06359   0.06608   0.07472   0.07939   0.08495

 Mulliken charges:
               1
     1  Mg   0.952566
     2  C   -0.029875
     3  C   -0.087512
     4  C   -0.053741
     5  C   -0.079074
     6  N   -0.317092
     7  C   -0.009094
     8  C   -0.054062
     9  C   -0.041543
    10  C   -0.009165
    11  C    0.019981
    12  C    0.021224
    13  C   -0.115167
    14  H    0.015613
    15  N   -0.461302
    16  C    0.197310
    17  C   -0.169695
    18  C   -0.061138
    19  C    0.119854
    20  C    0.061290
    21  C    0.038531
    22  O   -0.262814
    23  C    0.013320
    24  N   -0.333108
    25  C    0.064261
    26  C   -0.091929
    27  C   -0.098955
    28  C    0.041278
    29  C    0.031128
    30  C   -0.015240
    31  C   -0.053809
    32  N   -0.449248
    33  C    0.129913
    34  C   -0.162212
    35  C   -0.055539
    36  C    0.144988
    37  C    0.075952
    38  C    0.096359
    39  O   -0.183883
    40  C   -0.042088
    41  C    0.280432
    42  O   -0.276043
    43  O   -0.352399
    44  C    0.141013
    45  H   -0.023836
    46  H    0.028215
    47  H   -0.002405
    48  H    0.045959
    49  H    0.034452
    50  H    0.048882
    51  H    0.031140
    52  H    0.026858
    53  H    0.018625
    54  H    0.024795
    55  H    0.055076
    56  H    0.067003
    57  H    0.025628
    58  H    0.064175
    59  H    0.051421
    60  H    0.063689
    61  H    0.041627
    62  H    0.053125
    63  H    0.040547
    64  H    0.038375
    65  H    0.048240
    66  H    0.046067
    67  H    0.029733
    68  H    0.031754
    69  H    0.025732
    70  H    0.040601
    71  H    0.032176
    72  H    0.041540
    73  H    0.049772
    74  H    0.047510
    75  H    0.057509
    76  H    0.066887
    77  H    0.067233
    78  H    0.052483
    79  H    0.050126
    80  Mg   0.957022
    81  C   -0.054884
    82  C   -0.098174
    83  C   -0.052900
    84  C   -0.094256
    85  N   -0.331786
    86  C   -0.023624
    87  C   -0.115096
    88  C   -0.115607
    89  C    0.039043
    90  C    0.060840
    91  C    0.025502
    92  C   -0.134572
    93  H    0.044866
    94  N   -0.518607
    95  C    0.210555
    96  C   -0.172931
    97  C   -0.106164
    98  C    0.151518
    99  C    0.083334
   100  C    0.062023
   101  O   -0.196879
   102  C   -0.021393
   103  N   -0.326879
   104  C    0.062281
   105  C   -0.102159
   106  C   -0.069996
   107  C    0.069848
   108  C    0.021117
   109  C   -0.022404
   110  C   -0.034783
   111  N   -0.429122
   112  C    0.127763
   113  C   -0.206741
   114  C   -0.016872
   115  C    0.192998
   116  C    0.097486
   117  C    0.099250
   118  O   -0.220840
   119  C   -0.022190
   120  C    0.288776
   121  O   -0.244369
   122  O   -0.362520
   123  C    0.139826
   124  H    0.001606
   125  H   -0.029270
   126  H   -0.001552
   127  H    0.017287
   128  H    0.023666
   129  H    0.042896
   130  H    0.038778
   131  H    0.055128
   132  H    0.032688
   133  H    0.055660
   134  H    0.047900
   135  H    0.058762
   136  H    0.056037
   137  H    0.011833
   138  H    0.051539
   139  H    0.070892
   140  H    0.042005
   141  H    0.069546
   142  H    0.033445
   143  H    0.024328
   144  H    0.046119
   145  H    0.041566
   146  H    0.029651
   147  H    0.043980
   148  H    0.016339
   149  H    0.044048
   150  H    0.026339
   151  H    0.041580
   152  H    0.036669
   153  H    0.058308
   154  H    0.066053
   155  H    0.061080
   156  H    0.042308
   157  H    0.050439
   158  H    0.054042
 Sum of Mulliken charges =  -0.00000

 Dipole moment (field-independent basis, Debye):
    X=              1.7717    Y=              2.9911    Z=             -3.7123  Tot=              5.0859
 Quadrupole moment (field-independent basis, Debye-Ang):
   XX=           -363.5423   YY=           -570.4753   ZZ=           -475.6577
   XY=             -3.9805   XZ=             73.7823   YZ=              7.7312

 Normal termination of Gaussian 16 at Mon Sep 20 01:05:44 2021.
