 Gaussian 16, Revision A.03,
 Gaussian 16:  ES64L-G16RevA.03 25-Dec-2016

 --------------------------------
 #p wB97XD/Def2SVP td=(nstates=5)
 --------------------------------

 --------------------------------
 TDDFT excited states in gaussian
 --------------------------------
 Symbolic Z-matrix:
 Charge =  0 Multiplicity = 1

                         Standard orientation:
 ---------------------------------------------------------------------
 Center     Atomic      Atomic             Coordinates (Angstroms)
 Number     Number       Type             X           Y           Z
 ---------------------------------------------------------------------
      1         12           0      -31.076726   -0.550065   -0.231006
      2          6           0      -28.560844    1.800170   -0.285954
      3          6           0      -28.869120   -2.779645    1.117972
      4          6           0      -33.686631   -2.212406    0.925597
      5          6           0      -33.219538    1.881238   -1.581784
      6          7           0      -29.073697   -0.278016    0.758401
      7          6           0      -28.173578    0.670908    0.393244
      8          6           0      -26.781904    0.360853    0.859641
      9          6           0      -26.851245   -1.200386    0.887419
     10          6           0      -28.350646   -1.455401    0.844314
     11          6           0      -26.029300   -1.867537   -0.252460
     12          6           0      -26.480864    0.964043    2.322337
     13          6           0      -24.983169    1.470609    2.560650
     14          1           0      -24.397589    0.669919    3.697326
     15          7           0      -31.236248   -2.366806    0.700257
     16          6           0      -30.266943   -3.119030    1.266086
     17          6           0      -30.837713   -4.295380    1.909990
     18          6           0      -32.238782   -4.157576    1.830973
     19          6           0      -32.434876   -2.858312    1.128594
     20          6           0      -29.934871   -5.361132    2.577314
     21          6           0      -33.190556   -5.066740    2.557221
     22          8           0      -32.759537   -6.007047    3.172272
     23          6           0      -34.716353   -4.864181    2.624345
     24          7           0      -33.211120   -0.310731   -0.409473
     25          6           0      -34.021126   -1.094095    0.150925
     26          6           0      -35.432618   -0.643187    0.069217
     27          6           0      -35.314311    0.693648   -0.763145
     28          6           0      -33.860667    0.783499   -0.938047
     29          6           0      -36.365782   -1.759923   -0.509511
     30          6           0      -35.917657    1.947263    0.024318
     31          6           0      -36.281953    3.222912   -0.815521
     32          7           0      -30.965090    1.398349   -0.902272
     33          6           0      -31.897470    2.211869   -1.520142
     34          6           0      -31.280003    3.419574   -1.993581
     35          6           0      -29.913396    3.281622   -1.564991
     36          6           0      -29.816225    2.113303   -0.834104
     37          6           0      -31.917186    4.540189   -2.750264
     38          6           0      -28.637542    3.908604   -1.606814
     39          8           0      -28.195884    4.965182   -2.076531
     40          6           0      -27.754675    3.076280   -0.618986
     41          6           0      -26.436987    2.876089   -1.290407
     42          8           0      -25.444918    3.601370   -1.132367
     43          8           0      -26.510269    1.810642   -2.144668
     44          6           0      -25.201698    1.657144   -2.840330
     45          1           0      -28.225057   -3.607983    1.421696
     46          1           0      -34.524784   -2.751813    1.370435
     47          1           0      -33.908107    2.677525   -1.874654
     48          1           0      -26.149455    0.707591    0.043377
     49          1           0      -26.390601   -1.559507    1.807860
     50          1           0      -25.218197   -2.450466    0.182939
     51          1           0      -25.553423   -1.063979   -0.815495
     52          1           0      -26.727138   -2.428348   -0.873456
     53          1           0      -26.779540    0.346783    3.169482
     54          1           0      -27.108079    1.835538    2.507172
     55          1           0      -25.104051    2.496869    2.907784
     56          1           0      -24.294746    1.541274    1.718443
     57          1           0      -30.121179   -5.521368    3.639188
     58          1           0      -28.866983   -5.190488    2.436497
     59          1           0      -30.097956   -6.292266    2.035663
     60          1           0      -35.204803   -4.947758    1.654055
     61          1           0      -35.014088   -3.929990    3.101185
     62          1           0      -35.054201   -5.590166    3.364503
     63          1           0      -35.679714   -0.413183    1.105540
     64          1           0      -35.697013    0.705325   -1.783403
     65          1           0      -37.123936   -1.959597    0.247426
     66          1           0      -35.811588   -2.664943   -0.758974
     67          1           0      -37.014813   -1.424058   -1.318097
     68          1           0      -35.222123    2.271367    0.798744
     69          1           0      -36.810358    1.568515    0.519892
     70          1           0      -37.301282    3.607077   -0.842637
     71          1           0      -36.080583    3.054088   -1.872489
     72          1           0      -35.668255    4.067376   -0.501862
     73          1           0      -32.931709    4.372119   -3.111115
     74          1           0      -31.190139    4.640109   -3.555185
     75          1           0      -31.771258    5.351253   -2.036719
     76          1           0      -27.616551    3.539422    0.358594
     77          1           0      -25.062306    2.486369   -3.533181
     78          1           0      -25.188508    0.815155   -3.532450
     79          1           0      -24.430845    1.568298   -2.074544
     80         12           0       30.159391    0.370611    0.637834
     81          6           0       30.189982   -2.306277   -1.746058
     82          6           0       28.555270    2.229891   -1.541949
     83          6           0       30.943407    2.909960    2.618101
     84          6           0       32.275220   -1.800331    2.720864
     85          7           0       29.418270   -0.028817   -1.393787
     86          6           0       29.553449   -1.167461   -2.212788
     87          6           0       28.896063   -1.008899   -3.635756
     88          6           0       28.311748    0.522708   -3.450324
     89          6           0       28.751532    0.965984   -2.058528
     90          6           0       28.866324    1.517919   -4.557779
     91          6           0       27.839045   -2.100027   -4.025766
     92          6           0       26.915323   -1.743454   -5.184320
     93          1           0       27.106599   -2.603377   -6.447066
     94          7           0       29.707319    2.294888    0.590703
     95          6           0       28.996684    2.962796   -0.378736
     96          6           0       28.808595    4.362300   -0.059589
     97          6           0       29.521071    4.530692    1.193266
     98          6           0       30.040868    3.162543    1.549609
     99          6           0       28.017392    5.329993   -0.806546
    100          6           0       29.698135    5.767397    2.057030
    101          8           0       30.212207    5.762736    3.140278
    102          6           0       29.253190    7.053645    1.413183
    103          7           0       31.487098    0.548077    2.391638
    104          6           0       31.587204    1.739260    3.033638
    105          6           0       32.448908    1.607674    4.317875
    106          6           0       32.732819    0.066336    4.374476
    107          6           0       32.084963   -0.457669    3.107318
    108          6           0       33.758507    2.461476    4.420687
    109          6           0       32.176923   -0.693782    5.630032
    110          6           0       33.029375   -0.481966    6.900727
    111          7           0       31.084111   -1.589307    0.571601
    112          6           0       31.810036   -2.329470    1.476144
    113          6           0       31.995646   -3.627776    0.961624
    114          6           0       31.462474   -3.680561   -0.271455
    115          6           0       30.908319   -2.389123   -0.524242
    116          6           0       32.643763   -4.723056    1.798430
    117          6           0       31.232395   -4.439953   -1.504607
    118          8           0       31.550172   -5.562024   -1.803919
    119          6           0       30.398523   -3.524646   -2.522340
    120          6           0       31.306556   -3.189686   -3.662357
    121          8           0       32.113215   -2.300613   -3.816908
    122          8           0       31.013703   -4.130590   -4.629603
    123          6           0       31.758228   -4.036481   -5.907911
    124          1           0       28.071200    2.939358   -2.216153
    125          1           0       31.285973    3.806428    3.140491
    126          1           0       32.815573   -2.345555    3.498192
    127          1           0       29.702672   -0.937786   -4.365617
    128          1           0       27.229495    0.484489   -3.576474
    129          1           0       28.048560    2.134415   -4.930680
    130          1           0       29.414324    1.112509   -5.407913
    131          1           0       29.522847    2.259158   -4.103135
    132          1           0       27.346825   -2.232187   -3.061374
    133          1           0       28.189087   -3.112101   -4.230119
    134          1           0       27.079172   -0.702503   -5.461601
    135          1           0       25.891404   -1.982362   -4.898228
    136          1           0       27.237032    5.523451   -0.070568
    137          1           0       27.667517    4.908618   -1.749078
    138          1           0       28.477246    6.287062   -1.051992
    139          1           0       28.225027    7.265829    1.706062
    140          1           0       29.617824    7.181657    0.393576
    141          1           0       29.982300    7.773313    1.784377
    142          1           0       31.743991    1.725971    5.141335
    143          1           0       33.795906   -0.103663    4.202603
    144          1           0       34.687876    1.906900    4.553579
    145          1           0       33.671745    3.001126    5.363477
    146          1           0       33.940500    3.140542    3.587719
    147          1           0       32.171151   -1.764401    5.428573
    148          1           0       31.147092   -0.348575    5.731605
    149          1           0       34.040055   -0.172549    6.633773
    150          1           0       32.994813   -1.427607    7.441588
    151          1           0       32.673293    0.319025    7.549274
    152          1           0       32.302413   -5.710597    1.487841
    153          1           0       32.429892   -4.532764    2.850215
    154          1           0       33.730053   -4.643018    1.751935
    155          1           0       29.484375   -4.018330   -2.852911
    156          1           0       31.981954   -5.065275   -6.189823
    157          1           0       32.683004   -3.462834   -5.847916
    158          1           0       30.985930   -3.576729   -6.525364
 ---------------------------------------------------------------------

 SCF Done:  E(RwB97XD) =  -4070.60759271     A.U. after   19 cycles

 Excitation energies and oscillator strengths:

 Excited State   1:      Singlet-A      1.6367 eV  757.54 nm  f=0.3918  <S**2>=0.000
     310 -> 316       -0.18393
     312 -> 314        0.68416
     310 <- 316       -0.11741
 This state for optimization and/or second-order correction.
 Total Energy, E(TD-HF/TD-DFT) =  -4070.54744600
 Copying the excited state density for this state as the 1-particle RhoCI density.

 Excited State   2:      Singlet-A      1.6576 eV  747.96 nm  f=0.3636  <S**2>=0.000
     309 -> 315        0.16766
     311 -> 313        0.68563
     309 <- 315        0.10882

 Excited State   3:      Singlet-A      2.1545 eV  575.46 nm  f=0.1355  <S**2>=0.000
     310 -> 314        0.64887
     312 -> 316        0.26858

 Excited State   4:      Singlet-A      2.1684 eV  571.78 nm  f=0.1040  <S**2>=0.000
     309 -> 313        0.63806
     311 -> 315       -0.28228

 Excited State   5:      Singlet-A      3.4146 eV  363.10 nm  f=0.0012  <S**2>=0.000
     303 -> 313       -0.19728
     308 -> 313        0.62687
     308 -> 317       -0.11497

 The electronic state is 1-A.
 Alpha  occ. eigenvalues --  -46.95586 -46.94894 -19.30749 -19.29077 -19.24839
 Alpha  occ. eigenvalues --  -19.24614 -19.24159 -19.23992 -19.23959 -19.22895
 Alpha  occ. eigenvalues --  -14.46812 -14.46694 -14.46510 -14.45891 -14.44976
 Alpha  occ. eigenvalues --  -14.44207 -14.43444 -14.43145 -10.42808 -10.42505
 Alpha  occ. eigenvalues --  -10.39803 -10.39292 -10.38713 -10.38030 -10.36463
 Alpha  occ. eigenvalues --  -10.35890 -10.35455 -10.35171 -10.34956 -10.34929
 Alpha  occ. eigenvalues --  -10.34877 -10.34703 -10.34373 -10.34230 -10.34178
 Alpha  occ. eigenvalues --  -10.34130 -10.34101 -10.33939 -10.33660 -10.33347
 Alpha  occ. eigenvalues --  -10.33101 -10.32966 -10.32936 -10.32898 -10.32744
 Alpha  occ. eigenvalues --  -10.32507 -10.32452 -10.32276 -10.32262 -10.32185
 Alpha  occ. eigenvalues --  -10.32123 -10.31866 -10.31862 -10.31795 -10.31755
 Alpha  occ. eigenvalues --  -10.31699 -10.31688 -10.31520 -10.31400 -10.31312
 Alpha  occ. eigenvalues --  -10.31259 -10.31135 -10.31034 -10.30915 -10.30901
 Alpha  occ. eigenvalues --  -10.30878 -10.30849 -10.30842 -10.30838 -10.30777
 Alpha  occ. eigenvalues --  -10.30680 -10.30668 -10.30642 -10.30608 -10.30602
 Alpha  occ. eigenvalues --  -10.30115 -10.30103 -10.30029 -10.30024 -10.29722
 Alpha  occ. eigenvalues --  -10.29587 -10.29581 -10.29471 -10.29372 -10.28741
 Alpha  occ. eigenvalues --  -10.28389  -3.21595  -3.20883  -1.95171  -1.94735
 Alpha  occ. eigenvalues --   -1.94557  -1.94469  -1.93985  -1.93872  -1.18094
 Alpha  occ. eigenvalues --   -1.17848  -1.14255  -1.13574  -1.13038  -1.10274
 Alpha  occ. eigenvalues --   -1.09654  -1.09068  -1.08612  -1.06699  -1.05987
 Alpha  occ. eigenvalues --   -1.05812  -1.05331  -1.04821  -1.04490  -1.03605
 Alpha  occ. eigenvalues --   -0.94992  -0.94433  -0.91618  -0.90819  -0.90623
 Alpha  occ. eigenvalues --   -0.90146  -0.90131  -0.89960  -0.89254  -0.89088
 Alpha  occ. eigenvalues --   -0.88947  -0.88753  -0.88535  -0.87965  -0.86224
 Alpha  occ. eigenvalues --   -0.85813  -0.85687  -0.85075  -0.84189  -0.84060
 Alpha  occ. eigenvalues --   -0.83952  -0.83757  -0.82840  -0.82651  -0.82294
 Alpha  occ. eigenvalues --   -0.82031  -0.80359  -0.80070  -0.79831  -0.78875
 Alpha  occ. eigenvalues --   -0.78729  -0.78558  -0.77883  -0.77463  -0.77457
 Alpha  occ. eigenvalues --   -0.76751  -0.74751  -0.74655  -0.74229  -0.73270
 Alpha  occ. eigenvalues --   -0.72395  -0.71560  -0.71340  -0.70659  -0.70148
 Alpha  occ. eigenvalues --   -0.69717  -0.69690  -0.68957  -0.68759  -0.67317
 Alpha  occ. eigenvalues --   -0.66998  -0.66873  -0.66559  -0.66473  -0.66346
 Alpha  occ. eigenvalues --   -0.65886  -0.64396  -0.63458  -0.62588  -0.62064
 Alpha  occ. eigenvalues --   -0.61580  -0.61458  -0.61197  -0.60798  -0.60782
 Alpha  occ. eigenvalues --   -0.60253  -0.60003  -0.59819  -0.58980  -0.58893
 Alpha  occ. eigenvalues --   -0.58596  -0.58119  -0.58086  -0.57660  -0.57658
 Alpha  occ. eigenvalues --   -0.56978  -0.56942  -0.56365  -0.56190  -0.56082
 Alpha  occ. eigenvalues --   -0.56049  -0.55602  -0.55559  -0.54941  -0.54673
 Alpha  occ. eigenvalues --   -0.54610  -0.54345  -0.54299  -0.53951  -0.53887
 Alpha  occ. eigenvalues --   -0.53622  -0.53551  -0.53277  -0.53129  -0.53121
 Alpha  occ. eigenvalues --   -0.52929  -0.52543  -0.52442  -0.52425  -0.52181
 Alpha  occ. eigenvalues --   -0.52091  -0.51859  -0.51718  -0.51671  -0.51606
 Alpha  occ. eigenvalues --   -0.51409  -0.51072  -0.51055  -0.50851  -0.50758
 Alpha  occ. eigenvalues --   -0.50614  -0.50335  -0.50251  -0.49907  -0.49732
 Alpha  occ. eigenvalues --   -0.49715  -0.49653  -0.49582  -0.49368  -0.48958
 Alpha  occ. eigenvalues --   -0.48896  -0.48751  -0.48668  -0.48278  -0.48217
 Alpha  occ. eigenvalues --   -0.48174  -0.47821  -0.47819  -0.47691  -0.47659
 Alpha  occ. eigenvalues --   -0.47350  -0.47339  -0.47210  -0.47108  -0.47094
 Alpha  occ. eigenvalues --   -0.46956  -0.46774  -0.46646  -0.46575  -0.46361
 Alpha  occ. eigenvalues --   -0.46259  -0.46144  -0.45952  -0.45949  -0.45770
 Alpha  occ. eigenvalues --   -0.45451  -0.45298  -0.45119  -0.45093  -0.44887
 Alpha  occ. eigenvalues --   -0.44670  -0.44531  -0.44471  -0.44092  -0.43987
 Alpha  occ. eigenvalues --   -0.43842  -0.43825  -0.43788  -0.43575  -0.43354
 Alpha  occ. eigenvalues --   -0.43121  -0.43040  -0.42802  -0.42687  -0.42673
 Alpha  occ. eigenvalues --   -0.42386  -0.41987  -0.41519  -0.41215  -0.40697
 Alpha  occ. eigenvalues --   -0.40589  -0.40235  -0.39982  -0.39668  -0.39626
 Alpha  occ. eigenvalues --   -0.38987  -0.38898  -0.38776  -0.38503  -0.38449
 Alpha  occ. eigenvalues --   -0.38419  -0.37728  -0.36983  -0.36561  -0.35922
 Alpha  occ. eigenvalues --   -0.35815  -0.35341  -0.34864  -0.33983  -0.33597
 Alpha  occ. eigenvalues --   -0.33468  -0.32826  -0.32802  -0.32567  -0.32284
 Alpha  occ. eigenvalues --   -0.32019  -0.31916  -0.31038  -0.26154  -0.25494
 Alpha  occ. eigenvalues --   -0.22994  -0.22756
 Alpha virt. eigenvalues --   -0.07124  -0.06885   0.00128   0.00807   0.02286
 Alpha virt. eigenvalues --    0.02946   0.04141   0.04733   0.05129   0.05662
 Alpha virt. eigenvalues --    0.06959   0.07501   0.08117   0.08147   0.08828

 Mulliken charges:
               1
     1  Mg   0.966518
     2  C    0.016099
     3  C   -0.089373
     4  C   -0.073414
     5  C   -0.081638
     6  N   -0.340566
     7  C   -0.050167
     8  C   -0.024521
     9  C   -0.146507
    10  C    0.110998
    11  C    0.045261
    12  C    0.022918
    13  C   -0.129956
    14  H    0.028874
    15  N   -0.460416
    16  C    0.119226
    17  C   -0.139261
    18  C   -0.060651
    19  C    0.168497
    20  C    0.086767
    21  C    0.018656
    22  O   -0.211058
    23  C   -0.019621
    24  N   -0.295225
    25  C    0.031311
    26  C   -0.087938
    27  C   -0.051443
    28  C    0.005479
    29  C    0.018801
    30  C   -0.018523
    31  C   -0.065315
    32  N   -0.451044
    33  C    0.151145
    34  C   -0.200809
    35  C   -0.007561
    36  C    0.105927
    37  C    0.098589
    38  C    0.085856
    39  O   -0.226231
    40  C   -0.061216
    41  C    0.241366
    42  O   -0.258086
    43  O   -0.370110
    44  C    0.138431
    45  H    0.002874
    46  H   -0.045500
    47  H   -0.027212
    48  H    0.026027
    49  H    0.042457
    50  H    0.041614
    51  H    0.029804
    52  H    0.040822
    53  H    0.040689
    54  H    0.032344
    55  H    0.057550
    56  H    0.062916
    57  H    0.069795
    58  H    0.019214
    59  H    0.052842
    60  H    0.067221
    61  H    0.060689
    62  H    0.051536
    63  H    0.046693
    64  H    0.041965
    65  H    0.030590
    66  H    0.057214
    67  H    0.038733
    68  H    0.041070
    69  H    0.036564
    70  H    0.040107
    71  H    0.033015
    72  H    0.044190
    73  H    0.043266
    74  H    0.065002
    75  H    0.064726
    76  H    0.078446
    77  H    0.064897
    78  H    0.047294
    79  H    0.060480
    80  Mg   0.977282
    81  C   -0.039109
    82  C   -0.072037
    83  C   -0.068551
    84  C   -0.096264
    85  N   -0.383305
    86  C   -0.009562
    87  C   -0.026866
    88  C   -0.121250
    89  C    0.109399
    90  C   -0.013779
    91  C   -0.019567
    92  C   -0.123107
    93  H    0.029466
    94  N   -0.491587
    95  C    0.111955
    96  C   -0.136090
    97  C   -0.128120
    98  C    0.164580
    99  C    0.081518
   100  C    0.041190
   101  O   -0.208222
   102  C   -0.027469
   103  N   -0.338907
   104  C    0.031356
   105  C   -0.031747
   106  C   -0.109778
   107  C    0.026744
   108  C    0.019857
   109  C   -0.035708
   110  C   -0.029312
   111  N   -0.401522
   112  C    0.165273
   113  C   -0.241972
   114  C    0.013952
   115  C    0.138406
   116  C    0.096274
   117  C    0.119910
   118  O   -0.173087
   119  C   -0.117785
   120  C    0.284800
   121  O   -0.233200
   122  O   -0.386713
   123  C    0.128202
   124  H   -0.028672
   125  H    0.025144
   126  H    0.001815
   127  H    0.050889
   128  H    0.047787
   129  H    0.031122
   130  H    0.050477
   131  H    0.042798
   132  H    0.033719
   133  H    0.059795
   134  H    0.061127
   135  H    0.063945
   136  H    0.057852
   137  H    0.039870
   138  H    0.047120
   139  H    0.079761
   140  H    0.047358
   141  H    0.039938
   142  H    0.038805
   143  H    0.032539
   144  H    0.032680
   145  H    0.039125
   146  H    0.051689
   147  H    0.028443
   148  H    0.032736
   149  H    0.031894
   150  H    0.042763
   151  H    0.037470
   152  H    0.058691
   153  H    0.027620
   154  H    0.045763
   155  H    0.080963
   156  H    0.063679
   157  H    0.072756
   158  H    0.054992
 Sum of Mulliken charges =  -0.00000

 Dipole moment (field-independent basis, Debye):
    X=             -7.2968    Y=             -1.5295    Z=             -1.0444  Tot=              7.5282
 Quadrupole moment (field-independent basis, Debye-Ang):
   XX=           -348.9934   YY=           -565.8838   ZZ=           -488.1277
   XY=            162.1993   XZ=             16.9903   YZ=             -1.2497

 Normal termination of Gaussian 16 at Mon Sep 20 06:32:54 2021.
