 Gaussian 16, Revision A.03,
 Gaussian 16:  ES64L-G16RevA.03 25-Dec-2016

 --------------------------------
 #p wB97XD/Def2SVP td=(nstates=5)
 --------------------------------

 --------------------------------
 TDDFT excited states in gaussian
 --------------------------------
 Symbolic Z-matrix:
 Charge =  0 Multiplicity = 1

                         Standard orientation:
 ---------------------------------------------------------------------
 Center     Atomic      Atomic             Coordinates (Angstroms)
 Number     Number       Type             X           Y           Z
 ---------------------------------------------------------------------
      1         12           0       -5.182339   -0.182011    0.890151
      2          6           0       -4.756337    3.108562   -0.211118
      3          6           0       -2.627243    0.359081    3.145242
      4          6           0       -5.067706   -3.536446    1.511190
      5          6           0       -7.240666   -0.748632   -1.836607
      6          7           0       -3.962631    1.556310    1.416821
      7          6           0       -4.117857    2.816209    0.990354
      8          6           0       -3.368996    3.870711    1.818377
      9          6           0       -2.526962    2.960077    2.792098
     10          6           0       -3.131397    1.471314    2.521225
     11          6           0       -0.990686    2.997613    2.643307
     12          6           0       -4.269722    4.882443    2.527190
     13          6           0       -3.578477    6.232613    2.790439
     14          1           0       -2.116003    6.423393    2.364210
     15          7           0       -4.107857   -1.416933    2.216260
     16          6           0       -3.120664   -0.989574    3.133965
     17          6           0       -2.684523   -2.139176    3.900920
     18          6           0       -3.346301   -3.316906    3.388749
     19          6           0       -4.242306   -2.794065    2.358480
     20          6           0       -1.761622   -1.980578    5.077769
     21          6           0       -3.310023   -4.827973    3.896401
     22          8           0       -4.025385   -5.698929    3.464212
     23          6           0       -2.294453   -5.149641    4.971204
     24          7           0       -5.947430   -1.889574   -0.077903
     25          6           0       -5.810029   -3.169213    0.374575
     26          6           0       -6.617169   -4.200156   -0.497420
     27          6           0       -7.325880   -3.268206   -1.478934
     28          6           0       -6.799013   -1.894755   -1.107909
     29          6           0       -5.915384   -5.457458   -1.152322
     30          6           0       -8.862711   -3.366346   -1.334609
     31          6           0       -9.560707   -2.558923   -0.217794
     32          7           0       -6.031655    0.934690   -0.665316
     33          6           0       -6.851750    0.578455   -1.704407
     34          6           0       -7.164281    1.700847   -2.524097
     35          6           0       -6.332231    2.774944   -1.970734
     36          6           0       -5.692369    2.248624   -0.916956
     37          6           0       -8.046545    1.843963   -3.684258
     38          6           0       -5.850553    4.135288   -2.166771
     39          8           0       -6.218844    5.000410   -2.968482
     40          6           0       -4.814072    4.438432   -1.044979
     41          6           0       -3.521733    4.826873   -1.600495
     42          8           0       -2.680921    4.068504   -2.071827
     43          8           0       -3.478834    6.192742   -1.726501
     44          6           0       -2.486666    6.813641   -2.625481
     45          1           0       -1.797492    0.614797    3.807808
     46          1           0       -5.178015   -4.578234    1.819253
     47          1           0       -7.964862   -0.900546   -2.639627
     48          1           0       -2.612415    4.383517    1.224909
     49          1           0       -2.790699    3.088893    3.841228
     50          1           0       -0.702388    3.214831    3.671648
     51          1           0       -0.687827    3.802705    1.974250
     52          1           0       -0.620349    2.046426    2.260759
     53          1           0       -4.663968    4.493202    3.465116
     54          1           0       -5.153372    5.086826    1.922038
     55          1           0       -3.684902    6.301436    3.873243
     56          1           0       -4.172047    7.071792    2.424927
     57          1           0       -1.409462   -0.949937    5.033090
     58          1           0       -0.943313   -2.695099    4.986208
     59          1           0       -2.250119   -2.177747    6.033201
     60          1           0       -1.250833   -5.221951    4.663325
     61          1           0       -2.619432   -6.062731    5.469946
     62          1           0       -2.427245   -4.313935    5.658183
     63          1           0       -7.294944   -4.609078    0.251570
     64          1           0       -7.009585   -3.575710   -2.475024
     65          1           0       -6.141581   -5.606924   -2.207407
     66          1           0       -6.288483   -6.349983   -0.651035
     67          1           0       -4.846640   -5.380786   -0.950094
     68          1           0       -9.071535   -4.429192   -1.218911
     69          1           0       -9.249148   -3.069365   -2.310024
     70          1           0      -10.309870   -3.241749    0.182149
     71          1           0      -10.095795   -1.684315   -0.587004
     72          1           0       -8.884904   -2.158129    0.536867
     73          1           0       -8.579337    2.788270   -3.577960
     74          1           0       -8.767060    1.039245   -3.830819
     75          1           0       -7.453582    2.025298   -4.580885
     76          1           0       -5.279826    5.236219   -0.466632
     77          1           0       -1.819378    6.076920   -3.074123
     78          1           0       -1.873900    7.487290   -2.025966
     79          1           0       -3.141899    7.295794   -3.350092
     80         12           0        4.327100   -0.906873   -0.914079
     81          6           0        7.059136    1.059082   -0.184067
     82          6           0        2.263576    1.976592   -0.471611
     83          6           0        1.651081   -2.775891   -1.243269
     84          6           0        6.368027   -3.723465   -1.168967
     85          7           0        4.709972    1.237254   -0.394732
     86          6           0        5.896837    1.810929   -0.176043
     87          6           0        5.687458    3.348134    0.018467
     88          6           0        4.102780    3.546052    0.048043
     89          6           0        3.627425    2.111118   -0.250994
     90          6           0        3.479956    3.921925    1.378814
     91          6           0        6.428857    4.233325   -0.994655
     92          6           0        7.238991    5.313816   -0.298296
     93          1           0        7.558425    6.641498   -1.000677
     94          7           0        2.255131   -0.428684   -0.939776
     95          6           0        1.610756    0.766509   -0.798901
     96          6           0        0.229793    0.646401   -0.951952
     97          6           0       -0.029734   -0.764218   -1.062104
     98          6           0        1.330461   -1.404425   -1.101601
     99          6           0       -0.737624    1.820791   -0.923912
    100          6           0       -1.363816   -1.492163   -1.088011
    101          8           0       -1.361970   -2.736408   -1.015888
    102          6           0       -2.648738   -0.769563   -1.074955
    103          7           0        4.094139   -2.907783   -1.193560
    104          6           0        2.860317   -3.498314   -1.374488
    105          6           0        2.903632   -5.059446   -1.569401
    106          6           0        4.462324   -5.242546   -1.813600
    107          6           0        5.024349   -3.886970   -1.347699
    108          6           0        2.366609   -6.045698   -0.458392
    109          6           0        4.952927   -5.795378   -3.228180
    110          6           0        4.952241   -4.793474   -4.352411
    111          7           0        6.243859   -1.345174   -0.601176
    112          6           0        6.980192   -2.507870   -0.726032
    113          6           0        8.345898   -2.305987   -0.461329
    114          6           0        8.404982   -0.918681   -0.285559
    115          6           0        7.101519   -0.349704   -0.380109
    116          6           0        9.333620   -3.388918   -0.564363
    117          6           0        9.346077    0.068826    0.079984
    118          8           0       10.529370   -0.093938    0.384533
    119          6           0        8.532910    1.464895    0.148754
    120          6           0        8.689292    2.040441    1.472955
    121          8           0        8.152473    1.671656    2.492475
    122          8           0        9.614527    2.992016    1.456824
    123          6           0       10.007134    3.601935    2.691194
    124          1           0        1.637652    2.850981   -0.283821
    125          1           0        0.861778   -3.520345   -1.364095
    126          1           0        6.969941   -4.630511   -1.255672
    127          1           0        6.073649    3.464500    1.030594
    128          1           0        3.909999    4.398672   -0.604052
    129          1           0        4.197734    4.126083    2.173870
    130          1           0        2.875004    3.098197    1.756816
    131          1           0        2.742618    4.711662    1.231639
    132          1           0        5.794835    4.701355   -1.747895
    133          1           0        7.088351    3.587160   -1.573524
    134          1           0        8.231403    4.887993   -0.145958
    135          1           0        6.711729    5.529750    0.630743
    136          1           0       -0.214733    2.775225   -0.985927
    137          1           0       -1.211171    1.860020    0.057311
    138          1           0       -1.540342    1.685714   -1.647863
    139          1           0       -3.452787   -1.414671   -0.718986
    140          1           0       -2.883467   -0.525309   -2.111442
    141          1           0       -2.582268    0.110787   -0.436141
    142          1           0        2.485211   -5.368797   -2.527703
    143          1           0        4.818276   -6.047383   -1.171662
    144          1           0        1.983829   -5.441068    0.362855
    145          1           0        3.218019   -6.524580    0.026845
    146          1           0        1.636677   -6.802695   -0.746653
    147          1           0        4.223873   -6.550184   -3.521866
    148          1           0        5.906461   -6.320943   -3.193553
    149          1           0        5.763792   -5.073660   -5.023055
    150          1           0        5.003759   -3.723851   -4.152952
    151          1           0        3.989304   -4.896509   -4.852672
    152          1           0        9.158958   -4.190253   -1.281868
    153          1           0        9.693198   -3.800517    0.377941
    154          1           0       10.209620   -2.832653   -0.897003
    155          1           0        8.963318    2.135189   -0.595009
    156          1           0        9.393620    4.468837    2.939166
    157          1           0       11.019423    3.979246    2.547428
    158          1           0        9.928089    2.878847    3.503120
 ---------------------------------------------------------------------

 SCF Done:  E(RwB97XD) =  -4070.65842446     A.U. after   20 cycles

 Excitation energies and oscillator strengths:

 Excited State   1:      Singlet-A      1.6453 eV  753.58 nm  f=0.6732  <S**2>=0.000
     309 -> 315       -0.11531
     310 -> 316        0.13306
     311 -> 313        0.43722
     312 -> 314        0.52700
 This state for optimization and/or second-order correction.
 Total Energy, E(TD-HF/TD-DFT) =  -4070.59796187
 Copying the excited state density for this state as the 1-particle RhoCI density.

 Excited State   2:      Singlet-A      1.6541 eV  749.54 nm  f=0.1774  <S**2>=0.000
     309 -> 315       -0.14291
     310 -> 316       -0.11311
     311 -> 313        0.52427
     312 -> 314       -0.43712

 Excited State   3:      Singlet-A      2.0666 eV  599.95 nm  f=0.1009  <S**2>=0.000
     309 -> 313        0.64889
     311 -> 315        0.23457

 Excited State   4:      Singlet-A      2.1747 eV  570.13 nm  f=0.1578  <S**2>=0.000
     310 -> 314        0.64071
     312 -> 316       -0.26084

 Excited State   5:      Singlet-A      2.6563 eV  466.75 nm  f=0.0000  <S**2>=0.000
     312 -> 313        0.70436

 The electronic state is 1-A.
 Alpha  occ. eigenvalues --  -46.94986 -46.93636 -19.29967 -19.29807 -19.25081
 Alpha  occ. eigenvalues --  -19.25002 -19.24179 -19.23308 -19.23252 -19.22670
 Alpha  occ. eigenvalues --  -14.47244 -14.46895 -14.46527 -14.46396 -14.44344
 Alpha  occ. eigenvalues --  -14.43873 -14.43151 -14.43143 -10.43451 -10.41854
 Alpha  occ. eigenvalues --  -10.40277 -10.39556 -10.38196 -10.38146 -10.35612
 Alpha  occ. eigenvalues --  -10.35471 -10.35265 -10.35263 -10.35169 -10.34933
 Alpha  occ. eigenvalues --  -10.34910 -10.34817 -10.34781 -10.34734 -10.34416
 Alpha  occ. eigenvalues --  -10.34232 -10.33694 -10.33296 -10.33122 -10.33002
 Alpha  occ. eigenvalues --  -10.32988 -10.32713 -10.32648 -10.32583 -10.32575
 Alpha  occ. eigenvalues --  -10.32474 -10.32392 -10.32349 -10.32304 -10.32286
 Alpha  occ. eigenvalues --  -10.32085 -10.32012 -10.31975 -10.31973 -10.31744
 Alpha  occ. eigenvalues --  -10.31729 -10.31603 -10.31524 -10.31498 -10.31395
 Alpha  occ. eigenvalues --  -10.31343 -10.31099 -10.31025 -10.30983 -10.30980
 Alpha  occ. eigenvalues --  -10.30888 -10.30820 -10.30440 -10.30437 -10.30406
 Alpha  occ. eigenvalues --  -10.30309 -10.30279 -10.30222 -10.29947 -10.29866
 Alpha  occ. eigenvalues --  -10.29859 -10.29846 -10.29770 -10.29760 -10.29467
 Alpha  occ. eigenvalues --  -10.29300 -10.29272 -10.29249 -10.29135 -10.28488
 Alpha  occ. eigenvalues --  -10.28204  -3.20956  -3.19830  -1.94553  -1.94077
 Alpha  occ. eigenvalues --   -1.93930  -1.93426  -1.92977  -1.92807  -1.19883
 Alpha  occ. eigenvalues --   -1.18164  -1.13907  -1.11534  -1.10705  -1.10067
 Alpha  occ. eigenvalues --   -1.09815  -1.09730  -1.06778  -1.06182  -1.05780
 Alpha  occ. eigenvalues --   -1.05308  -1.04966  -1.04875  -1.04187  -1.03387
 Alpha  occ. eigenvalues --   -0.94514  -0.93666  -0.91242  -0.91179  -0.90920
 Alpha  occ. eigenvalues --   -0.90415  -0.90280  -0.89871  -0.89377  -0.89124
 Alpha  occ. eigenvalues --   -0.88996  -0.88639  -0.88336  -0.88100  -0.86594
 Alpha  occ. eigenvalues --   -0.86142  -0.85726  -0.85461  -0.84561  -0.84552
 Alpha  occ. eigenvalues --   -0.83992  -0.83582  -0.83349  -0.82802  -0.82534
 Alpha  occ. eigenvalues --   -0.82133  -0.80351  -0.79474  -0.79342  -0.79189
 Alpha  occ. eigenvalues --   -0.78821  -0.78378  -0.78273  -0.77623  -0.77226
 Alpha  occ. eigenvalues --   -0.76856  -0.74974  -0.74749  -0.73427  -0.73068
 Alpha  occ. eigenvalues --   -0.71958  -0.71242  -0.70848  -0.70416  -0.70086
 Alpha  occ. eigenvalues --   -0.69411  -0.68693  -0.68377  -0.67175  -0.67028
 Alpha  occ. eigenvalues --   -0.66919  -0.66794  -0.66514  -0.66199  -0.66163
 Alpha  occ. eigenvalues --   -0.66043  -0.64031  -0.63960  -0.62078  -0.61914
 Alpha  occ. eigenvalues --   -0.61657  -0.61538  -0.61401  -0.60778  -0.60520
 Alpha  occ. eigenvalues --   -0.60167  -0.59989  -0.59954  -0.59830  -0.59261
 Alpha  occ. eigenvalues --   -0.58141  -0.58020  -0.57861  -0.57732  -0.57535
 Alpha  occ. eigenvalues --   -0.56875  -0.56540  -0.56318  -0.56191  -0.56027
 Alpha  occ. eigenvalues --   -0.55645  -0.55414  -0.55185  -0.55161  -0.54695
 Alpha  occ. eigenvalues --   -0.54573  -0.54412  -0.54274  -0.54142  -0.53947
 Alpha  occ. eigenvalues --   -0.53938  -0.53770  -0.53610  -0.53236  -0.53125
 Alpha  occ. eigenvalues --   -0.53053  -0.52908  -0.52439  -0.52004  -0.51916
 Alpha  occ. eigenvalues --   -0.51797  -0.51698  -0.51481  -0.51435  -0.51273
 Alpha  occ. eigenvalues --   -0.51182  -0.51062  -0.51041  -0.50873  -0.50787
 Alpha  occ. eigenvalues --   -0.50677  -0.50540  -0.50426  -0.50101  -0.49902
 Alpha  occ. eigenvalues --   -0.49756  -0.49708  -0.49310  -0.49184  -0.48941
 Alpha  occ. eigenvalues --   -0.48571  -0.48541  -0.48463  -0.48269  -0.48063
 Alpha  occ. eigenvalues --   -0.47997  -0.47952  -0.47806  -0.47579  -0.47534
 Alpha  occ. eigenvalues --   -0.47313  -0.47146  -0.46929  -0.46771  -0.46660
 Alpha  occ. eigenvalues --   -0.46611  -0.46445  -0.46212  -0.46010  -0.45977
 Alpha  occ. eigenvalues --   -0.45912  -0.45656  -0.45533  -0.45518  -0.45384
 Alpha  occ. eigenvalues --   -0.45178  -0.45070  -0.44914  -0.44905  -0.44700
 Alpha  occ. eigenvalues --   -0.44559  -0.44191  -0.44130  -0.44001  -0.43822
 Alpha  occ. eigenvalues --   -0.43622  -0.43587  -0.43305  -0.43219  -0.43087
 Alpha  occ. eigenvalues --   -0.42770  -0.42739  -0.42684  -0.42504  -0.42385
 Alpha  occ. eigenvalues --   -0.42089  -0.42034  -0.40862  -0.40762  -0.40615
 Alpha  occ. eigenvalues --   -0.40542  -0.40210  -0.39958  -0.39825  -0.39281
 Alpha  occ. eigenvalues --   -0.39121  -0.38891  -0.38575  -0.38358  -0.38278
 Alpha  occ. eigenvalues --   -0.38112  -0.37805  -0.36785  -0.36654  -0.35925
 Alpha  occ. eigenvalues --   -0.35855  -0.35536  -0.34968  -0.33696  -0.33422
 Alpha  occ. eigenvalues --   -0.33248  -0.33237  -0.32164  -0.32098  -0.32012
 Alpha  occ. eigenvalues --   -0.31726  -0.31408  -0.31171  -0.25808  -0.25653
 Alpha  occ. eigenvalues --   -0.23443  -0.22871
 Alpha virt. eigenvalues --   -0.07615  -0.06988   0.00281   0.00887   0.02285
 Alpha virt. eigenvalues --    0.03037   0.04266   0.05019   0.05367   0.06579
 Alpha virt. eigenvalues --    0.06615   0.07228   0.08136   0.08168   0.08534

 Mulliken charges:
               1
     1  Mg   0.875756
     2  C   -0.004703
     3  C   -0.088968
     4  C   -0.054436
     5  C   -0.081917
     6  N   -0.366283
     7  C   -0.023661
     8  C   -0.042148
     9  C   -0.149152
    10  C    0.060448
    11  C    0.022294
    12  C    0.018251
    13  C   -0.110447
    14  H    0.044513
    15  N   -0.474278
    16  C    0.168944
    17  C   -0.174312
    18  C   -0.082261
    19  C    0.129088
    20  C    0.057385
    21  C    0.085234
    22  O   -0.207059
    23  C   -0.022986
    24  N   -0.342916
    25  C    0.039918
    26  C   -0.082811
    27  C   -0.047513
    28  C    0.048573
    29  C    0.020460
    30  C   -0.042619
    31  C   -0.034212
    32  N   -0.443695
    33  C    0.135753
    34  C   -0.165963
    35  C   -0.034572
    36  C    0.129852
    37  C    0.086672
    38  C    0.092593
    39  O   -0.220172
    40  C   -0.059067
    41  C    0.278718
    42  O   -0.254910
    43  O   -0.376795
    44  C    0.127167
    45  H    0.004299
    46  H    0.020896
    47  H   -0.015898
    48  H    0.031144
    49  H    0.033913
    50  H    0.046222
    51  H    0.035621
    52  H    0.065083
    53  H    0.032909
    54  H    0.032243
    55  H    0.042192
    56  H    0.055256
    57  H    0.029688
    58  H    0.051909
    59  H    0.068218
    60  H    0.084789
    61  H    0.054074
    62  H    0.031159
    63  H    0.039444
    64  H    0.036620
    65  H    0.039498
    66  H    0.034535
    67  H    0.061574
    68  H    0.030957
    69  H    0.031079
    70  H    0.040852
    71  H    0.037148
    72  H    0.047559
    73  H    0.052873
    74  H    0.035380
    75  H    0.056778
    76  H    0.074748
    77  H    0.066019
    78  H    0.055545
    79  H    0.076541
    80  Mg   0.989423
    81  C   -0.044440
    82  C   -0.103667
    83  C   -0.053193
    84  C   -0.104958
    85  N   -0.349478
    86  C   -0.029978
    87  C   -0.021277
    88  C   -0.162230
    89  C    0.116403
    90  C    0.007031
    91  C    0.038299
    92  C   -0.145359
    93  H    0.027410
    94  N   -0.426348
    95  C    0.157477
    96  C   -0.182167
    97  C   -0.066654
    98  C    0.170654
    99  C    0.099448
   100  C    0.057753
   101  O   -0.257669
   102  C   -0.065991
   103  N   -0.396319
   104  C    0.028594
   105  C   -0.070141
   106  C   -0.075230
   107  C    0.085752
   108  C    0.030182
   109  C   -0.030798
   110  C   -0.057899
   111  N   -0.469693
   112  C    0.130253
   113  C   -0.136454
   114  C   -0.038308
   115  C    0.193660
   116  C    0.072807
   117  C    0.094837
   118  O   -0.221917
   119  C   -0.078268
   120  C    0.235387
   121  O   -0.252748
   122  O   -0.328068
   123  C    0.136379
   124  H   -0.004357
   125  H    0.021117
   126  H   -0.006528
   127  H    0.031815
   128  H    0.042670
   129  H    0.042322
   130  H    0.039514
   131  H    0.033445
   132  H    0.039301
   133  H    0.030397
   134  H    0.063206
   135  H    0.055156
   136  H    0.037731
   137  H    0.031220
   138  H    0.072033
   139  H    0.111074
   140  H    0.082121
   141  H    0.091713
   142  H    0.038225
   143  H    0.025993
   144  H    0.037733
   145  H    0.026157
   146  H    0.056545
   147  H    0.028014
   148  H    0.032249
   149  H    0.037060
   150  H    0.048374
   151  H    0.028416
   152  H    0.044923
   153  H    0.053464
   154  H    0.044345
   155  H    0.064631
   156  H    0.041718
   157  H    0.055088
   158  H    0.065986
 Sum of Mulliken charges =  -0.00000

 Dipole moment (field-independent basis, Debye):
    X=             -4.6967    Y=              0.5446    Z=              1.6071  Tot=              4.9938
 Quadrupole moment (field-independent basis, Debye-Ang):
   XX=           -548.8074   YY=           -477.6736   ZZ=           -492.0345
   XY=             10.9990   XZ=            -18.2993   YZ=             28.2729

 Normal termination of Gaussian 16 at Sun Sep 19 15:51:03 2021.
