 Gaussian 16, Revision A.03,
 Gaussian 16:  ES64L-G16RevA.03 25-Dec-2016

 --------------------------------
 #p wB97XD/Def2SVP td=(nstates=5)
 --------------------------------

 --------------------------------
 TDDFT excited states in gaussian
 --------------------------------
 Symbolic Z-matrix:
 Charge =  0 Multiplicity = 1

                         Standard orientation:
 ---------------------------------------------------------------------
 Center     Atomic      Atomic             Coordinates (Angstroms)
 Number     Number       Type             X           Y           Z
 ---------------------------------------------------------------------
      1         12           0      -13.461612   -0.662274   -0.269350
      2          6           0      -12.092318    2.141311    1.271478
      3          6           0      -15.645462    1.295125   -1.927908
      4          6           0      -15.005391   -3.466307   -1.355457
      5          6           0      -11.535432   -2.615058    1.820209
      6          7           0      -13.817333    1.525104   -0.283340
      7          6           0      -12.996592    2.477762    0.264731
      8          6           0      -13.434445    3.832874   -0.143516
      9          6           0      -14.600041    3.637908   -1.120113
     10          6           0      -14.734822    2.055110   -1.170388
     11          6           0      -15.909378    4.366247   -0.859214
     12          6           0      -12.193906    4.702909   -0.751956
     13          6           0      -11.792701    5.998963   -0.009298
     14          1           0      -11.401292    7.239537   -0.773938
     15          7           0      -15.014060   -1.038741   -1.563342
     16          6           0      -15.827968   -0.083414   -2.153381
     17          6           0      -16.833419   -0.723939   -2.920607
     18          6           0      -16.675254   -2.128263   -2.769412
     19          6           0      -15.515132   -2.262708   -1.882468
     20          6           0      -17.772523    0.170885   -3.820504
     21          6           0      -17.601849   -3.188946   -3.361226
     22          8           0      -17.511497   -4.410587   -3.166692
     23          6           0      -18.650526   -2.789826   -4.303831
     24          7           0      -13.503226   -2.763841    0.314978
     25          6           0      -14.118591   -3.725201   -0.341954
     26          6           0      -13.871598   -5.097381    0.324560
     27          6           0      -12.449087   -4.779443    0.933003
     28          6           0      -12.465900   -3.256433    1.016737
     29          6           0      -14.842585   -5.635961    1.439632
     30          6           0      -11.174039   -5.315668    0.121743
     31          6           0      -10.986747   -4.852945   -1.264936
     32          7           0      -12.062365   -0.387366    1.337524
     33          6           0      -11.325603   -1.309066    2.106969
     34          6           0      -10.500853   -0.599881    3.032505
     35          6           0      -10.795832    0.730303    2.809282
     36          6           0      -11.680868    0.809474    1.684538
     37          6           0       -9.767891   -1.170367    4.146060
     38          6           0      -10.383313    2.021115    3.104325
     39          8           0       -9.564537    2.456184    3.920634
     40          6           0      -11.249819    3.025418    2.215783
     41          6           0      -12.159567    3.718885    3.175220
     42          8           0      -13.003084    3.297222    3.938382
     43          8           0      -11.845232    5.011591    3.074363
     44          6           0      -12.646178    5.951407    3.925317
     45          1           0      -16.135289    2.032284   -2.567493
     46          1           0      -15.430523   -4.340787   -1.851034
     47          1           0      -10.884216   -3.246100    2.428269
     48          1           0      -13.779192    4.301173    0.777574
     49          1           0      -14.275469    3.929985   -2.118590
     50          1           0      -16.394418    3.548321   -0.327758
     51          1           0      -16.425672    4.743742   -1.742025
     52          1           0      -15.923884    5.232928   -0.198899
     53          1           0      -12.410052    4.935214   -1.794329
     54          1           0      -11.237503    4.180240   -0.722891
     55          1           0      -10.881303    5.758425    0.538821
     56          1           0      -12.508026    6.263168    0.768416
     57          1           0      -18.808025   -0.085891   -3.597922
     58          1           0      -17.492838   -0.272258   -4.776354
     59          1           0      -17.744284    1.252110   -3.685025
     60          1           0      -19.321235   -2.057633   -3.856368
     61          1           0      -19.324735   -3.643670   -4.366539
     62          1           0      -18.302245   -2.517301   -5.300421
     63          1           0      -13.640503   -5.818628   -0.459466
     64          1           0      -12.464656   -5.292351    1.894365
     65          1           0      -15.203656   -4.894561    2.151399
     66          1           0      -14.239378   -6.409866    1.915664
     67          1           0      -15.730404   -6.085047    0.993650
     68          1           0      -11.150286   -6.401345    0.024565
     69          1           0      -10.249710   -4.897756    0.520469
     70          1           0      -10.527653   -3.873713   -1.136583
     71          1           0      -11.860032   -4.705721   -1.901118
     72          1           0      -10.305488   -5.406700   -1.910121
     73          1           0      -10.526314   -1.274985    4.922830
     74          1           0       -8.948686   -0.562691    4.529339
     75          1           0       -9.251226   -2.097613    3.895914
     76          1           0      -10.644752    3.691541    1.600647
     77          1           0      -13.313691    6.448020    3.220757
     78          1           0      -11.976872    6.635142    4.446971
     79          1           0      -13.301020    5.512057    4.678343
     80         12           0       13.874766   -0.624074    0.056653
     81          6           0       11.876749    2.256523   -0.561543
     82          6           0       16.662906    1.382420   -0.094479
     83          6           0       15.568403   -3.413929    0.573553
     84          6           0       10.938601   -2.664116   -0.312796
     85          7           0       14.259932    1.631347   -0.367108
     86          6           0       13.244991    2.564193   -0.476679
     87          6           0       13.947851    3.961527   -0.574226
     88          6           0       15.539625    3.676865   -0.463715
     89          6           0       15.485007    2.152832   -0.316645
     90          6           0       16.409949    4.228678   -1.611984
     91          6           0       13.402993    5.110143    0.371607
     92          6           0       12.910084    6.345964   -0.323402
     93          1           0       13.422333    6.812792   -1.660366
     94          7           0       15.926549   -0.962538    0.353495
     95          6           0       16.887305   -0.007887    0.237798
     96          6           0       18.113466   -0.629469    0.667584
     97          6           0       17.850888   -2.013105    0.763645
     98          6           0       16.385907   -2.238579    0.539298
     99          6           0       19.406127    0.199077    0.757028
    100          6           0       18.854274   -3.115254    0.920681
    101          8           0       18.516140   -4.321843    0.875324
    102          6           0       20.290100   -2.775173    1.076207
    103          7           0       13.271634   -2.762836    0.047374
    104          6           0       14.139077   -3.661691    0.359206
    105          6           0       13.599088   -5.182204    0.512905
    106          6           0       12.117382   -4.918511    0.204416
    107          6           0       12.078487   -3.427680   -0.026434
    108          6           0       14.345608   -6.112631   -0.511864
    109          6           0       11.076610   -5.368078    1.289295
    110          6           0       11.019964   -4.524896    2.585274
    111          7           0       11.922518   -0.303674   -0.460136
    112          6           0       10.876070   -1.247219   -0.587748
    113          6           0        9.630868   -0.506232   -0.830926
    114          6           0        9.977245    0.866265   -0.819196
    115          6           0       11.384724    0.943589   -0.545816
    116          6           0        8.220754   -1.143239   -1.013700
    117          6           0        9.427299    2.111242   -0.938045
    118          8           0        8.299823    2.485821   -1.188400
    119          6           0       10.590336    3.119667   -0.723330
    120          6           0       10.625015    4.024147   -1.849314
    121          8           0       11.246625    3.821511   -2.898463
    122          8           0        9.672783    5.034869   -1.671710
    123          6           0        9.487029    5.913427   -2.853114
    124          1           0       17.615064    1.845451   -0.363211
    125          1           0       16.159071   -4.332447    0.580999
    126          1           0       10.015874   -3.236115   -0.430054
    127          1           0       13.578864    4.247543   -1.558336
    128          1           0       15.927862    4.195790    0.411565
    129          1           0       17.198006    4.874199   -1.222102
    130          1           0       15.891297    4.759711   -2.409993
    131          1           0       16.849376    3.335524   -2.056152
    132          1           0       14.168734    5.392701    1.094302
    133          1           0       12.536824    4.679306    0.873893
    134          1           0       13.309196    7.191377    0.238161
    135          1           0       11.821724    6.303035   -0.345346
    136          1           0       19.206669    1.270770    0.774913
    137          1           0       20.050600   -0.034524   -0.089458
    138          1           0       19.864520   -0.116383    1.693740
    139          1           0       20.369118   -2.134983    1.954871
    140          1           0       20.656455   -2.197088    0.226987
    141          1           0       20.896492   -3.678950    1.120443
    142          1           0       13.724965   -5.547019    1.532598
    143          1           0       11.879225   -5.301257   -0.788263
    144          1           0       14.616573   -5.504669   -1.374989
    145          1           0       13.641610   -6.871787   -0.854523
    146          1           0       15.245386   -6.627770   -0.174525
    147          1           0       11.164749   -6.440054    1.463080
    148          1           0       10.090776   -5.332903    0.826675
    149          1           0       11.954306   -4.075637    2.920164
    150          1           0       10.548503   -5.129411    3.360947
    151          1           0       10.298404   -3.736036    2.373350
    152          1           0        7.457434   -0.681877   -0.387047
    153          1           0        8.211654   -2.221744   -0.860160
    154          1           0        7.808274   -0.818736   -1.969363
    155          1           0       10.266272    3.634497    0.180524
    156          1           0        9.007348    5.367374   -3.665014
    157          1           0       10.412854    6.296341   -3.280911
    158          1           0        9.005640    6.820221   -2.486528
 ---------------------------------------------------------------------

 SCF Done:  E(RwB97XD) =  -4070.58687131     A.U. after   19 cycles

 Excitation energies and oscillator strengths:

 Excited State   1:      Singlet-A      1.6464 eV  753.07 nm  f=0.3947  <S**2>=0.000
     309 -> 316       -0.18116
     311 -> 313        0.68333
     309 <- 316       -0.11545
 This state for optimization and/or second-order correction.
 Total Energy, E(TD-HF/TD-DFT) =  -4070.52636754
 Copying the excited state density for this state as the 1-particle RhoCI density.

 Excited State   2:      Singlet-A      1.7176 eV  721.85 nm  f=0.3582  <S**2>=0.000
     310 -> 315       -0.19144
     312 -> 314        0.67964
     310 <- 315       -0.11527

 Excited State   3:      Singlet-A      2.1204 eV  584.72 nm  f=0.1309  <S**2>=0.000
     309 -> 313        0.64941
     311 -> 316        0.26622

 Excited State   4:      Singlet-A      2.1591 eV  574.25 nm  f=0.1078  <S**2>=0.000
     310 -> 314        0.63940
     312 -> 315        0.28264

 Excited State   5:      Singlet-A      3.7378 eV  331.70 nm  f=0.0000  <S**2>=0.000
     312 -> 313        0.70702

 The electronic state is 1-A.
 Alpha  occ. eigenvalues --  -46.96128 -46.95625 -19.30219 -19.29413 -19.24148
 Alpha  occ. eigenvalues --  -19.23975 -19.23860 -19.23654 -19.23256 -19.22470
 Alpha  occ. eigenvalues --  -14.47245 -14.46530 -14.46436 -14.46372 -14.44360
 Alpha  occ. eigenvalues --  -14.44263 -14.44216 -14.43522 -10.42399 -10.42377
 Alpha  occ. eigenvalues --  -10.39072 -10.38993 -10.38141 -10.37179 -10.35968
 Alpha  occ. eigenvalues --  -10.35790 -10.35568 -10.35418 -10.35415 -10.35183
 Alpha  occ. eigenvalues --  -10.35083 -10.35034 -10.34582 -10.34468 -10.34249
 Alpha  occ. eigenvalues --  -10.34131 -10.34052 -10.33778 -10.33765 -10.33585
 Alpha  occ. eigenvalues --  -10.33073 -10.32948 -10.32867 -10.32757 -10.32693
 Alpha  occ. eigenvalues --  -10.32553 -10.32520 -10.32418 -10.32241 -10.32220
 Alpha  occ. eigenvalues --  -10.32162 -10.32108 -10.32087 -10.32043 -10.31952
 Alpha  occ. eigenvalues --  -10.31952 -10.31895 -10.31882 -10.31802 -10.31652
 Alpha  occ. eigenvalues --  -10.31552 -10.31498 -10.31448 -10.31429 -10.31413
 Alpha  occ. eigenvalues --  -10.31399 -10.31169 -10.31141 -10.31134 -10.31131
 Alpha  occ. eigenvalues --  -10.30487 -10.30481 -10.30284 -10.30269 -10.30248
 Alpha  occ. eigenvalues --  -10.30200 -10.30065 -10.29875 -10.29855 -10.29802
 Alpha  occ. eigenvalues --  -10.29775 -10.29652 -10.29410 -10.28651 -10.28492
 Alpha  occ. eigenvalues --  -10.27807  -3.21933  -3.21489  -1.95532  -1.95086
 Alpha  occ. eigenvalues --   -1.95079  -1.94853  -1.94587  -1.94473  -1.19137
 Alpha  occ. eigenvalues --   -1.16422  -1.11375  -1.11291  -1.10766  -1.10715
 Alpha  occ. eigenvalues --   -1.09506  -1.08423  -1.08107  -1.07383  -1.06254
 Alpha  occ. eigenvalues --   -1.05752  -1.05350  -1.05049  -1.04606  -1.03651
 Alpha  occ. eigenvalues --   -0.94193  -0.94144  -0.91576  -0.91074  -0.90564
 Alpha  occ. eigenvalues --   -0.90265  -0.90252  -0.89837  -0.89644  -0.89477
 Alpha  occ. eigenvalues --   -0.89210  -0.88760  -0.88682  -0.87382  -0.86514
 Alpha  occ. eigenvalues --   -0.86198  -0.86105  -0.85201  -0.84937  -0.84415
 Alpha  occ. eigenvalues --   -0.84173  -0.83888  -0.83464  -0.82650  -0.82572
 Alpha  occ. eigenvalues --   -0.82005  -0.80664  -0.80310  -0.79548  -0.79445
 Alpha  occ. eigenvalues --   -0.79260  -0.78319  -0.77843  -0.77590  -0.77248
 Alpha  occ. eigenvalues --   -0.76919  -0.75430  -0.74471  -0.73613  -0.73515
 Alpha  occ. eigenvalues --   -0.72331  -0.71292  -0.71000  -0.70992  -0.69785
 Alpha  occ. eigenvalues --   -0.69677  -0.69115  -0.68911  -0.67679  -0.67326
 Alpha  occ. eigenvalues --   -0.67225  -0.66864  -0.66728  -0.66562  -0.66187
 Alpha  occ. eigenvalues --   -0.65907  -0.63997  -0.63356  -0.62380  -0.62248
 Alpha  occ. eigenvalues --   -0.61863  -0.61461  -0.61257  -0.60582  -0.60547
 Alpha  occ. eigenvalues --   -0.60199  -0.60071  -0.59846  -0.59840  -0.59491
 Alpha  occ. eigenvalues --   -0.58372  -0.58193  -0.57963  -0.57642  -0.57431
 Alpha  occ. eigenvalues --   -0.57177  -0.56942  -0.56883  -0.56722  -0.56594
 Alpha  occ. eigenvalues --   -0.55453  -0.55247  -0.55199  -0.55119  -0.54910
 Alpha  occ. eigenvalues --   -0.54900  -0.54767  -0.54596  -0.54465  -0.54089
 Alpha  occ. eigenvalues --   -0.53949  -0.53794  -0.53440  -0.53202  -0.53071
 Alpha  occ. eigenvalues --   -0.52962  -0.52691  -0.52427  -0.52285  -0.51718
 Alpha  occ. eigenvalues --   -0.51675  -0.51609  -0.51450  -0.51337  -0.51166
 Alpha  occ. eigenvalues --   -0.51107  -0.51086  -0.50930  -0.50906  -0.50760
 Alpha  occ. eigenvalues --   -0.50489  -0.50391  -0.50233  -0.49980  -0.49942
 Alpha  occ. eigenvalues --   -0.49853  -0.49400  -0.49264  -0.49202  -0.49050
 Alpha  occ. eigenvalues --   -0.48714  -0.48624  -0.48558  -0.48515  -0.48415
 Alpha  occ. eigenvalues --   -0.48129  -0.48071  -0.47866  -0.47707  -0.47703
 Alpha  occ. eigenvalues --   -0.47399  -0.47128  -0.46806  -0.46509  -0.46461
 Alpha  occ. eigenvalues --   -0.46339  -0.46091  -0.46032  -0.45981  -0.45705
 Alpha  occ. eigenvalues --   -0.45633  -0.45574  -0.45373  -0.45243  -0.45108
 Alpha  occ. eigenvalues --   -0.45096  -0.44875  -0.44645  -0.44412  -0.44353
 Alpha  occ. eigenvalues --   -0.44240  -0.44098  -0.44015  -0.43757  -0.43709
 Alpha  occ. eigenvalues --   -0.43695  -0.43569  -0.43526  -0.43355  -0.43157
 Alpha  occ. eigenvalues --   -0.42998  -0.42954  -0.42788  -0.42592  -0.42465
 Alpha  occ. eigenvalues --   -0.42032  -0.41965  -0.41657  -0.41352  -0.40986
 Alpha  occ. eigenvalues --   -0.40797  -0.39980  -0.39928  -0.39586  -0.39029
 Alpha  occ. eigenvalues --   -0.38861  -0.38625  -0.38409  -0.38375  -0.38003
 Alpha  occ. eigenvalues --   -0.37998  -0.37428  -0.36422  -0.36199  -0.35883
 Alpha  occ. eigenvalues --   -0.35694  -0.35523  -0.35285  -0.33635  -0.33514
 Alpha  occ. eigenvalues --   -0.33169  -0.32927  -0.32659  -0.32491  -0.32453
 Alpha  occ. eigenvalues --   -0.32097  -0.31905  -0.31630  -0.25880  -0.25713
 Alpha  occ. eigenvalues --   -0.23206  -0.23041
 Alpha virt. eigenvalues --   -0.07292  -0.06861   0.00156   0.00338   0.02225
 Alpha virt. eigenvalues --    0.02384   0.04401   0.04459   0.05357   0.05720
 Alpha virt. eigenvalues --    0.07257   0.07798   0.08139   0.08677   0.09162

 Mulliken charges:
               1
     1  Mg   0.939282
     2  C   -0.014725
     3  C   -0.073780
     4  C   -0.062238
     5  C   -0.108131
     6  N   -0.378611
     7  C    0.014640
     8  C   -0.066713
     9  C   -0.052582
    10  C   -0.019157
    11  C    0.003437
    12  C    0.003706
    13  C   -0.135866
    14  H    0.038594
    15  N   -0.463767
    16  C    0.198231
    17  C   -0.182727
    18  C   -0.073610
    19  C    0.131226
    20  C    0.083226
    21  C    0.052684
    22  O   -0.248155
    23  C   -0.009995
    24  N   -0.296396
    25  C    0.019952
    26  C   -0.042311
    27  C   -0.112810
    28  C    0.096000
    29  C    0.041903
    30  C    0.013772
    31  C   -0.088613
    32  N   -0.408877
    33  C    0.114880
    34  C   -0.133121
    35  C    0.022709
    36  C    0.108394
    37  C    0.062346
    38  C    0.079773
    39  O   -0.226479
    40  C   -0.091573
    41  C    0.269295
    42  O   -0.244657
    43  O   -0.346809
    44  C    0.120688
    45  H   -0.007340
    46  H    0.014634
    47  H   -0.002455
    48  H    0.047132
    49  H    0.033998
    50  H    0.048025
    51  H    0.041968
    52  H    0.040820
    53  H    0.041799
    54  H    0.042777
    55  H    0.058110
    56  H    0.037997
    57  H    0.037798
    58  H    0.060484
    59  H    0.052855
    60  H    0.039029
    61  H    0.045815
    62  H    0.075408
    63  H    0.019677
    64  H    0.022920
    65  H    0.050068
    66  H    0.040477
    67  H    0.051504
    68  H    0.035961
    69  H    0.028764
    70  H    0.022346
    71  H    0.034925
    72  H    0.039599
    73  H    0.074216
    74  H    0.055956
    75  H    0.036022
    76  H    0.056936
    77  H    0.046793
    78  H    0.068386
    79  H    0.073562
    80  Mg   0.949055
    81  C    0.012656
    82  C   -0.090525
    83  C   -0.048185
    84  C   -0.087777
    85  N   -0.314407
    86  C   -0.013250
    87  C   -0.056097
    88  C   -0.105078
    89  C    0.077684
    90  C    0.018430
    91  C    0.000135
    92  C   -0.139607
    93  H    0.031538
    94  N   -0.486282
    95  C    0.140130
    96  C   -0.180264
    97  C   -0.072174
    98  C    0.161162
    99  C    0.072599
   100  C    0.036284
   101  O   -0.261918
   102  C    0.006841
   103  N   -0.272090
   104  C    0.015666
   105  C   -0.109940
   106  C    0.029213
   107  C   -0.040108
   108  C   -0.003649
   109  C   -0.032783
   110  C   -0.036092
   111  N   -0.476643
   112  C    0.148532
   113  C   -0.175967
   114  C    0.006772
   115  C    0.138821
   116  C    0.087110
   117  C    0.031647
   118  O   -0.201334
   119  C   -0.063038
   120  C    0.266984
   121  O   -0.263347
   122  O   -0.378972
   123  C    0.150051
   124  H    0.007815
   125  H    0.028986
   126  H   -0.009102
   127  H    0.057236
   128  H    0.044937
   129  H    0.035044
   130  H    0.051779
   131  H    0.033449
   132  H    0.031634
   133  H    0.036345
   134  H    0.048504
   135  H    0.062289
   136  H    0.047870
   137  H    0.064222
   138  H    0.046367
   139  H    0.050862
   140  H    0.050280
   141  H    0.058468
   142  H    0.052393
   143  H    0.036405
   144  H    0.045539
   145  H    0.037001
   146  H    0.064048
   147  H    0.030847
   148  H    0.025045
   149  H    0.049803
   150  H    0.041241
   151  H    0.038697
   152  H    0.043919
   153  H    0.031493
   154  H    0.051089
   155  H    0.073649
   156  H    0.064593
   157  H    0.041656
   158  H    0.053811
 Sum of Mulliken charges =  -0.00000

 Dipole moment (field-independent basis, Debye):
    X=              2.7462    Y=              0.9560    Z=             -0.8574  Tot=              3.0316
 Quadrupole moment (field-independent basis, Debye-Ang):
   XX=           -372.3048   YY=           -472.7744   ZZ=           -521.1364
   XY=            -13.6678   XZ=             71.7230   YZ=            -15.7255

 Normal termination of Gaussian 16 at Sat Sep 18 19:39:05 2021.
