 Gaussian 16, Revision A.03,
 Gaussian 16:  ES64L-G16RevA.03 25-Dec-2016

 --------------------------------
 #p wB97XD/Def2SVP td=(nstates=5)
 --------------------------------

 --------------------------------
 TDDFT excited states in gaussian
 --------------------------------
 Symbolic Z-matrix:
 Charge =  0 Multiplicity = 1

                         Standard orientation:
 ---------------------------------------------------------------------
 Center     Atomic      Atomic             Coordinates (Angstroms)
 Number     Number       Type             X           Y           Z
 ---------------------------------------------------------------------
      1         12           0       28.654156    0.660360    0.529852
      2          6           0       28.869214   -2.433300   -1.287167
      3          6           0       27.107242    1.996540   -2.367140
      4          6           0       28.464743    3.794758    2.058246
      5          6           0       30.466390   -0.590810    3.041960
      6          7           0       28.250075   -0.158200   -1.712260
      7          6           0       28.321965   -1.445082   -2.114843
      8          6           0       27.880081   -1.561089   -3.617995
      9          6           0       27.540780   -0.060135   -3.932095
     10          6           0       27.551262    0.660993   -2.564687
     11          6           0       28.523630    0.566404   -4.981869
     12          6           0       26.688457   -2.494592   -3.829825
     13          6           0       26.781470   -3.431229   -4.989421
     14          1           0       25.663160   -4.462632   -5.197962
     15          7           0       27.738611    2.536562    0.054675
     16          6           0       27.179254    2.857846   -1.177612
     17          6           0       26.674486    4.214508   -1.102351
     18          6           0       26.944483    4.724391    0.156812
     19          6           0       27.825012    3.696311    0.807281
     20          6           0       26.097893    4.978018   -2.259806
     21          6           0       26.649610    6.144537    0.792145
     22          8           0       26.918255    6.524191    1.905611
     23          6           0       25.792677    7.120037    0.014772
     24          7           0       29.454926    1.538167    2.169454
     25          6           0       29.283058    2.808207    2.655096
     26          6           0       30.197578    3.098971    3.867928
     27          6           0       30.638222    1.643510    4.324915
     28          6           0       30.119837    0.796611    3.100704
     29          6           0       31.365282    4.080645    3.531265
     30          6           0       30.028218    1.178683    5.682287
     31          6           0       28.520561    0.936239    5.682065
     32          7           0       29.530769   -1.076223    0.865660
     33          6           0       30.228427   -1.520706    2.023245
     34          6           0       30.663596   -2.906076    1.860155
     35          6           0       30.110842   -3.295437    0.626882
     36          6           0       29.428663   -2.186514    0.059920
     37          6           0       31.432410   -3.684940    2.823644
     38          6           0       30.024463   -4.445943   -0.266747
     39          8           0       30.428232   -5.585458   -0.105629
     40          6           0       29.283087   -3.916986   -1.609550
     41          6           0       28.160389   -4.952843   -1.705686
     42          8           0       27.146831   -5.062654   -0.992408
     43          8           0       28.454681   -5.810364   -2.667376
     44          6           0       27.383297   -6.765941   -3.164297
     45          1           0       26.565999    2.375311   -3.236298
     46          1           0       28.461301    4.737882    2.610253
     47          1           0       30.988528   -0.955950    3.928474
     48          1           0       28.735740   -2.020434   -4.111777
     49          1           0       26.523012    0.052528   -4.308068
     50          1           0       28.061468    1.008574   -5.864473
     51          1           0       29.367726   -0.074220   -5.237914
     52          1           0       29.044630    1.472108   -4.670637
     53          1           0       25.965789   -1.808482   -4.271884
     54          1           0       26.310974   -2.927331   -2.902698
     55          1           0       27.693211   -4.008312   -5.152002
     56          1           0       26.718230   -2.761377   -5.847046
     57          1           0       25.936856    4.331089   -3.121775
     58          1           0       26.694774    5.825517   -2.600398
     59          1           0       25.111694    5.411846   -2.093755
     60          1           0       24.798552    6.724865   -0.193883
     61          1           0       26.410977    7.294955   -0.865745
     62          1           0       25.856734    8.031962    0.608425
     63          1           0       29.553330    3.660746    4.545198
     64          1           0       31.691863    1.382943    4.222285
     65          1           0       31.254308    5.048850    4.019421
     66          1           0       31.620008    4.237724    2.483737
     67          1           0       32.215741    3.533142    3.937945
     68          1           0       30.465793    1.798558    6.464962
     69          1           0       30.454267    0.201500    5.909024
     70          1           0       27.993302    1.215397    4.770557
     71          1           0       28.126068    1.563829    6.480808
     72          1           0       28.208001   -0.105566    5.743115
     73          1           0       31.665962   -4.703250    2.512185
     74          1           0       30.821591   -3.696739    3.726255
     75          1           0       32.343873   -3.126900    3.042599
     76          1           0       29.879615   -4.086093   -2.506001
     77          1           0       27.735738   -7.124472   -4.131679
     78          1           0       26.433869   -6.270947   -3.366148
     79          1           0       27.162095   -7.572996   -2.464880
     80         12           0      -29.175594   -0.363469   -0.047767
     81          6           0      -25.943291    0.044782   -1.024167
     82          6           0      -28.096016   -2.875980    2.195064
     83          6           0      -32.052601    0.009602    1.606875
     84          6           0      -30.096629    2.563241   -1.952677
     85          7           0      -27.265772   -1.274683    0.456057
     86          6           0      -26.088664   -1.003538   -0.001784
     87          6           0      -25.001743   -2.056832    0.415717
     88          6           0      -25.798610   -3.153497    1.219771
     89          6           0      -27.193574   -2.442994    1.300522
     90          6           0      -25.707853   -4.585281    0.690060
     91          6           0      -23.741707   -1.365968    1.210655
     92          6           0      -23.960825   -0.032265    1.906344
     93          1           0      -23.004898    0.439356    3.002085
     94          7           0      -29.949927   -1.306322    1.672626
     95          6           0      -29.410372   -2.338038    2.402579
     96          6           0      -30.262092   -2.659373    3.464044
     97          6           0      -31.429882   -1.808696    3.363721
     98          6           0      -31.169849   -0.936971    2.187826
     99          6           0      -29.975471   -3.850983    4.359211
    100          6           0      -32.623917   -1.861240    4.333946
    101          8           0      -32.578402   -2.691437    5.269414
    102          6           0      -33.795053   -1.035891    4.265503
    103          7           0      -30.828242    1.227794   -0.054503
    104          6           0      -31.919870    0.955053    0.602164
    105          6           0      -33.099167    1.903053    0.242538
    106          6           0      -32.497188    2.694426   -0.939125
    107          6           0      -31.015191    2.154489   -1.063222
    108          6           0      -34.353228    1.208125   -0.148760
    109          6           0      -32.590130    4.279977   -0.737012
    110          6           0      -33.584208    5.049202   -1.700967
    111          7           0      -28.311927    0.988315   -1.342566
    112          6           0      -28.769675    2.091665   -2.073649
    113          6           0      -27.637849    2.621296   -2.896351
    114          6           0      -26.539899    1.864787   -2.462644
    115          6           0      -26.975621    0.908325   -1.498167
    116          6           0      -27.633090    3.704504   -3.861108
    117          6           0      -25.162862    1.778240   -2.637403
    118          8           0      -24.349960    2.375580   -3.358107
    119          6           0      -24.721292    0.546787   -1.796554
    120          6           0      -24.015422   -0.453474   -2.742655
    121          8           0      -22.905923   -0.941989   -2.612613
    122          8           0      -24.797219   -0.782816   -3.828762
    123          6           0      -24.226359   -1.696506   -4.825526
    124          1           0      -27.659180   -3.601374    2.884351
    125          1           0      -33.068932    0.071754    2.000897
    126          1           0      -30.427658    3.335444   -2.650070
    127          1           0      -24.710490   -2.569961   -0.501171
    128          1           0      -25.491724   -3.200697    2.265074
    129          1           0      -26.687625   -4.908642    0.339053
    130          1           0      -25.400548   -5.291860    1.461910
    131          1           0      -24.968435   -4.754181   -0.092829
    132          1           0      -22.987693   -1.337974    0.423675
    133          1           0      -23.352847   -1.938846    2.052773
    134          1           0      -24.962794   -0.137379    2.321591
    135          1           0      -24.032266    0.699025    1.101027
    136          1           0      -30.717198   -4.643451    4.462229
    137          1           0      -29.675361   -3.482987    5.340619
    138          1           0      -29.082818   -4.358752    3.994423
    139          1           0      -34.419313   -1.110513    3.375269
    140          1           0      -33.514447    0.015246    4.206663
    141          1           0      -34.416402   -1.082623    5.159299
    142          1           0      -33.466048    2.592371    1.002912
    143          1           0      -32.923086    2.418107   -1.903752
    144          1           0      -35.138808    1.213462    0.606682
    145          1           0      -34.188264    0.132932   -0.227039
    146          1           0      -34.744834    1.631511   -1.073544
    147          1           0      -31.615214    4.706029   -0.977765
    148          1           0      -32.950144    4.588801    0.243442
    149          1           0      -34.186435    5.748236   -1.122003
    150          1           0      -34.305056    4.325906   -2.082395
    151          1           0      -32.938350    5.618608   -2.369613
    152          1           0      -28.636114    3.688138   -4.288103
    153          1           0      -26.900550    3.516597   -4.646896
    154          1           0      -27.321874    4.595235   -3.316161
    155          1           0      -23.851133    0.743744   -1.170774
    156          1           0      -24.731603   -1.524422   -5.776092
    157          1           0      -24.341508   -2.768607   -4.666853
    158          1           0      -23.143664   -1.616504   -4.927189
 ---------------------------------------------------------------------

 SCF Done:  E(RwB97XD) =  -4070.56227098     A.U. after   19 cycles

 Excitation energies and oscillator strengths:

 Excited State   1:      Singlet-A      1.5889 eV  780.33 nm  f=0.3668  <S**2>=0.000
     310 -> 315       -0.18992
     312 -> 314        0.68308
     310 <- 315       -0.12270
 This state for optimization and/or second-order correction.
 Total Energy, E(TD-HF/TD-DFT) =  -4070.50388136
 Copying the excited state density for this state as the 1-particle RhoCI density.

 Excited State   2:      Singlet-A      1.6547 eV  749.28 nm  f=0.4331  <S**2>=0.000
     309 -> 316       -0.16631
     311 -> 313        0.68664
     309 <- 316       -0.11152

 Excited State   3:      Singlet-A      2.1589 eV  574.30 nm  f=0.0893  <S**2>=0.000
     310 -> 314        0.62442
     312 -> 315        0.32207

 Excited State   4:      Singlet-A      2.1980 eV  564.07 nm  f=0.1160  <S**2>=0.000
     309 -> 313        0.64044
     311 -> 316        0.27516

 Excited State   5:      Singlet-A      3.2248 eV  384.47 nm  f=0.0080  <S**2>=0.000
     302 -> 313        0.15854
     308 -> 313        0.66810
     308 -> 317        0.10503

 The electronic state is 1-A.
 Alpha  occ. eigenvalues --  -46.96685 -46.94605 -19.30181 -19.30122 -19.25108
 Alpha  occ. eigenvalues --  -19.24519 -19.24382 -19.24132 -19.22947 -19.22400
 Alpha  occ. eigenvalues --  -14.47820 -14.47049 -14.46511 -14.46113 -14.45193
 Alpha  occ. eigenvalues --  -14.44712 -14.44385 -14.44280 -10.43644 -10.42301
 Alpha  occ. eigenvalues --  -10.39555 -10.39399 -10.38813 -10.38171 -10.37086
 Alpha  occ. eigenvalues --  -10.35963 -10.35927 -10.35446 -10.35362 -10.35342
 Alpha  occ. eigenvalues --  -10.35291 -10.35247 -10.35116 -10.35109 -10.34759
 Alpha  occ. eigenvalues --  -10.34707 -10.34677 -10.34625 -10.34492 -10.34011
 Alpha  occ. eigenvalues --  -10.33920 -10.33877 -10.33533 -10.33375 -10.32957
 Alpha  occ. eigenvalues --  -10.32933 -10.32913 -10.32875 -10.32708 -10.32640
 Alpha  occ. eigenvalues --  -10.32564 -10.32483 -10.32458 -10.32447 -10.32405
 Alpha  occ. eigenvalues --  -10.32393 -10.32376 -10.32352 -10.32212 -10.31745
 Alpha  occ. eigenvalues --  -10.31632 -10.31607 -10.31319 -10.31156 -10.31136
 Alpha  occ. eigenvalues --  -10.31082 -10.31070 -10.30853 -10.30830 -10.30805
 Alpha  occ. eigenvalues --  -10.30750 -10.30748 -10.30659 -10.30267 -10.30071
 Alpha  occ. eigenvalues --  -10.30006 -10.30002 -10.29903 -10.29867 -10.29859
 Alpha  occ. eigenvalues --  -10.29745 -10.29580 -10.29472 -10.29441 -10.29192
 Alpha  occ. eigenvalues --  -10.28779  -3.22556  -3.20734  -1.96116  -1.95707
 Alpha  occ. eigenvalues --   -1.95489  -1.94312  -1.93874  -1.93706  -1.18364
 Alpha  occ. eigenvalues --   -1.18108  -1.13663  -1.12251  -1.11378  -1.09770
 Alpha  occ. eigenvalues --   -1.09617  -1.07453  -1.07070  -1.06527  -1.05760
 Alpha  occ. eigenvalues --   -1.05735  -1.05100  -1.04243  -1.04243  -1.03724
 Alpha  occ. eigenvalues --   -0.95065  -0.92801  -0.91624  -0.91298  -0.91078
 Alpha  occ. eigenvalues --   -0.90923  -0.90586  -0.90342  -0.89911  -0.89698
 Alpha  occ. eigenvalues --   -0.89279  -0.88875  -0.88377  -0.87203  -0.86573
 Alpha  occ. eigenvalues --   -0.86077  -0.86019  -0.85445  -0.84839  -0.84419
 Alpha  occ. eigenvalues --   -0.84249  -0.83458  -0.83420  -0.82952  -0.82278
 Alpha  occ. eigenvalues --   -0.82110  -0.80457  -0.80084  -0.79353  -0.79194
 Alpha  occ. eigenvalues --   -0.78883  -0.78861  -0.78309  -0.77877  -0.77229
 Alpha  occ. eigenvalues --   -0.77046  -0.75419  -0.74561  -0.73955  -0.73604
 Alpha  occ. eigenvalues --   -0.71950  -0.71630  -0.70853  -0.70711  -0.70356
 Alpha  occ. eigenvalues --   -0.69479  -0.68834  -0.68236  -0.67957  -0.67644
 Alpha  occ. eigenvalues --   -0.67405  -0.67047  -0.66840  -0.66578  -0.66554
 Alpha  occ. eigenvalues --   -0.66053  -0.65368  -0.63756  -0.62902  -0.62000
 Alpha  occ. eigenvalues --   -0.61581  -0.61273  -0.60934  -0.60896  -0.60537
 Alpha  occ. eigenvalues --   -0.60022  -0.59690  -0.59347  -0.59242  -0.58304
 Alpha  occ. eigenvalues --   -0.58169  -0.57622  -0.57618  -0.57606  -0.57393
 Alpha  occ. eigenvalues --   -0.57021  -0.56753  -0.56563  -0.56496  -0.55875
 Alpha  occ. eigenvalues --   -0.55854  -0.55443  -0.55256  -0.55213  -0.55132
 Alpha  occ. eigenvalues --   -0.54814  -0.54799  -0.54629  -0.54606  -0.54310
 Alpha  occ. eigenvalues --   -0.54175  -0.54036  -0.53441  -0.53421  -0.53265
 Alpha  occ. eigenvalues --   -0.52880  -0.52850  -0.52819  -0.52615  -0.52264
 Alpha  occ. eigenvalues --   -0.52040  -0.51908  -0.51726  -0.51539  -0.51486
 Alpha  occ. eigenvalues --   -0.51196  -0.51172  -0.51143  -0.50932  -0.50890
 Alpha  occ. eigenvalues --   -0.50760  -0.50545  -0.50483  -0.50345  -0.50260
 Alpha  occ. eigenvalues --   -0.50054  -0.49572  -0.49424  -0.49349  -0.49342
 Alpha  occ. eigenvalues --   -0.49132  -0.48813  -0.48747  -0.48654  -0.48560
 Alpha  occ. eigenvalues --   -0.48271  -0.48114  -0.48101  -0.47861  -0.47728
 Alpha  occ. eigenvalues --   -0.47668  -0.47409  -0.47194  -0.47190  -0.46977
 Alpha  occ. eigenvalues --   -0.46838  -0.46812  -0.46546  -0.46396  -0.46316
 Alpha  occ. eigenvalues --   -0.46048  -0.45872  -0.45754  -0.45581  -0.45574
 Alpha  occ. eigenvalues --   -0.45445  -0.45047  -0.44935  -0.44883  -0.44713
 Alpha  occ. eigenvalues --   -0.44556  -0.44488  -0.44183  -0.44072  -0.44041
 Alpha  occ. eigenvalues --   -0.43899  -0.43761  -0.43425  -0.43281  -0.42880
 Alpha  occ. eigenvalues --   -0.42808  -0.42762  -0.42621  -0.42249  -0.42087
 Alpha  occ. eigenvalues --   -0.41982  -0.41768  -0.41447  -0.41064  -0.40985
 Alpha  occ. eigenvalues --   -0.40678  -0.40512  -0.40114  -0.39958  -0.39807
 Alpha  occ. eigenvalues --   -0.39523  -0.38822  -0.38693  -0.38518  -0.38411
 Alpha  occ. eigenvalues --   -0.38015  -0.37630  -0.36820  -0.36325  -0.36253
 Alpha  occ. eigenvalues --   -0.35880  -0.35318  -0.34693  -0.33801  -0.33581
 Alpha  occ. eigenvalues --   -0.33202  -0.33146  -0.32968  -0.32785  -0.32490
 Alpha  occ. eigenvalues --   -0.32130  -0.32026  -0.31140  -0.26876  -0.26004
 Alpha  occ. eigenvalues --   -0.23483  -0.22737
 Alpha virt. eigenvalues --   -0.07889  -0.07044  -0.00105   0.00024   0.01989
 Alpha virt. eigenvalues --    0.02727   0.03804   0.04352   0.04503   0.06530
 Alpha virt. eigenvalues --    0.07187   0.07603   0.07615   0.07994   0.08021

 Mulliken charges:
               1
     1  Mg   0.988097
     2  C    0.030579
     3  C   -0.071763
     4  C   -0.057223
     5  C   -0.105032
     6  N   -0.311477
     7  C   -0.008613
     8  C   -0.088412
     9  C   -0.083014
    10  C    0.047697
    11  C    0.016139
    12  C    0.051495
    13  C   -0.150337
    14  H    0.031596
    15  N   -0.450342
    16  C    0.180719
    17  C   -0.160792
    18  C   -0.081933
    19  C    0.134148
    20  C    0.055092
    21  C    0.057051
    22  O   -0.216009
    23  C   -0.009360
    24  N   -0.398546
    25  C    0.036449
    26  C   -0.083054
    27  C   -0.076551
    28  C    0.060784
    29  C    0.027321
    30  C   -0.006110
    31  C   -0.051443
    32  N   -0.527460
    33  C    0.158733
    34  C   -0.163675
    35  C   -0.041787
    36  C    0.162279
    37  C    0.081446
    38  C    0.128592
    39  O   -0.198789
    40  C   -0.130092
    41  C    0.252223
    42  O   -0.286963
    43  O   -0.341665
    44  C    0.147827
    45  H   -0.001375
    46  H    0.022937
    47  H   -0.006086
    48  H    0.039121
    49  H    0.035216
    50  H    0.033071
    51  H    0.038302
    52  H    0.025653
    53  H    0.023413
    54  H    0.069104
    55  H    0.048307
    56  H    0.037564
    57  H    0.022363
    58  H    0.055809
    59  H    0.037876
    60  H    0.076514
    61  H    0.035010
    62  H    0.053197
    63  H    0.040839
    64  H    0.042983
    65  H    0.048275
    66  H    0.047192
    67  H    0.024253
    68  H    0.039501
    69  H    0.022311
    70  H    0.040675
    71  H    0.045473
    72  H    0.042425
    73  H    0.065305
    74  H    0.051806
    75  H    0.044423
    76  H    0.067541
    77  H    0.057666
    78  H    0.052478
    79  H    0.073029
    80  Mg   0.957008
    81  C    0.004113
    82  C   -0.071971
    83  C   -0.044098
    84  C   -0.099287
    85  N   -0.349369
    86  C    0.011009
    87  C   -0.050886
    88  C   -0.100595
    89  C    0.039661
    90  C    0.023932
    91  C   -0.030488
    92  C   -0.101730
    93  H    0.062378
    94  N   -0.458802
    95  C    0.154386
    96  C   -0.150811
    97  C   -0.094612
    98  C    0.205500
    99  C    0.091902
   100  C    0.063185
   101  O   -0.267835
   102  C   -0.000005
   103  N   -0.298010
   104  C    0.011062
   105  C   -0.080655
   106  C   -0.046015
   107  C    0.048433
   108  C    0.002525
   109  C   -0.042811
   110  C   -0.064998
   111  N   -0.464700
   112  C    0.133683
   113  C   -0.171347
   114  C   -0.013210
   115  C    0.155573
   116  C    0.081446
   117  C    0.117904
   118  O   -0.220279
   119  C   -0.108072
   120  C    0.242756
   121  O   -0.244084
   122  O   -0.368863
   123  C    0.139804
   124  H    0.011742
   125  H   -0.042737
   126  H    0.000688
   127  H    0.052469
   128  H    0.038599
   129  H    0.039472
   130  H    0.034765
   131  H    0.041349
   132  H    0.057302
   133  H    0.041168
   134  H    0.052225
   135  H    0.036586
   136  H    0.060592
   137  H    0.046852
   138  H    0.000117
   139  H    0.063464
   140  H    0.040907
   141  H    0.054672
   142  H    0.045298
   143  H    0.032495
   144  H    0.028517
   145  H    0.031390
   146  H    0.039480
   147  H    0.036135
   148  H    0.041012
   149  H    0.033303
   150  H    0.036181
   151  H    0.047803
   152  H    0.043714
   153  H    0.066859
   154  H    0.074592
   155  H    0.058564
   156  H    0.052702
   157  H    0.037444
   158  H    0.061554
 Sum of Mulliken charges =  -0.00000

 Dipole moment (field-independent basis, Debye):
    X=             -3.8963    Y=              3.4843    Z=             -5.6290  Tot=              7.6816
 Quadrupole moment (field-independent basis, Debye-Ang):
   XX=           -255.8844   YY=           -520.6857   ZZ=           -492.6978
   XY=             57.7292   XZ=             60.2944   YZ=             13.7070

 Normal termination of Gaussian 16 at Sun Sep 19 08:13:09 2021.
