 Gaussian 16, Revision A.03,
 Gaussian 16:  ES64L-G16RevA.03 25-Dec-2016

 --------------------------------
 #p wB97XD/Def2SVP td=(nstates=5)
 --------------------------------

 --------------------------------
 TDDFT excited states in gaussian
 --------------------------------
 Symbolic Z-matrix:
 Charge =  0 Multiplicity = 1

                         Standard orientation:
 ---------------------------------------------------------------------
 Center     Atomic      Atomic             Coordinates (Angstroms)
 Number     Number       Type             X           Y           Z
 ---------------------------------------------------------------------
      1         12           0      -11.843087    0.197177   -0.340965
      2          6           0       -8.816395   -1.182143    0.605696
      3          6           0      -13.446792   -2.771220    0.758839
      4          6           0      -14.905796    1.690504   -0.704220
      5          6           0      -10.331773    3.241117   -0.956894
      6          7           0      -11.148098   -1.775131    0.448541
      7          6           0       -9.858532   -2.057804    0.847139
      8          6           0       -9.720115   -3.402201    1.655271
      9          6           0      -11.135365   -4.083341    1.343378
     10          6           0      -12.016682   -2.842529    0.763420
     11          6           0      -11.193770   -5.339304    0.392827
     12          6           0       -9.477564   -3.244056    3.115089
     13          6           0       -8.213923   -3.785918    3.755231
     14          1           0       -8.328562   -4.196343    5.232108
     15          7           0      -13.912010   -0.491421   -0.103293
     16          6           0      -14.296461   -1.780138    0.312383
     17          6           0      -15.718499   -1.899313    0.250350
     18          6           0      -16.192970   -0.519586   -0.034170
     19          6           0      -14.990342    0.331913   -0.290705
     20          6           0      -16.497358   -3.141600    0.695128
     21          6           0      -17.693337   -0.179365   -0.059216
     22          8           0      -18.631692   -0.938528    0.165030
     23          6           0      -18.058658    1.262672   -0.039791
     24          7           0      -12.569864    2.315609   -0.612750
     25          6           0      -13.852455    2.572411   -0.903705
     26          6           0      -14.001389    4.093123   -0.903679
     27          6           0      -12.519068    4.668685   -1.079371
     28          6           0      -11.703547    3.311266   -0.899826
     29          6           0      -14.861211    4.538519   -2.139274
     30          6           0      -11.996222    5.808149   -0.111491
     31          6           0      -11.675038    7.193957   -0.650927
     32          7           0       -9.907632    0.910419   -0.286164
     33          6           0       -9.417166    2.181525   -0.601139
     34          6           0       -8.006816    2.232335   -0.364382
     35          6           0       -7.686578    0.928114    0.124520
     36          6           0       -8.919415    0.166762    0.091152
     37          6           0       -7.070711    3.384626   -0.550556
     38          6           0       -6.670611    0.056492    0.550301
     39          8           0       -5.483979    0.289999    0.664227
     40          6           0       -7.352032   -1.307482    0.956192
     41          6           0       -6.559255   -2.412720    0.395287
     42          8           0       -5.814517   -3.116035    1.068592
     43          8           0       -6.766865   -2.503659   -0.972970
     44          6           0       -5.962860   -3.570301   -1.610831
     45          1           0      -14.045016   -3.644904    1.024162
     46          1           0      -15.918263    2.060558   -0.880940
     47          1           0       -9.879257    4.222063   -1.115574
     48          1           0       -8.923520   -4.004833    1.220340
     49          1           0      -11.584649   -4.314604    2.309841
     50          1           0      -10.170702   -5.695173    0.271619
     51          1           0      -11.643822   -5.150911   -0.581975
     52          1           0      -11.834773   -6.073764    0.879030
     53          1           0      -10.277324   -3.789282    3.618563
     54          1           0       -9.476043   -2.187014    3.378923
     55          1           0       -7.475602   -2.984589    3.757494
     56          1           0       -7.832123   -4.681950    3.266418
     57          1           0      -15.992573   -3.998938    1.139836
     58          1           0      -17.050752   -3.394417   -0.208936
     59          1           0      -17.295616   -2.724591    1.308290
     60          1           0      -18.181011    1.800841   -0.978761
     61          1           0      -17.428781    1.838486    0.638458
     62          1           0      -19.065437    1.308489    0.377080
     63          1           0      -14.456885    4.474238    0.010594
     64          1           0      -12.344261    4.943698   -2.118932
     65          1           0      -15.633689    5.206613   -1.758473
     66          1           0      -15.317443    3.729334   -2.710910
     67          1           0      -14.283642    5.070376   -2.895694
     68          1           0      -11.104066    5.375357    0.340576
     69          1           0      -12.808464    5.967929    0.598973
     70          1           0      -10.964003    7.614970    0.060348
     71          1           0      -12.577805    7.804111   -0.614765
     72          1           0      -11.212822    7.304468   -1.631299
     73          1           0       -6.084876    3.015912   -0.266013
     74          1           0       -7.440201    4.202619    0.067138
     75          1           0       -6.982073    3.751000   -1.573464
     76          1           0       -7.231523   -1.338952    2.039579
     77          1           0       -5.000122   -3.172462   -1.931533
     78          1           0       -6.590926   -3.983725   -2.399923
     79          1           0       -5.794123   -4.409170   -0.936205
     80         12           0       11.540311    0.540150   -0.063438
     81          6           0       10.682966   -2.768726   -0.450955
     82          6           0        8.251875    1.491556    0.028298
     83          6           0       12.438939    3.874272    0.526062
     84          6           0       14.782033   -0.368127    0.706289
     85          7           0        9.712395   -0.623647    0.011288
     86          6           0        9.533335   -1.963262   -0.344320
     87          6           0        8.054841   -2.358486   -0.310757
     88          6           0        7.414922   -0.947130   -0.335155
     89          6           0        8.513204    0.079579    0.009478
     90          6           0        6.623843   -0.662654   -1.630668
     91          6           0        7.699927   -3.185927    0.940537
     92          6           0        6.742994   -4.409940    0.731227
     93          1           0        5.857989   -4.748227    1.866681
     94          7           0       10.502031    2.375508    0.173491
     95          6           0        9.166682    2.574668    0.089821
     96          6           0        8.812044    3.960167    0.012136
     97          6           0       10.016256    4.683125    0.016393
     98          6           0       11.090259    3.624943    0.220596
     99          6           0        7.389483    4.477181   -0.211567
    100          6           0       10.187392    6.241876   -0.089706
    101          8           0        9.152933    6.957020   -0.102578
    102          6           0       11.591001    6.965865   -0.266763
    103          7           0       13.291525    1.573861    0.826213
    104          6           0       13.441505    2.920701    0.810797
    105          6           0       14.856402    3.357597    1.091390
    106          6           0       15.620303    2.020481    1.202545
    107          6           0       14.527954    1.005447    0.856329
    108          6           0       15.442962    4.376456    0.058765
    109          6           0       16.365329    1.831746    2.608953
    110          6           0       17.886597    2.014336    2.556658
    111          7           0       12.578566   -1.185479    0.050244
    112          6           0       13.933350   -1.451572    0.347424
    113          6           0       14.229928   -2.856414    0.037584
    114          6           0       12.995422   -3.362251   -0.345124
    115          6           0       12.044111   -2.340306   -0.191760
    116          6           0       15.509035   -3.609033    0.127534
    117          6           0       12.311573   -4.588261   -0.780715
    118          8           0       12.746593   -5.676317   -1.192468
    119          6           0       10.774562   -4.240666   -0.912119
    120          6           0       10.282621   -4.430753   -2.340673
    121          8           0       10.832751   -4.062157   -3.383208
    122          8           0        9.140073   -5.158700   -2.188480
    123          6           0        8.520145   -5.655262   -3.405547
    124          1           0        7.207190    1.808246    0.053051
    125          1           0       12.857441    4.876564    0.639341
    126          1           0       15.791246   -0.721582    0.926905
    127          1           0        7.819358   -2.965636   -1.185470
    128          1           0        6.696045   -0.986260    0.483191
    129          1           0        6.271209   -1.495752   -2.238658
    130          1           0        7.317102   -0.132363   -2.283398
    131          1           0        5.739454   -0.052750   -1.447842
    132          1           0        7.321918   -2.574377    1.759365
    133          1           0        8.661475   -3.483183    1.359758
    134          1           0        7.341384   -5.288948    0.491854
    135          1           0        6.062590   -4.178056   -0.089343
    136          1           0        7.439553    5.086944   -1.113382
    137          1           0        7.000787    4.896462    0.716533
    138          1           0        6.819212    3.587943   -0.480021
    139          1           0       11.996303    7.085055    0.737353
    140          1           0       11.374473    7.942838   -0.698268
    141          1           0       12.122626    6.413072   -1.041765
    142          1           0       14.864292    3.866623    2.055287
    143          1           0       16.327061    1.797965    0.403462
    144          1           0       16.451533    4.100784   -0.248049
    145          1           0       15.482958    5.393230    0.449070
    146          1           0       14.761896    4.455368   -0.787593
    147          1           0       16.243915    0.826819    3.013073
    148          1           0       15.913249    2.479229    3.360199
    149          1           0       18.224287    2.537969    3.451189
    150          1           0       18.156567    2.599303    1.677701
    151          1           0       18.442245    1.079352    2.487208
    152          1           0       16.290846   -2.892801    0.380367
    153          1           0       15.617555   -4.262904   -0.738013
    154          1           0       15.428420   -4.225575    1.023429
    155          1           0       10.157702   -4.815911   -0.221187
    156          1           0        8.465242   -4.917283   -4.206852
    157          1           0        7.522818   -6.085481   -3.314367
    158          1           0        9.094835   -6.497300   -3.792149
 ---------------------------------------------------------------------

 SCF Done:  E(RwB97XD) =  -4070.61141847     A.U. after   19 cycles

 Excitation energies and oscillator strengths:

 Excited State   1:      Singlet-A      1.6618 eV  746.10 nm  f=0.4272  <S**2>=0.000
     309 -> 315        0.12759
     310 -> 316        0.12338
     311 -> 313        0.49162
     312 -> 314       -0.47604
 This state for optimization and/or second-order correction.
 Total Energy, E(TD-HF/TD-DFT) =  -4070.55034947
 Copying the excited state density for this state as the 1-particle RhoCI density.

 Excited State   2:      Singlet-A      1.6697 eV  742.55 nm  f=0.3230  <S**2>=0.000
     309 -> 315        0.12494
     310 -> 316       -0.12888
     311 -> 313        0.47604
     312 -> 314        0.49093

 Excited State   3:      Singlet-A      2.1184 eV  585.27 nm  f=0.1560  <S**2>=0.000
     309 -> 313        0.64906
     311 -> 315       -0.25642

 Excited State   4:      Singlet-A      2.1964 eV  564.50 nm  f=0.0914  <S**2>=0.000
     310 -> 314        0.62332
     312 -> 316        0.31662

 Excited State   5:      Singlet-A      3.3685 eV  368.07 nm  f=0.0000  <S**2>=0.000
     312 -> 313        0.70686

 The electronic state is 1-A.
 Alpha  occ. eigenvalues --  -46.96879 -46.95375 -19.31429 -19.30431 -19.25065
 Alpha  occ. eigenvalues --  -19.24858 -19.24657 -19.24248 -19.23365 -19.23328
 Alpha  occ. eigenvalues --  -14.48216 -14.46869 -14.46614 -14.46613 -14.44762
 Alpha  occ. eigenvalues --  -14.44722 -14.44478 -14.43522 -10.43663 -10.43060
 Alpha  occ. eigenvalues --  -10.40629 -10.39356 -10.38609 -10.38221 -10.37339
 Alpha  occ. eigenvalues --  -10.36286 -10.36162 -10.35812 -10.35746 -10.35642
 Alpha  occ. eigenvalues --  -10.35602 -10.35337 -10.35101 -10.34949 -10.34840
 Alpha  occ. eigenvalues --  -10.34615 -10.34372 -10.34286 -10.34157 -10.34142
 Alpha  occ. eigenvalues --  -10.33590 -10.33489 -10.33088 -10.32837 -10.32803
 Alpha  occ. eigenvalues --  -10.32782 -10.32637 -10.32562 -10.32533 -10.32409
 Alpha  occ. eigenvalues --  -10.32401 -10.32374 -10.32363 -10.32285 -10.32248
 Alpha  occ. eigenvalues --  -10.32077 -10.31990 -10.31981 -10.31939 -10.31847
 Alpha  occ. eigenvalues --  -10.31786 -10.31639 -10.31596 -10.31567 -10.31550
 Alpha  occ. eigenvalues --  -10.31380 -10.31286 -10.31245 -10.31004 -10.30929
 Alpha  occ. eigenvalues --  -10.30895 -10.30854 -10.30718 -10.30519 -10.30300
 Alpha  occ. eigenvalues --  -10.30227 -10.30112 -10.30087 -10.29945 -10.29746
 Alpha  occ. eigenvalues --  -10.29722 -10.29665 -10.29456 -10.29382 -10.28957
 Alpha  occ. eigenvalues --  -10.28419  -3.22575  -3.21353  -1.96185  -1.95667
 Alpha  occ. eigenvalues --   -1.95536  -1.94907  -1.94461  -1.94351  -1.18871
 Alpha  occ. eigenvalues --   -1.17780  -1.12386  -1.12027  -1.10772  -1.10400
 Alpha  occ. eigenvalues --   -1.09806  -1.09768  -1.06858  -1.06527  -1.06117
 Alpha  occ. eigenvalues --   -1.05879  -1.05443  -1.04699  -1.04007  -1.03872
 Alpha  occ. eigenvalues --   -0.94608  -0.93206  -0.91531  -0.91318  -0.90672
 Alpha  occ. eigenvalues --   -0.90590  -0.90369  -0.90094  -0.89708  -0.89144
 Alpha  occ. eigenvalues --   -0.89038  -0.88808  -0.88237  -0.87895  -0.86504
 Alpha  occ. eigenvalues --   -0.86073  -0.85779  -0.85640  -0.84884  -0.84250
 Alpha  occ. eigenvalues --   -0.84234  -0.83423  -0.82946  -0.82899  -0.82794
 Alpha  occ. eigenvalues --   -0.81981  -0.79844  -0.79730  -0.79290  -0.79204
 Alpha  occ. eigenvalues --   -0.79005  -0.78517  -0.78216  -0.77653  -0.77516
 Alpha  occ. eigenvalues --   -0.77081  -0.75558  -0.74544  -0.74348  -0.73564
 Alpha  occ. eigenvalues --   -0.71392  -0.71030  -0.70982  -0.70762  -0.70052
 Alpha  occ. eigenvalues --   -0.69655  -0.69160  -0.69126  -0.67916  -0.67595
 Alpha  occ. eigenvalues --   -0.67516  -0.67348  -0.66921  -0.66844  -0.66803
 Alpha  occ. eigenvalues --   -0.66414  -0.65068  -0.64518  -0.62362  -0.61792
 Alpha  occ. eigenvalues --   -0.61765  -0.61516  -0.61451  -0.61130  -0.60785
 Alpha  occ. eigenvalues --   -0.60456  -0.59856  -0.59550  -0.59070  -0.58977
 Alpha  occ. eigenvalues --   -0.58611  -0.57994  -0.57846  -0.57584  -0.57480
 Alpha  occ. eigenvalues --   -0.57088  -0.56814  -0.56769  -0.55833  -0.55580
 Alpha  occ. eigenvalues --   -0.55558  -0.55245  -0.55142  -0.54970  -0.54866
 Alpha  occ. eigenvalues --   -0.54743  -0.54630  -0.54462  -0.54394  -0.54110
 Alpha  occ. eigenvalues --   -0.53896  -0.53786  -0.53359  -0.53329  -0.53126
 Alpha  occ. eigenvalues --   -0.53011  -0.52900  -0.52880  -0.52639  -0.52404
 Alpha  occ. eigenvalues --   -0.52213  -0.51765  -0.51734  -0.51515  -0.51231
 Alpha  occ. eigenvalues --   -0.51223  -0.51091  -0.50907  -0.50882  -0.50609
 Alpha  occ. eigenvalues --   -0.50285  -0.50283  -0.50098  -0.49935  -0.49909
 Alpha  occ. eigenvalues --   -0.49841  -0.49576  -0.49528  -0.49270  -0.49198
 Alpha  occ. eigenvalues --   -0.49019  -0.48975  -0.48671  -0.48669  -0.48582
 Alpha  occ. eigenvalues --   -0.48332  -0.48144  -0.48144  -0.47986  -0.47849
 Alpha  occ. eigenvalues --   -0.47828  -0.47706  -0.47303  -0.47274  -0.47169
 Alpha  occ. eigenvalues --   -0.47008  -0.46711  -0.46595  -0.46551  -0.46181
 Alpha  occ. eigenvalues --   -0.46124  -0.45909  -0.45719  -0.45629  -0.45561
 Alpha  occ. eigenvalues --   -0.45493  -0.45294  -0.45059  -0.45032  -0.44810
 Alpha  occ. eigenvalues --   -0.44785  -0.44403  -0.44370  -0.44237  -0.44232
 Alpha  occ. eigenvalues --   -0.43958  -0.43740  -0.43639  -0.43491  -0.43317
 Alpha  occ. eigenvalues --   -0.43290  -0.42922  -0.42584  -0.42396  -0.42362
 Alpha  occ. eigenvalues --   -0.41941  -0.41681  -0.41458  -0.41434  -0.41123
 Alpha  occ. eigenvalues --   -0.40470  -0.40309  -0.40116  -0.39996  -0.39898
 Alpha  occ. eigenvalues --   -0.39470  -0.39268  -0.39264  -0.38877  -0.38758
 Alpha  occ. eigenvalues --   -0.38232  -0.37898  -0.36696  -0.36631  -0.36589
 Alpha  occ. eigenvalues --   -0.36399  -0.35532  -0.35131  -0.34060  -0.33600
 Alpha  occ. eigenvalues --   -0.33260  -0.33164  -0.32546  -0.32546  -0.32362
 Alpha  occ. eigenvalues --   -0.32263  -0.31898  -0.31797  -0.26603  -0.25983
 Alpha  occ. eigenvalues --   -0.24034  -0.22755
 Alpha virt. eigenvalues --   -0.08149  -0.06766  -0.00475   0.00025   0.02003
 Alpha virt. eigenvalues --    0.02387   0.04204   0.04265   0.04954   0.05414
 Alpha virt. eigenvalues --    0.06994   0.07298   0.07350   0.07573   0.08406

 Mulliken charges:
               1
     1  Mg   0.930339
     2  C    0.060731
     3  C   -0.053570
     4  C   -0.067636
     5  C   -0.064522
     6  N   -0.367881
     7  C   -0.017565
     8  C   -0.066877
     9  C   -0.122694
    10  C    0.087923
    11  C    0.030129
    12  C    0.037026
    13  C   -0.149263
    14  H    0.025408
    15  N   -0.454766
    16  C    0.135378
    17  C   -0.149574
    18  C   -0.136649
    19  C    0.177506
    20  C    0.084123
    21  C    0.092304
    22  O   -0.239683
    23  C   -0.062715
    24  N   -0.335481
    25  C    0.120490
    26  C   -0.138922
    27  C   -0.048724
    28  C    0.022513
    29  C    0.006316
    30  C   -0.011675
    31  C   -0.052435
    32  N   -0.425298
    33  C    0.118240
    34  C   -0.169491
    35  C   -0.018334
    36  C    0.076755
    37  C    0.078449
    38  C    0.069179
    39  O   -0.202875
    40  C   -0.060255
    41  C    0.246437
    42  O   -0.245949
    43  O   -0.384051
    44  C    0.135085
    45  H   -0.012695
    46  H   -0.019640
    47  H   -0.002542
    48  H    0.034748
    49  H    0.040683
    50  H    0.043201
    51  H    0.048411
    52  H    0.043108
    53  H    0.039757
    54  H    0.043366
    55  H    0.068780
    56  H    0.058877
    57  H    0.056977
    58  H    0.057903
    59  H    0.063861
    60  H    0.068538
    61  H    0.055872
    62  H    0.048743
    63  H    0.055302
    64  H    0.030184
    65  H    0.036304
    66  H    0.039803
    67  H    0.031145
    68  H    0.041397
    69  H    0.028883
    70  H    0.037062
    71  H    0.037622
    72  H    0.038407
    73  H    0.062765
    74  H    0.045692
    75  H    0.046930
    76  H    0.066591
    77  H    0.069191
    78  H    0.052626
    79  H    0.054699
    80  Mg   0.973102
    81  C   -0.080640
    82  C   -0.109871
    83  C   -0.086432
    84  C   -0.083164
    85  N   -0.404017
    86  C   -0.008397
    87  C   -0.052672
    88  C   -0.092292
    89  C    0.125823
    90  C    0.013860
    91  C    0.023080
    92  C   -0.128092
    93  H    0.044808
    94  N   -0.430154
    95  C    0.152927
    96  C   -0.190456
    97  C   -0.078721
    98  C    0.194623
    99  C    0.116563
   100  C    0.044466
   101  O   -0.256241
   102  C   -0.009400
   103  N   -0.325039
   104  C    0.023128
   105  C   -0.076378
   106  C   -0.052171
   107  C    0.038419
   108  C    0.010570
   109  C   -0.007527
   110  C   -0.058026
   111  N   -0.440882
   112  C    0.101348
   113  C   -0.206624
   114  C   -0.044176
   115  C    0.153332
   116  C    0.107343
   117  C    0.155454
   118  O   -0.230079
   119  C   -0.059891
   120  C    0.289170
   121  O   -0.247728
   122  O   -0.356260
   123  C    0.133628
   124  H    0.008829
   125  H   -0.019994
   126  H   -0.011433
   127  H    0.024889
   128  H    0.033826
   129  H    0.036937
   130  H    0.034231
   131  H    0.039537
   132  H    0.031162
   133  H    0.029740
   134  H    0.065854
   135  H    0.050016
   136  H    0.065343
   137  H    0.072462
   138  H    0.012708
   139  H    0.080638
   140  H    0.058031
   141  H    0.060621
   142  H    0.046619
   143  H    0.033853
   144  H    0.046632
   145  H    0.033382
   146  H    0.037691
   147  H    0.032985
   148  H    0.028732
   149  H    0.038927
   150  H    0.028466
   151  H    0.041018
   152  H    0.021012
   153  H    0.075159
   154  H    0.050362
   155  H    0.064621
   156  H    0.055154
   157  H    0.052351
   158  H    0.053328
 Sum of Mulliken charges =  -0.00000

 Dipole moment (field-independent basis, Debye):
    X=             -3.4078    Y=              3.8850    Z=             -1.4388  Tot=              5.3644
 Quadrupole moment (field-independent basis, Debye-Ang):
   XX=           -466.5597   YY=           -499.2350   ZZ=           -511.5761
   XY=             42.3892   XZ=             41.6138   YZ=             -3.4826

 Normal termination of Gaussian 16 at Mon Sep 20 07:45:41 2021.
