 Gaussian 16, Revision A.03,
 Gaussian 16:  ES64L-G16RevA.03 25-Dec-2016

 --------------------------------
 #p wB97XD/Def2SVP td=(nstates=5)
 --------------------------------

 --------------------------------
 TDDFT excited states in gaussian
 --------------------------------
 Symbolic Z-matrix:
 Charge =  0 Multiplicity = 1

                         Standard orientation:
 ---------------------------------------------------------------------
 Center     Atomic      Atomic             Coordinates (Angstroms)
 Number     Number       Type             X           Y           Z
 ---------------------------------------------------------------------
      1         12           0       20.313357   -0.747627    0.253170
      2          6           0       19.508207    2.187599   -1.630548
      3          6           0       22.256324    1.237788    2.234602
      4          6           0       21.393796   -3.382852    1.647753
      5          6           0       19.255204   -2.618942   -2.489849
      6          7           0       20.745351    1.423084    0.208010
      7          6           0       20.326284    2.447181   -0.528726
      8          6           0       20.777011    3.831952    0.025012
      9          6           0       22.056531    3.366888    0.854798
     10          6           0       21.648172    1.934013    1.148114
     11          6           0       23.342523    3.353055    0.034716
     12          6           0       19.696581    4.481033    0.954042
     13          6           0       19.913142    5.963515    1.271380
     14          1           0       18.750587    6.828865    1.401697
     15          7           0       21.225597   -0.997505    1.987595
     16          6           0       21.958632   -0.075833    2.657271
     17          6           0       22.424772   -0.744112    3.891287
     18          6           0       22.061944   -2.185230    3.793164
     19          6           0       21.562825   -2.252176    2.443432
     20          6           0       23.088185   -0.017025    5.020436
     21          6           0       22.160658   -3.323861    4.758518
     22          8           0       22.005898   -4.539619    4.394435
     23          6           0       22.535596   -2.981226    6.142376
     24          7           0       20.534236   -2.715498   -0.407384
     25          6           0       20.971389   -3.674760    0.415840
     26          6           0       20.780419   -5.036806   -0.182741
     27          6           0       19.893871   -4.823275   -1.493539
     28          6           0       19.793450   -3.278234   -1.461407
     29          6           0       22.064873   -5.791336   -0.552704
     30          6           0       18.584915   -5.645453   -1.598789
     31          6           0       17.601939   -5.182214   -0.546997
     32          7           0       19.355629   -0.333612   -1.650089
     33          6           0       19.027702   -1.262137   -2.648578
     34          6           0       18.497971   -0.497368   -3.792511
     35          6           0       18.570462    0.832835   -3.383673
     36          6           0       19.135594    0.896907   -2.077989
     37          6           0       18.084023   -1.042904   -5.039697
     38          6           0       18.324808    2.216674   -3.755833
     39          8           0       17.771963    2.774349   -4.704966
     40          6           0       19.034675    3.157187   -2.684688
     41          6           0       18.041533    4.210657   -2.275813
     42          8           0       17.013860    3.907161   -1.636170
     43          8           0       18.568696    5.425795   -2.490479
     44          6           0       17.645534    6.516660   -2.078241
     45          1           0       23.075470    1.715774    2.775407
     46          1           0       21.651791   -4.325492    2.134895
     47          1           0       18.826946   -3.140981   -3.347476
     48          1           0       21.070170    4.553070   -0.738186
     49          1           0       22.165393    3.927465    1.783035
     50          1           0       23.144291    3.541593   -1.020310
     51          1           0       23.763813    2.356819    0.170811
     52          1           0       24.074024    4.046968    0.449649
     53          1           0       19.785627    4.061840    1.956244
     54          1           0       18.697647    4.343434    0.538682
     55          1           0       20.649248    6.410833    0.602826
     56          1           0       20.364722    6.038611    2.260641
     57          1           0       23.367603    0.996383    4.734998
     58          1           0       24.037723   -0.518086    5.207582
     59          1           0       22.482583   -0.026569    5.926796
     60          1           0       23.505820   -2.484026    6.139755
     61          1           0       22.469700   -3.908652    6.710170
     62          1           0       21.820688   -2.256314    6.532706
     63          1           0       20.249766   -5.694903    0.504094
     64          1           0       20.440329   -5.075855   -2.402528
     65          1           0       22.153585   -6.766330   -0.072889
     66          1           0       22.913326   -5.154472   -0.304065
     67          1           0       22.213921   -5.943456   -1.621377
     68          1           0       18.783307   -6.699963   -1.410124
     69          1           0       18.105089   -5.567641   -2.574475
     70          1           0       17.912885   -5.736581    0.337775
     71          1           0       16.583876   -5.446126   -0.835282
     72          1           0       17.724852   -4.121592   -0.326861
     73          1           0       17.154509   -0.536969   -5.300472
     74          1           0       17.942710   -2.121401   -4.972781
     75          1           0       18.930588   -0.771001   -5.669976
     76          1           0       19.908318    3.586232   -3.174372
     77          1           0       17.502032    7.160736   -2.945886
     78          1           0       18.075103    6.963857   -1.181641
     79          1           0       16.616559    6.223359   -1.867237
     80         12           0      -20.616797   -0.510214   -0.242045
     81          6           0      -18.104336    1.821632   -0.009998
     82          6           0      -22.909864    2.016698    0.766015
     83          6           0      -23.095412   -2.783752    0.100244
     84          6           0      -18.409165   -2.957434   -0.865033
     85          7           0      -20.504794    1.678116    0.319039
     86          6           0      -19.333843    2.387136    0.341973
     87          6           0      -19.591214    3.864334    0.647889
     88          6           0      -21.128451    3.814116    1.082334
     89          6           0      -21.552073    2.424101    0.707414
     90          6           0      -21.388059    4.215361    2.580769
     91          6           0      -19.342465    4.830224   -0.599092
     92          6           0      -18.620294    6.150267   -0.475222
     93          1           0      -19.002065    7.064479    0.634296
     94          7           0      -22.754608   -0.421886    0.303796
     95          6           0      -23.506127    0.684879    0.493493
     96          6           0      -24.892563    0.366552    0.570394
     97          6           0      -24.988118   -1.042963    0.345053
     98          6           0      -23.557793   -1.471141    0.310828
     99          6           0      -25.862107    1.460382    0.882708
    100          6           0      -26.219612   -1.931610    0.385794
    101          8           0      -26.145203   -3.162398    0.454389
    102          6           0      -27.607930   -1.316555    0.363190
    103          7           0      -20.721989   -2.637221   -0.214473
    104          6           0      -21.891436   -3.328899   -0.182910
    105          6           0      -21.653594   -4.806083   -0.491760
    106          6           0      -20.154104   -4.806064   -0.976844
    107          6           0      -19.725668   -3.382625   -0.679484
    108          6           0      -22.000287   -5.914419    0.545829
    109          6           0      -19.884641   -5.289280   -2.462879
    110          6           0      -19.827980   -4.287528   -3.596735
    111          7           0      -18.670993   -0.617330   -0.312183
    112          6           0      -17.843068   -1.633495   -0.716938
    113          6           0      -16.470544   -1.279476   -0.708203
    114          6           0      -16.517184    0.092749   -0.483052
    115          6           0      -17.874534    0.447408   -0.272322
    116          6           0      -15.191091   -2.056312   -0.990101
    117          6           0      -15.766247    1.261374   -0.332913
    118          8           0      -14.555761    1.386850   -0.359903
    119          6           0      -16.752437    2.511671    0.017688
    120          6           0      -16.359639    3.038950    1.318663
    121          8           0      -16.438449    2.435249    2.406927
    122          8           0      -15.824669    4.287110    1.257391
    123          6           0      -15.103854    4.807210    2.424729
    124          1           0      -23.526070    2.888159    0.995275
    125          1           0      -23.908763   -3.490129   -0.077335
    126          1           0      -17.732572   -3.616452   -1.411756
    127          1           0      -18.880372    4.185707    1.410224
    128          1           0      -21.721631    4.542897    0.529703
    129          1           0      -22.056221    5.075876    2.580789
    130          1           0      -20.392924    4.368587    2.998655
    131          1           0      -21.958334    3.492495    3.164953
    132          1           0      -20.365608    5.017121   -0.925676
    133          1           0      -18.973611    4.271011   -1.458285
    134          1           0      -18.623285    6.667726   -1.434533
    135          1           0      -17.593561    5.893289   -0.217192
    136          1           0      -26.680043    1.315095    0.177979
    137          1           0      -25.431416    2.435990    0.655969
    138          1           0      -26.245932    1.489070    1.903061
    139          1           0      -27.717131   -0.492631   -0.342641
    140          1           0      -27.948344   -1.143353    1.385003
    141          1           0      -28.241914   -2.110549   -0.032606
    142          1           0      -22.382609   -5.010955   -1.276059
    143          1           0      -19.544052   -5.546566   -0.460913
    144          1           0      -21.087535   -6.354557    0.947146
    145          1           0      -22.549976   -6.680402   -0.000920
    146          1           0      -22.603348   -5.424037    1.309201
    147          1           0      -20.669370   -6.006664   -2.699123
    148          1           0      -18.930882   -5.815228   -2.511207
    149          1           0      -20.491421   -4.564497   -4.416363
    150          1           0      -18.826407   -4.146297   -4.005116
    151          1           0      -20.153796   -3.347341   -3.151735
    152          1           0      -15.449977   -3.076510   -1.276011
    153          1           0      -14.561112   -2.042318   -0.100344
    154          1           0      -14.661150   -1.563847   -1.804933
    155          1           0      -16.451175    3.214457   -0.759663
    156          1           0      -14.380822    5.588135    2.188786
    157          1           0      -14.675698    4.055008    3.086602
    158          1           0      -15.846730    5.385224    2.974617
 ---------------------------------------------------------------------

 SCF Done:  E(RwB97XD) =  -4070.63621220     A.U. after   19 cycles

 Excitation energies and oscillator strengths:

 Excited State   1:      Singlet-A      1.6216 eV  764.59 nm  f=0.3908  <S**2>=0.000
     309 -> 315        0.18178
     312 -> 314        0.68321
     309 <- 315        0.11453
 This state for optimization and/or second-order correction.
 Total Energy, E(TD-HF/TD-DFT) =  -4070.57662062
 Copying the excited state density for this state as the 1-particle RhoCI density.

 Excited State   2:      Singlet-A      1.6604 eV  746.69 nm  f=0.4120  <S**2>=0.000
     310 -> 316       -0.18410
     311 -> 313        0.68422
     310 <- 316       -0.11634

 Excited State   3:      Singlet-A      2.1344 eV  580.90 nm  f=0.1619  <S**2>=0.000
     310 -> 313        0.65989
     311 -> 316        0.24150

 Excited State   4:      Singlet-A      2.1386 eV  579.75 nm  f=0.1035  <S**2>=0.000
     309 -> 314        0.63798
     312 -> 315       -0.28180

 Excited State   5:      Singlet-A      3.3016 eV  375.53 nm  f=0.0077  <S**2>=0.000
     307 -> 314       -0.44235
     308 -> 314        0.48827
     312 -> 315       -0.16982

 The electronic state is 1-A.
 Alpha  occ. eigenvalues --  -46.95419 -46.94086 -19.31456 -19.30252 -19.23949
 Alpha  occ. eigenvalues --  -19.23908 -19.23845 -19.23624 -19.23451 -19.23182
 Alpha  occ. eigenvalues --  -14.47001 -14.46689 -14.46093 -14.46011 -14.44138
 Alpha  occ. eigenvalues --  -14.44068 -14.43981 -14.43117 -10.42894 -10.42751
 Alpha  occ. eigenvalues --  -10.39391 -10.39337 -10.38509 -10.38370 -10.35412
 Alpha  occ. eigenvalues --  -10.35389 -10.35332 -10.35060 -10.34874 -10.34867
 Alpha  occ. eigenvalues --  -10.34570 -10.34503 -10.34380 -10.34156 -10.34124
 Alpha  occ. eigenvalues --  -10.34103 -10.34095 -10.33866 -10.33855 -10.33788
 Alpha  occ. eigenvalues --  -10.33204 -10.32970 -10.32775 -10.32506 -10.32503
 Alpha  occ. eigenvalues --  -10.32502 -10.32426 -10.32292 -10.32291 -10.32107
 Alpha  occ. eigenvalues --  -10.32091 -10.32067 -10.32023 -10.31827 -10.31757
 Alpha  occ. eigenvalues --  -10.31750 -10.31670 -10.31576 -10.31523 -10.31509
 Alpha  occ. eigenvalues --  -10.31471 -10.31434 -10.31388 -10.31333 -10.31148
 Alpha  occ. eigenvalues --  -10.30840 -10.30787 -10.30625 -10.30594 -10.30262
 Alpha  occ. eigenvalues --  -10.30236 -10.30129 -10.30042 -10.30040 -10.30033
 Alpha  occ. eigenvalues --  -10.29952 -10.29905 -10.29637 -10.29544 -10.29236
 Alpha  occ. eigenvalues --  -10.29218 -10.28826 -10.28815 -10.28765 -10.28615
 Alpha  occ. eigenvalues --  -10.28432  -3.21472  -3.20245  -1.95044  -1.94557
 Alpha  occ. eigenvalues --   -1.94486  -1.93822  -1.93388  -1.93226  -1.18780
 Alpha  occ. eigenvalues --   -1.18000  -1.12098  -1.11672  -1.10811  -1.09392
 Alpha  occ. eigenvalues --   -1.08792  -1.07996  -1.07376  -1.06672  -1.06527
 Alpha  occ. eigenvalues --   -1.06138  -1.05729  -1.05484  -1.05216  -1.04395
 Alpha  occ. eigenvalues --   -0.94563  -0.93886  -0.91369  -0.91008  -0.90927
 Alpha  occ. eigenvalues --   -0.90128  -0.90084  -0.90036  -0.89748  -0.89700
 Alpha  occ. eigenvalues --   -0.89549  -0.89346  -0.89188  -0.88346  -0.86835
 Alpha  occ. eigenvalues --   -0.86193  -0.85772  -0.85633  -0.84855  -0.84542
 Alpha  occ. eigenvalues --   -0.84519  -0.83752  -0.83478  -0.83086  -0.82511
 Alpha  occ. eigenvalues --   -0.82256  -0.80729  -0.80332  -0.79380  -0.79099
 Alpha  occ. eigenvalues --   -0.79008  -0.78806  -0.78137  -0.77813  -0.77407
 Alpha  occ. eigenvalues --   -0.76770  -0.75510  -0.74709  -0.73587  -0.73500
 Alpha  occ. eigenvalues --   -0.71754  -0.71523  -0.71189  -0.70789  -0.70070
 Alpha  occ. eigenvalues --   -0.69604  -0.69131  -0.69101  -0.67532  -0.67177
 Alpha  occ. eigenvalues --   -0.67083  -0.66795  -0.66702  -0.66550  -0.66182
 Alpha  occ. eigenvalues --   -0.66181  -0.64236  -0.64209  -0.62394  -0.62180
 Alpha  occ. eigenvalues --   -0.61780  -0.61716  -0.61038  -0.60928  -0.60450
 Alpha  occ. eigenvalues --   -0.60247  -0.59854  -0.59503  -0.59253  -0.59226
 Alpha  occ. eigenvalues --   -0.58251  -0.58214  -0.57814  -0.57451  -0.57305
 Alpha  occ. eigenvalues --   -0.57218  -0.56975  -0.56752  -0.56423  -0.55963
 Alpha  occ. eigenvalues --   -0.55771  -0.55202  -0.55200  -0.55120  -0.55067
 Alpha  occ. eigenvalues --   -0.54832  -0.54721  -0.54637  -0.54459  -0.54278
 Alpha  occ. eigenvalues --   -0.54146  -0.53992  -0.53791  -0.53487  -0.53373
 Alpha  occ. eigenvalues --   -0.53086  -0.52659  -0.52503  -0.52492  -0.52168
 Alpha  occ. eigenvalues --   -0.51899  -0.51836  -0.51775  -0.51437  -0.51406
 Alpha  occ. eigenvalues --   -0.51137  -0.51128  -0.50984  -0.50974  -0.50705
 Alpha  occ. eigenvalues --   -0.50647  -0.50476  -0.50471  -0.50379  -0.50340
 Alpha  occ. eigenvalues --   -0.50143  -0.49750  -0.49577  -0.49478  -0.49199
 Alpha  occ. eigenvalues --   -0.49068  -0.48773  -0.48653  -0.48433  -0.48400
 Alpha  occ. eigenvalues --   -0.48270  -0.48068  -0.48059  -0.47861  -0.47777
 Alpha  occ. eigenvalues --   -0.47692  -0.47208  -0.47062  -0.46929  -0.46459
 Alpha  occ. eigenvalues --   -0.46428  -0.46371  -0.46008  -0.45953  -0.45897
 Alpha  occ. eigenvalues --   -0.45834  -0.45805  -0.45529  -0.45335  -0.45282
 Alpha  occ. eigenvalues --   -0.45265  -0.45142  -0.44920  -0.44900  -0.44614
 Alpha  occ. eigenvalues --   -0.44518  -0.44160  -0.43884  -0.43872  -0.43766
 Alpha  occ. eigenvalues --   -0.43668  -0.43428  -0.43386  -0.43204  -0.43007
 Alpha  occ. eigenvalues --   -0.42987  -0.42819  -0.42697  -0.42468  -0.42410
 Alpha  occ. eigenvalues --   -0.42080  -0.41898  -0.41730  -0.41429  -0.41339
 Alpha  occ. eigenvalues --   -0.40385  -0.40319  -0.40124  -0.39646  -0.39315
 Alpha  occ. eigenvalues --   -0.39249  -0.39147  -0.38668  -0.38634  -0.38145
 Alpha  occ. eigenvalues --   -0.38017  -0.37648  -0.36521  -0.36242  -0.35738
 Alpha  occ. eigenvalues --   -0.35392  -0.35303  -0.35054  -0.33511  -0.33314
 Alpha  occ. eigenvalues --   -0.33223  -0.33145  -0.33005  -0.32422  -0.32230
 Alpha  occ. eigenvalues --   -0.31962  -0.31577  -0.31439  -0.25964  -0.25720
 Alpha  occ. eigenvalues --   -0.23248  -0.22882
 Alpha virt. eigenvalues --   -0.07434  -0.07065   0.00220   0.00753   0.02025
 Alpha virt. eigenvalues --    0.02338   0.04352   0.04584   0.04967   0.06308
 Alpha virt. eigenvalues --    0.06901   0.07142   0.07299   0.08581   0.09192

 Mulliken charges:
               1
     1  Mg   0.978289
     2  C   -0.020016
     3  C   -0.101255
     4  C   -0.061304
     5  C   -0.070940
     6  N   -0.323122
     7  C   -0.008572
     8  C   -0.058231
     9  C   -0.138141
    10  C    0.061919
    11  C    0.058306
    12  C    0.014054
    13  C   -0.126916
    14  H    0.052406
    15  N   -0.518308
    16  C    0.183443
    17  C   -0.196079
    18  C   -0.037036
    19  C    0.166775
    20  C    0.060923
    21  C    0.056736
    22  O   -0.280029
    23  C    0.001608
    24  N   -0.410191
    25  C    0.065965
    26  C   -0.084865
    27  C   -0.063848
    28  C    0.089709
    29  C    0.031896
    30  C   -0.016730
    31  C   -0.058098
    32  N   -0.398732
    33  C    0.097196
    34  C   -0.187944
    35  C   -0.040145
    36  C    0.126574
    37  C    0.081452
    38  C    0.128881
    39  O   -0.224740
    40  C   -0.077005
    41  C    0.275994
    42  O   -0.284557
    43  O   -0.335678
    44  C    0.120606
    45  H    0.007846
    46  H    0.010694
    47  H   -0.017339
    48  H    0.026000
    49  H    0.022607
    50  H    0.047099
    51  H    0.037784
    52  H    0.040056
    53  H    0.035403
    54  H    0.067710
    55  H    0.038921
    56  H    0.040603
    57  H    0.029621
    58  H    0.048939
    59  H    0.062104
    60  H    0.057807
    61  H    0.061838
    62  H    0.053089
    63  H    0.042944
    64  H    0.035641
    65  H    0.045312
    66  H    0.034303
    67  H    0.025690
    68  H    0.032608
    69  H    0.029415
    70  H    0.029206
    71  H    0.042240
    72  H    0.049658
    73  H    0.070930
    74  H    0.031422
    75  H    0.069377
    76  H    0.065848
    77  H    0.061267
    78  H    0.062803
    79  H    0.070307
    80  Mg   0.974543
    81  C   -0.004363
    82  C   -0.065004
    83  C   -0.065433
    84  C   -0.074895
    85  N   -0.330577
    86  C    0.000349
    87  C   -0.084389
    88  C   -0.117775
    89  C    0.051674
    90  C    0.025262
    91  C    0.010923
    92  C   -0.102364
    93  H    0.032722
    94  N   -0.356470
    95  C    0.129055
    96  C   -0.163817
    97  C   -0.075526
    98  C    0.100095
    99  C    0.082199
   100  C    0.043280
   101  O   -0.246952
   102  C   -0.017060
   103  N   -0.351366
   104  C    0.050127
   105  C   -0.080594
   106  C   -0.041454
   107  C    0.061374
   108  C    0.035323
   109  C   -0.057989
   110  C   -0.043053
   111  N   -0.478773
   112  C    0.099514
   113  C   -0.189107
   114  C    0.040976
   115  C    0.138185
   116  C    0.096972
   117  C    0.037800
   118  O   -0.207829
   119  C   -0.056017
   120  C    0.260163
   121  O   -0.281293
   122  O   -0.359710
   123  C    0.146610
   124  H   -0.010919
   125  H    0.017282
   126  H   -0.000385
   127  H    0.049061
   128  H    0.042609
   129  H    0.031628
   130  H    0.050428
   131  H    0.040557
   132  H    0.012362
   133  H    0.032294
   134  H    0.056016
   135  H    0.054355
   136  H    0.030593
   137  H    0.036843
   138  H    0.063533
   139  H    0.053808
   140  H    0.071479
   141  H    0.050391
   142  H    0.036323
   143  H    0.036892
   144  H    0.036516
   145  H    0.040324
   146  H    0.051407
   147  H    0.029674
   148  H    0.029362
   149  H    0.038436
   150  H    0.037314
   151  H    0.035903
   152  H    0.026393
   153  H    0.066859
   154  H    0.061018
   155  H    0.060712
   156  H    0.053459
   157  H    0.075522
   158  H    0.036613
 Sum of Mulliken charges =  -0.00000

 Dipole moment (field-independent basis, Debye):
    X=              0.5106    Y=              3.0660    Z=              0.3017  Tot=              3.1228
 Quadrupole moment (field-independent basis, Debye-Ang):
   XX=           -249.0174   YY=           -466.1070   ZZ=           -508.9435
   XY=            -23.4846   XZ=            104.3140   YZ=             43.0571

 Normal termination of Gaussian 16 at Sun Sep 19 11:39:06 2021.
