 Gaussian 16, Revision A.03,
 Gaussian 16:  ES64L-G16RevA.03 25-Dec-2016

 --------------------------------
 #p wB97XD/Def2SVP td=(nstates=5)
 --------------------------------

 --------------------------------
 TDDFT excited states in gaussian
 --------------------------------
 Symbolic Z-matrix:
 Charge =  0 Multiplicity = 1

                         Standard orientation:
 ---------------------------------------------------------------------
 Center     Atomic      Atomic             Coordinates (Angstroms)
 Number     Number       Type             X           Y           Z
 ---------------------------------------------------------------------
      1         12           0       21.547822   -0.364648    0.032452
      2          6           0       18.178349   -1.305722   -0.301053
      3          6           0       21.781795   -0.258958   -3.396285
      4          6           0       24.419779    1.226102    0.441023
      5          6           0       21.096135   -0.259343    3.554203
      6          7           0       20.083493   -0.490586   -1.616663
      7          6           0       18.726919   -0.898203   -1.535055
      8          6           0       18.170950   -1.300062   -2.838678
      9          6           0       19.395909   -1.045322   -3.819181
     10          6           0       20.517537   -0.600804   -2.893744
     11          6           0       19.681967   -2.256313   -4.739881
     12          6           0       17.030510   -0.456046   -3.320302
     13          6           0       17.106827    1.047641   -3.016552
     14          1           0       16.557376    2.121331   -4.034630
     15          7           0       22.972719    0.371454   -1.288624
     16          6           0       22.919264    0.195021   -2.622669
     17          6           0       24.160641    0.655385   -3.192764
     18          6           0       24.984660    1.026722   -2.101825
     19          6           0       24.160488    0.861782   -0.893693
     20          6           0       24.478424    0.745517   -4.661150
     21          6           0       26.431950    1.507833   -2.201275
     22          8           0       26.984303    1.615475   -3.278673
     23          6           0       27.306010    2.004720   -1.088057
     24          7           0       22.492650    0.605158    1.709301
     25          6           0       23.738653    1.167436    1.627579
     26          6           0       24.350331    1.412790    3.046080
     27          6           0       23.114750    1.204121    3.973135
     28          6           0       22.183738    0.458726    3.042111
     29          6           0       25.503814    0.461844    3.447194
     30          6           0       22.306597    2.526430    4.376616
     31          6           0       21.941202    2.678579    5.808741
     32          7           0       20.083203   -0.781218    1.363616
     33          6           0       20.124115   -0.868320    2.700013
     34          6           0       18.966323   -1.700859    3.201284
     35          6           0       18.218765   -1.920930    2.000797
     36          6           0       18.862620   -1.219233    0.942616
     37          6           0       18.616205   -2.163441    4.608303
     38          6           0       16.966367   -2.435053    1.526576
     39          8           0       16.050321   -2.975129    2.126345
     40          6           0       16.913429   -2.074149   -0.012785
     41          6           0       15.791365   -1.072684   -0.192114
     42          8           0       15.750605    0.048222    0.195051
     43          8           0       14.834364   -1.649501   -0.999675
     44          6           0       13.830320   -0.701444   -1.493038
     45          1           0       21.905326   -0.418521   -4.469298
     46          1           0       25.435561    1.587983    0.608684
     47          1           0       21.086207   -0.328066    4.643977
     48          1           0       17.841842   -2.335510   -2.751358
     49          1           0       19.330629   -0.155634   -4.445433
     50          1           0       19.759280   -1.754602   -5.704622
     51          1           0       18.828203   -2.928601   -4.654167
     52          1           0       20.638689   -2.735187   -4.530451
     53          1           0       16.047559   -0.870404   -3.094647
     54          1           0       16.900230   -0.440097   -4.402595
     55          1           0       18.161746    1.236590   -2.814819
     56          1           0       16.594985    1.109266   -2.056016
     57          1           0       24.935070    1.705376   -4.904759
     58          1           0       23.582989    0.537318   -5.246644
     59          1           0       25.207290   -0.049341   -4.821238
     60          1           0       26.986903    2.936216   -0.621634
     61          1           0       28.201740    2.289715   -1.640119
     62          1           0       27.654138    1.209780   -0.427663
     63          1           0       24.737460    2.431426    3.067262
     64          1           0       23.333076    0.606194    4.858340
     65          1           0       25.156188   -0.181920    4.254969
     66          1           0       26.447285    0.995328    3.561608
     67          1           0       25.707560   -0.204847    2.610036
     68          1           0       21.412677    2.640991    3.763955
     69          1           0       22.981112    3.335727    4.096507
     70          1           0       22.306845    3.607590    6.245681
     71          1           0       22.266801    1.845606    6.432259
     72          1           0       20.861629    2.731615    5.946868
     73          1           0       17.626464   -1.761843    4.825697
     74          1           0       19.452080   -1.905657    5.259826
     75          1           0       18.476541   -3.241670    4.531812
     76          1           0       16.773611   -2.954478   -0.639741
     77          1           0       14.219035    0.310396   -1.607016
     78          1           0       13.059139   -0.728181   -0.723126
     79          1           0       13.379826   -1.176607   -2.364038
     80         12           0      -20.524665    0.910801   -0.321701
     81          6           0      -21.831096   -2.424983   -0.297080
     82          6           0      -17.451375   -0.527864    0.641992
     83          6           0      -19.360343    3.882087    0.399397
     84          6           0      -23.662178    2.086641   -0.901249
     85          7           0      -19.758791   -1.238657    0.061298
     86          6           0      -20.487126   -2.367594   -0.112849
     87          6           0      -19.560732   -3.566246    0.009071
     88          6           0      -18.124797   -3.037463    0.284103
     89          6           0      -18.428276   -1.526930    0.303339
     90          6           0      -17.458003   -3.632031    1.649356
     91          6           0      -19.556673   -4.475290   -1.293791
     92          6           0      -19.708817   -5.981318   -1.077746
     93          1           0      -19.113659   -6.684537    0.207600
     94          7           0      -18.659716    1.584956    0.476551
     95          6           0      -17.592546    0.866079    0.753554
     96          6           0      -16.582484    1.766056    1.234453
     97          6           0      -17.006443    3.107509    1.057306
     98          6           0      -18.378069    2.901809    0.671995
     99          6           0      -15.159496    1.313399    1.557514
    100          6           0      -16.311711    4.458858    1.117206
    101          8           0      -16.904498    5.514812    0.992369
    102          6           0      -14.816951    4.427031    1.280369
    103          7           0      -21.491778    2.672045    0.077793
    104          6           0      -20.734200    3.841851    0.159816
    105          6           0      -21.565803    5.125921   -0.106836
    106          6           0      -22.876862    4.461652   -0.673605
    107          6           0      -22.677363    2.956472   -0.496513
    108          6           0      -21.730732    5.948081    1.179559
    109          6           0      -23.107671    4.731038   -2.235474
    110          6           0      -24.162413    5.705199   -2.641102
    111          7           0      -22.323502    0.061637   -0.662924
    112          6           0      -23.536810    0.686385   -0.855066
    113          6           0      -24.653739   -0.252613   -0.918367
    114          6           0      -24.023073   -1.530016   -0.704637
    115          6           0      -22.658425   -1.270474   -0.435838
    116          6           0      -26.030619    0.113486   -1.340397
    117          6           0      -24.223352   -2.970997   -0.702970
    118          8           0      -25.285124   -3.581727   -0.923138
    119          6           0      -22.767706   -3.645746   -0.397665
    120          6           0      -22.946409   -4.364599    0.853919
    121          8           0      -23.333721   -3.846602    1.878426
    122          8           0      -22.618762   -5.656128    0.729142
    123          6           0      -22.767089   -6.630525    1.855332
    124          1           0      -16.459104   -0.922717    0.869523
    125          1           0      -18.975511    4.886030    0.205066
    126          1           0      -24.633531    2.506369   -1.169982
    127          1           0      -19.890261   -4.136066    0.877888
    128          1           0      -17.415543   -3.369395   -0.474296
    129          1           0      -17.927292   -4.574443    1.931885
    130          1           0      -17.608414   -2.850225    2.394292
    131          1           0      -16.387188   -3.772907    1.503261
    132          1           0      -18.709210   -4.323412   -1.960849
    133          1           0      -20.413895   -4.213743   -1.914047
    134          1           0      -19.326060   -6.549377   -1.925892
    135          1           0      -20.789145   -6.119373   -1.121852
    136          1           0      -14.447760    1.464210    0.745686
    137          1           0      -15.140883    0.298126    1.954862
    138          1           0      -14.839129    1.916487    2.406772
    139          1           0      -14.301996    3.661874    0.698677
    140          1           0      -14.471561    4.289709    2.304087
    141          1           0      -14.392353    5.310160    0.802908
    142          1           0      -21.023901    5.713438   -0.847459
    143          1           0      -23.721446    4.857874   -0.109727
    144          1           0      -21.106042    5.618640    2.009703
    145          1           0      -22.750236    5.898522    1.560378
    146          1           0      -21.509946    6.994498    0.966392
    147          1           0      -23.364301    3.847055   -2.819240
    148          1           0      -22.195231    5.034760   -2.747285
    149          1           0      -23.712736    6.556254   -3.150970
    150          1           0      -24.601227    5.999709   -1.687607
    151          1           0      -24.875815    5.235617   -3.318272
    152          1           0      -26.501297   -0.692739   -1.902011
    153          1           0      -25.946668    1.071295   -1.853540
    154          1           0      -26.603595    0.271660   -0.425711
    155          1           0      -22.478063   -4.350872   -1.175607
    156          1           0      -23.769432   -6.546631    2.275707
    157          1           0      -22.052987   -6.453634    2.659989
    158          1           0      -22.507368   -7.654022    1.586378
 ---------------------------------------------------------------------

 SCF Done:  E(RwB97XD) =  -4070.59603350     A.U. after   20 cycles

 Excitation energies and oscillator strengths:

 Excited State   1:      Singlet-A      1.6067 eV  771.68 nm  f=0.3943  <S**2>=0.000
     309 -> 315        0.17841
     311 -> 313        0.68483
     309 <- 315        0.11716
 This state for optimization and/or second-order correction.
 Total Energy, E(TD-HF/TD-DFT) =  -4070.53698909
 Copying the excited state density for this state as the 1-particle RhoCI density.

 Excited State   2:      Singlet-A      1.6236 eV  763.64 nm  f=0.3842  <S**2>=0.000
     310 -> 316       -0.17872
     312 -> 314        0.68391
     310 <- 316       -0.11630

 Excited State   3:      Singlet-A      2.1424 eV  578.72 nm  f=0.1284  <S**2>=0.000
     310 -> 314        0.64801
     312 -> 316        0.26640

 Excited State   4:      Singlet-A      2.2111 eV  560.72 nm  f=0.0984  <S**2>=0.000
     309 -> 313        0.62750
     311 -> 315       -0.31208

 Excited State   5:      Singlet-A      3.3489 eV  370.22 nm  f=0.0016  <S**2>=0.000
     305 -> 314       -0.11147
     308 -> 314        0.67179

 The electronic state is 1-A.
 Alpha  occ. eigenvalues --  -46.94969 -46.94962 -19.30454 -19.29884 -19.25373
 Alpha  occ. eigenvalues --  -19.24542 -19.24217 -19.24102 -19.23441 -19.23280
 Alpha  occ. eigenvalues --  -14.47026 -14.46518 -14.46480 -14.46299 -14.44213
 Alpha  occ. eigenvalues --  -14.44143 -14.43990 -14.43647 -10.43120 -10.42301
 Alpha  occ. eigenvalues --  -10.39740 -10.39526 -10.39043 -10.38593 -10.36272
 Alpha  occ. eigenvalues --  -10.35365 -10.35277 -10.35245 -10.35004 -10.34869
 Alpha  occ. eigenvalues --  -10.34783 -10.34686 -10.34632 -10.34541 -10.34496
 Alpha  occ. eigenvalues --  -10.34262 -10.34028 -10.33667 -10.33601 -10.33357
 Alpha  occ. eigenvalues --  -10.33199 -10.33013 -10.32896 -10.32735 -10.32621
 Alpha  occ. eigenvalues --  -10.32590 -10.32589 -10.32490 -10.32330 -10.32324
 Alpha  occ. eigenvalues --  -10.32254 -10.32214 -10.32154 -10.32135 -10.31986
 Alpha  occ. eigenvalues --  -10.31914 -10.31911 -10.31846 -10.31830 -10.31668
 Alpha  occ. eigenvalues --  -10.31554 -10.31143 -10.31100 -10.30960 -10.30888
 Alpha  occ. eigenvalues --  -10.30648 -10.30596 -10.30572 -10.30525 -10.30449
 Alpha  occ. eigenvalues --  -10.30400 -10.30331 -10.30297 -10.30248 -10.29995
 Alpha  occ. eigenvalues --  -10.29941 -10.29914 -10.29735 -10.29638 -10.29612
 Alpha  occ. eigenvalues --  -10.29466 -10.29392 -10.29300 -10.29215 -10.29185
 Alpha  occ. eigenvalues --  -10.28805  -3.21039  -3.21027  -1.94592  -1.94582
 Alpha  occ. eigenvalues --   -1.94169  -1.94158  -1.94028  -1.94005  -1.19447
 Alpha  occ. eigenvalues --   -1.18716  -1.13048  -1.12639  -1.12227  -1.11198
 Alpha  occ. eigenvalues --   -1.10688  -1.09549  -1.06675  -1.06624  -1.06066
 Alpha  occ. eigenvalues --   -1.05513  -1.05361  -1.05135  -1.04683  -1.03920
 Alpha  occ. eigenvalues --   -0.95193  -0.94132  -0.91779  -0.91342  -0.90501
 Alpha  occ. eigenvalues --   -0.90328  -0.90148  -0.89960  -0.89482  -0.89048
 Alpha  occ. eigenvalues --   -0.88944  -0.88355  -0.88316  -0.87787  -0.86679
 Alpha  occ. eigenvalues --   -0.86143  -0.86083  -0.86004  -0.84665  -0.84553
 Alpha  occ. eigenvalues --   -0.83738  -0.83632  -0.83219  -0.82850  -0.82651
 Alpha  occ. eigenvalues --   -0.82499  -0.80216  -0.79915  -0.79596  -0.79473
 Alpha  occ. eigenvalues --   -0.78813  -0.78792  -0.78174  -0.78015  -0.77125
 Alpha  occ. eigenvalues --   -0.76780  -0.74724  -0.74474  -0.73687  -0.73391
 Alpha  occ. eigenvalues --   -0.71591  -0.70844  -0.70739  -0.70601  -0.69745
 Alpha  occ. eigenvalues --   -0.69603  -0.69121  -0.68917  -0.67820  -0.67467
 Alpha  occ. eigenvalues --   -0.67107  -0.67090  -0.66621  -0.66556  -0.66483
 Alpha  occ. eigenvalues --   -0.66401  -0.64403  -0.64136  -0.62485  -0.62008
 Alpha  occ. eigenvalues --   -0.61458  -0.61168  -0.61043  -0.60957  -0.60814
 Alpha  occ. eigenvalues --   -0.60459  -0.60139  -0.60025  -0.59455  -0.59429
 Alpha  occ. eigenvalues --   -0.58568  -0.58080  -0.58052  -0.57659  -0.57396
 Alpha  occ. eigenvalues --   -0.57138  -0.57090  -0.56593  -0.56280  -0.56057
 Alpha  occ. eigenvalues --   -0.55438  -0.55247  -0.55026  -0.54932  -0.54843
 Alpha  occ. eigenvalues --   -0.54836  -0.54536  -0.54328  -0.54246  -0.54243
 Alpha  occ. eigenvalues --   -0.54048  -0.53995  -0.53562  -0.53377  -0.53202
 Alpha  occ. eigenvalues --   -0.53106  -0.53104  -0.52906  -0.52530  -0.52459
 Alpha  occ. eigenvalues --   -0.52129  -0.51991  -0.51919  -0.51585  -0.51373
 Alpha  occ. eigenvalues --   -0.51246  -0.51163  -0.50997  -0.50880  -0.50719
 Alpha  occ. eigenvalues --   -0.50695  -0.50580  -0.50480  -0.50318  -0.50317
 Alpha  occ. eigenvalues --   -0.50022  -0.49665  -0.49495  -0.49347  -0.49163
 Alpha  occ. eigenvalues --   -0.49074  -0.48855  -0.48768  -0.48650  -0.48522
 Alpha  occ. eigenvalues --   -0.48343  -0.48154  -0.48040  -0.47979  -0.47857
 Alpha  occ. eigenvalues --   -0.47816  -0.47456  -0.47218  -0.47202  -0.47028
 Alpha  occ. eigenvalues --   -0.46631  -0.46451  -0.46327  -0.46183  -0.46057
 Alpha  occ. eigenvalues --   -0.45870  -0.45745  -0.45569  -0.45532  -0.45256
 Alpha  occ. eigenvalues --   -0.45182  -0.44963  -0.44730  -0.44681  -0.44592
 Alpha  occ. eigenvalues --   -0.44552  -0.44433  -0.44414  -0.44145  -0.44110
 Alpha  occ. eigenvalues --   -0.43818  -0.43760  -0.43473  -0.43331  -0.43188
 Alpha  occ. eigenvalues --   -0.43088  -0.42902  -0.42704  -0.42426  -0.42329
 Alpha  occ. eigenvalues --   -0.42178  -0.41792  -0.41605  -0.41253  -0.41061
 Alpha  occ. eigenvalues --   -0.40444  -0.40276  -0.39844  -0.39843  -0.39350
 Alpha  occ. eigenvalues --   -0.39107  -0.39047  -0.38526  -0.38509  -0.38219
 Alpha  occ. eigenvalues --   -0.38112  -0.37745  -0.37085  -0.36441  -0.36247
 Alpha  occ. eigenvalues --   -0.35694  -0.35328  -0.35226  -0.33685  -0.33610
 Alpha  occ. eigenvalues --   -0.33393  -0.33153  -0.32776  -0.32493  -0.32259
 Alpha  occ. eigenvalues --   -0.32102  -0.31857  -0.31574  -0.26258  -0.25743
 Alpha  occ. eigenvalues --   -0.22882  -0.22756
 Alpha virt. eigenvalues --   -0.07151  -0.07071   0.00097   0.00809   0.02222
 Alpha virt. eigenvalues --    0.02267   0.04164   0.04463   0.04623   0.04943
 Alpha virt. eigenvalues --    0.07376   0.07542   0.07740   0.07874   0.08122

 Mulliken charges:
               1
     1  Mg   0.971355
     2  C   -0.073418
     3  C   -0.088870
     4  C   -0.070242
     5  C   -0.087607
     6  N   -0.366548
     7  C    0.021222
     8  C   -0.041286
     9  C   -0.131847
    10  C    0.060218
    11  C    0.036724
    12  C   -0.026230
    13  C   -0.106232
    14  H    0.042047
    15  N   -0.438685
    16  C    0.155307
    17  C   -0.199013
    18  C   -0.050482
    19  C    0.165440
    20  C    0.110591
    21  C    0.017554
    22  O   -0.237326
    23  C   -0.009476
    24  N   -0.356963
    25  C    0.045735
    26  C   -0.080020
    27  C   -0.111646
    28  C    0.037573
    29  C    0.042901
    30  C    0.014726
    31  C   -0.045855
    32  N   -0.434642
    33  C    0.147849
    34  C   -0.205195
    35  C   -0.044302
    36  C    0.162962
    37  C    0.102101
    38  C    0.124259
    39  O   -0.206653
    40  C   -0.072889
    41  C    0.257868
    42  O   -0.210119
    43  O   -0.374947
    44  C    0.128931
    45  H   -0.001806
    46  H   -0.030260
    47  H    0.001590
    48  H    0.040508
    49  H    0.052521
    50  H    0.037917
    51  H    0.045518
    52  H    0.046161
    53  H    0.018090
    54  H    0.023442
    55  H    0.051789
    56  H    0.057201
    57  H    0.065823
    58  H    0.021466
    59  H    0.056338
    60  H    0.066103
    61  H    0.044710
    62  H    0.054465
    63  H    0.033954
    64  H    0.029549
    65  H    0.040579
    66  H    0.046140
    67  H    0.027745
    68  H    0.057221
    69  H    0.024536
    70  H    0.038688
    71  H    0.024916
    72  H    0.035832
    73  H    0.069355
    74  H    0.037755
    75  H    0.057388
    76  H    0.064925
    77  H    0.073210
    78  H    0.055880
    79  H    0.055881
    80  Mg   0.966488
    81  C   -0.049115
    82  C   -0.089632
    83  C   -0.059845
    84  C   -0.106203
    85  N   -0.317398
    86  C    0.011300
    87  C   -0.040464
    88  C   -0.105328
    89  C    0.050228
    90  C   -0.005205
    91  C   -0.008574
    92  C   -0.109741
    93  H    0.017161
    94  N   -0.388051
    95  C    0.163874
    96  C   -0.188155
    97  C   -0.059119
    98  C    0.115259
    99  C    0.051739
   100  C    0.080626
   101  O   -0.219437
   102  C   -0.036651
   103  N   -0.403608
   104  C    0.019132
   105  C   -0.074900
   106  C   -0.053928
   107  C    0.103335
   108  C    0.032773
   109  C   -0.056514
   110  C   -0.031332
   111  N   -0.481573
   112  C    0.161739
   113  C   -0.187113
   114  C   -0.019297
   115  C    0.159860
   116  C    0.089874
   117  C    0.119863
   118  O   -0.226507
   119  C   -0.061657
   120  C    0.257936
   121  O   -0.245674
   122  O   -0.357561
   123  C    0.146434
   124  H   -0.009347
   125  H    0.024561
   126  H    0.001010
   127  H    0.044157
   128  H    0.046815
   129  H    0.047933
   130  H    0.045193
   131  H    0.037843
   132  H    0.030187
   133  H    0.028266
   134  H    0.044366
   135  H    0.052338
   136  H    0.066475
   137  H    0.038137
   138  H    0.031216
   139  H    0.035980
   140  H    0.074675
   141  H    0.049264
   142  H    0.043690
   143  H    0.035653
   144  H    0.053048
   145  H    0.026328
   146  H    0.041763
   147  H    0.029344
   148  H    0.020478
   149  H    0.036567
   150  H    0.025289
   151  H    0.038903
   152  H    0.066599
   153  H    0.037261
   154  H    0.055595
   155  H    0.057869
   156  H    0.070412
   157  H    0.046849
   158  H    0.060247
 Sum of Mulliken charges =  -0.00000

 Dipole moment (field-independent basis, Debye):
    X=              6.4083    Y=             -0.9667    Z=             -1.2478  Tot=              6.5999
 Quadrupole moment (field-independent basis, Debye-Ang):
   XX=           -632.1041   YY=           -503.6823   ZZ=           -490.3083
   XY=            -45.8325   XZ=            102.7322   YZ=              3.6593

 Normal termination of Gaussian 16 at Sat Sep 18 15:04:30 2021.
