 Gaussian 16, Revision A.03,
 Gaussian 16:  ES64L-G16RevA.03 25-Dec-2016

 --------------------------------
 #p wB97XD/Def2SVP td=(nstates=5)
 --------------------------------

 --------------------------------
 TDDFT excited states in gaussian
 --------------------------------
 Symbolic Z-matrix:
 Charge =  0 Multiplicity = 1

                         Standard orientation:
 ---------------------------------------------------------------------
 Center     Atomic      Atomic             Coordinates (Angstroms)
 Number     Number       Type             X           Y           Z
 ---------------------------------------------------------------------
      1         12           0       25.043660   -0.057453   -0.110488
      2          6           0       21.522247   -0.108364    0.294216
      3          6           0       24.602280    2.194862   -2.612462
      4          6           0       28.376005    0.589497    0.080090
      5          6           0       25.300081   -1.941890    2.787078
      6          7           0       23.190776    0.989242   -0.870628
      7          6           0       21.854341    0.770839   -0.664904
      8          6           0       21.011025    1.564159   -1.592487
      9          6           0       22.047732    2.023944   -2.722319
     10          6           0       23.347354    1.745036   -2.047782
     11          6           0       21.845044    1.261610   -4.021838
     12          6           0       20.333803    2.666890   -0.763647
     13          6           0       18.752639    2.776625   -0.839744
     14          1           0       18.051264    4.111280   -1.234045
     15          7           0       26.368038    1.159476   -1.118287
     16          6           0       25.975532    1.960633   -2.199538
     17          6           0       27.163105    2.475466   -2.812372
     18          6           0       28.302268    2.061567   -2.042556
     19          6           0       27.706401    1.169084   -1.012529
     20          6           0       27.086338    3.305570   -4.087295
     21          6           0       29.761763    2.402154   -2.245365
     22          8           0       29.983834    3.054575   -3.306265
     23          6           0       30.961533    2.151571   -1.288508
     24          7           0       26.661273   -0.603521    1.247144
     25          6           0       27.950641   -0.233220    1.084916
     26          6           0       28.883205   -0.757820    2.208676
     27          6           0       27.897575   -1.669404    3.018133
     28          6           0       26.494332   -1.337046    2.322904
     29          6           0       30.056660   -1.499384    1.593836
     30          6           0       27.837458   -1.401678    4.491047
     31          6           0       28.398074   -2.513942    5.335146
     32          7           0       23.790736   -1.009756    1.168259
     33          6           0       23.984730   -1.806866    2.303489
     34          6           0       22.823999   -2.419465    2.707837
     35          6           0       21.823754   -1.811671    1.921887
     36          6           0       22.454109   -0.912942    1.064352
     37          6           0       22.780670   -3.576983    3.682837
     38          6           0       20.369137   -1.844323    1.614376
     39          8           0       19.513351   -2.527436    2.084978
     40          6           0       20.195245   -0.652282    0.598956
     41          6           0       19.214226   -1.112474   -0.457200
     42          8           0       18.036523   -0.759552   -0.519721
     43          8           0       19.857614   -1.962264   -1.389487
     44          6           0       18.983124   -2.333634   -2.501504
     45          1           0       24.473942    2.739567   -3.550432
     46          1           0       29.463290    0.689019    0.119513
     47          1           0       25.289415   -2.342430    3.802279
     48          1           0       20.239166    0.923099   -2.018557
     49          1           0       21.882782    3.082276   -2.922603
     50          1           0       21.580417    0.216055   -3.870157
     51          1           0       22.798699    1.227294   -4.549643
     52          1           0       21.141342    1.736700   -4.705316
     53          1           0       20.762752    3.615734   -1.085499
     54          1           0       20.615279    2.662442    0.289375
     55          1           0       18.501401    2.550954    0.196946
     56          1           0       18.331674    1.919003   -1.363182
     57          1           0       26.365104    4.116363   -3.984522
     58          1           0       26.725446    2.631434   -4.863989
     59          1           0       27.983263    3.847164   -4.390922
     60          1           0       31.079921    1.068933   -1.319547
     61          1           0       30.684205    2.488429   -0.289584
     62          1           0       31.859421    2.690334   -1.592382
     63          1           0       29.308625    0.025540    2.835435
     64          1           0       28.072425   -2.716059    2.770377
     65          1           0       30.497880   -0.849810    0.837684
     66          1           0       29.675548   -2.407635    1.125900
     67          1           0       30.828873   -1.911034    2.242605
     68          1           0       26.824078   -1.271990    4.870980
     69          1           0       28.326571   -0.494448    4.845190
     70          1           0       29.156024   -2.086242    5.990253
     71          1           0       28.932308   -3.261432    4.748670
     72          1           0       27.647276   -3.073619    5.893986
     73          1           0       21.807364   -4.048800    3.544261
     74          1           0       22.883103   -3.250720    4.717531
     75          1           0       23.617275   -4.212456    3.393233
     76          1           0       19.612504    0.057326    1.187435
     77          1           0       19.571211   -2.556160   -3.391963
     78          1           0       18.383141   -1.488080   -2.834895
     79          1           0       18.306447   -3.153260   -2.258232
     80         12           0      -24.905720    0.329472    0.348737
     81          6           0      -22.098804   -1.714767   -0.247254
     82          6           0      -26.899140   -2.121935   -0.895280
     83          6           0      -27.552756    2.378496    0.833140
     84          6           0      -22.756237    2.927270    1.179224
     85          7           0      -24.545868   -1.614646   -0.554166
     86          6           0      -23.328787   -2.300611   -0.590648
     87          6           0      -23.567806   -3.714245   -1.028921
     88          6           0      -24.973815   -3.631393   -1.669269
     89          6           0      -25.523622   -2.352850   -0.985874
     90          6           0      -25.051783   -3.471868   -3.220482
     91          6           0      -23.468079   -4.809843    0.098321
     92          6           0      -22.647355   -6.004524   -0.270399
     93          1           0      -23.240028   -7.381668    0.082018
     94          7           0      -26.897627    0.098155    0.113041
     95          6           0      -27.573053   -1.047211   -0.340262
     96          6           0      -28.965034   -0.837206   -0.292955
     97          6           0      -29.215264    0.516752    0.232887
     98          6           0      -27.893724    1.041928    0.425939
     99          6           0      -30.011973   -1.770174   -0.827569
    100          6           0      -30.548489    1.351687    0.465877
    101          8           0      -30.509902    2.463080    0.938123
    102          6           0      -31.914900    0.737236    0.197662
    103          7           0      -25.109859    2.403356    0.820747
    104          6           0      -26.325084    2.997967    0.939763
    105          6           0      -26.147766    4.551689    1.293128
    106          6           0      -24.612794    4.649577    1.701040
    107          6           0      -24.100279    3.232100    1.201351
    108          6           0      -26.512729    5.559948    0.168703
    109          6           0      -24.365858    4.875503    3.235194
    110          6           0      -23.491489    6.034229    3.472942
    111          7           0      -22.854804    0.599503    0.407149
    112          6           0      -22.119168    1.687897    0.873643
    113          6           0      -20.716342    1.374437    0.851740
    114          6           0      -20.665075    0.072751    0.396374
    115          6           0      -21.931873   -0.365228    0.170621
    116          6           0      -19.632932    2.361386    1.359392
    117          6           0      -19.775153   -1.016701    0.039076
    118          8           0      -18.565676   -1.001120   -0.025702
    119          6           0      -20.697553   -2.249101   -0.428713
    120          6           0      -20.354328   -2.602617   -1.818349
    121          8           0      -20.418739   -1.808254   -2.792998
    122          8           0      -19.928483   -3.898389   -1.839507
    123          6           0      -19.195368   -4.282091   -3.074956
    124          1           0      -27.471083   -2.935507   -1.346234
    125          1           0      -28.346887    3.109124    0.999450
    126          1           0      -22.093840    3.772794    1.373558
    127          1           0      -22.933522   -4.035752   -1.855893
    128          1           0      -25.599736   -4.498730   -1.458684
    129          1           0      -24.253062   -3.984115   -3.758496
    130          1           0      -25.040766   -2.401702   -3.428793
    131          1           0      -25.997530   -3.759066   -3.679317
    132          1           0      -24.501110   -5.067274    0.331374
    133          1           0      -23.093887   -4.390838    1.032863
    134          1           0      -21.722619   -5.793863    0.267035
    135          1           0      -22.531696   -6.047794   -1.353303
    136          1           0      -30.596029   -2.304564   -0.077976
    137          1           0      -29.524725   -2.576314   -1.374567
    138          1           0      -30.760933   -1.370911   -1.510964
    139          1           0      -32.638510    1.459884    0.572855
    140          1           0      -31.986358   -0.274778    0.597259
    141          1           0      -31.999569    0.476047   -0.857596
    142          1           0      -26.843021    4.833321    2.084121
    143          1           0      -24.153619    5.446335    1.113966
    144          1           0      -26.786934    5.133138   -0.796609
    145          1           0      -25.707385    6.259605   -0.056293
    146          1           0      -27.357074    6.143576    0.536493
    147          1           0      -23.840413    4.006405    3.632771
    148          1           0      -25.267237    5.067054    3.817003
    149          1           0      -24.113748    6.887298    3.744717
    150          1           0      -22.773972    6.324065    2.706121
    151          1           0      -22.799375    5.802814    4.282663
    152          1           0      -20.112065    3.128909    1.967675
    153          1           0      -19.003727    2.719783    0.543395
    154          1           0      -19.029001    1.762490    2.040058
    155          1           0      -20.566480   -3.117243    0.217733
    156          1           0      -18.769943   -5.279726   -2.967415
    157          1           0      -18.331518   -3.617681   -3.104863
    158          1           0      -19.886274   -4.139530   -3.906346
 ---------------------------------------------------------------------

 SCF Done:  E(RwB97XD) =  -4070.62756365     A.U. after   19 cycles

 Excitation energies and oscillator strengths:

 Excited State   1:      Singlet-A      1.6248 eV  763.06 nm  f=0.3628  <S**2>=0.000
     309 -> 315        0.17973
     311 -> 313        0.68479
     309 <- 315        0.11749
 This state for optimization and/or second-order correction.
 Total Energy, E(TD-HF/TD-DFT) =  -4070.56785217
 Copying the excited state density for this state as the 1-particle RhoCI density.

 Excited State   2:      Singlet-A      1.6894 eV  733.92 nm  f=0.3942  <S**2>=0.000
     310 -> 316        0.18339
     312 -> 314        0.68255
     310 <- 316        0.11555

 Excited State   3:      Singlet-A      2.1431 eV  578.53 nm  f=0.1545  <S**2>=0.000
     310 -> 314        0.65152
     312 -> 316       -0.25246

 Excited State   4:      Singlet-A      2.1634 eV  573.10 nm  f=0.1553  <S**2>=0.000
     309 -> 313        0.64649
     311 -> 315       -0.27019

 Excited State   5:      Singlet-A      3.1999 eV  387.46 nm  f=0.0021  <S**2>=0.000
     306 -> 314        0.29732
     308 -> 314        0.62270

 The electronic state is 1-A.
 Alpha  occ. eigenvalues --  -46.95357 -46.93525 -19.30853 -19.30852 -19.25960
 Alpha  occ. eigenvalues --  -19.24917 -19.24877 -19.24454 -19.24048 -19.23364
 Alpha  occ. eigenvalues --  -14.46986 -14.46818 -14.46651 -14.46075 -14.44698
 Alpha  occ. eigenvalues --  -14.43950 -14.43611 -14.43131 -10.44243 -10.43258
 Alpha  occ. eigenvalues --  -10.40340 -10.39676 -10.39487 -10.39017 -10.36057
 Alpha  occ. eigenvalues --  -10.35888 -10.35396 -10.35119 -10.35051 -10.34884
 Alpha  occ. eigenvalues --  -10.34734 -10.34715 -10.34709 -10.34670 -10.34631
 Alpha  occ. eigenvalues --  -10.34549 -10.34402 -10.33988 -10.33132 -10.33062
 Alpha  occ. eigenvalues --  -10.33060 -10.32865 -10.32707 -10.32595 -10.32584
 Alpha  occ. eigenvalues --  -10.32571 -10.32441 -10.32426 -10.32362 -10.32264
 Alpha  occ. eigenvalues --  -10.32162 -10.32131 -10.32033 -10.32017 -10.31858
 Alpha  occ. eigenvalues --  -10.31828 -10.31810 -10.31798 -10.31680 -10.31654
 Alpha  occ. eigenvalues --  -10.31562 -10.31458 -10.31391 -10.31256 -10.31180
 Alpha  occ. eigenvalues --  -10.31085 -10.31008 -10.30922 -10.30810 -10.30612
 Alpha  occ. eigenvalues --  -10.30455 -10.30401 -10.30372 -10.30332 -10.30175
 Alpha  occ. eigenvalues --  -10.29951 -10.29936 -10.29870 -10.29834 -10.29587
 Alpha  occ. eigenvalues --  -10.29315 -10.29166 -10.29129 -10.29004 -10.28420
 Alpha  occ. eigenvalues --  -10.28320  -3.21363  -3.19659  -1.94933  -1.94491
 Alpha  occ. eigenvalues --   -1.94336  -1.93260  -1.92777  -1.92659  -1.17911
 Alpha  occ. eigenvalues --   -1.17748  -1.14276  -1.13940  -1.12525  -1.10165
 Alpha  occ. eigenvalues --   -1.09854  -1.08494  -1.07257  -1.06931  -1.06294
 Alpha  occ. eigenvalues --   -1.05394  -1.05329  -1.04805  -1.04552  -1.03490
 Alpha  occ. eigenvalues --   -0.95286  -0.94523  -0.91779  -0.91259  -0.91053
 Alpha  occ. eigenvalues --   -0.90948  -0.90535  -0.89919  -0.89795  -0.88966
 Alpha  occ. eigenvalues --   -0.88944  -0.88364  -0.87909  -0.87747  -0.86775
 Alpha  occ. eigenvalues --   -0.86203  -0.86196  -0.85684  -0.84793  -0.84565
 Alpha  occ. eigenvalues --   -0.84034  -0.83866  -0.83123  -0.82662  -0.82614
 Alpha  occ. eigenvalues --   -0.82450  -0.80213  -0.79772  -0.79377  -0.79223
 Alpha  occ. eigenvalues --   -0.78824  -0.78669  -0.78422  -0.77630  -0.77463
 Alpha  occ. eigenvalues --   -0.76810  -0.75523  -0.74846  -0.74212  -0.72897
 Alpha  occ. eigenvalues --   -0.71377  -0.70921  -0.70584  -0.70007  -0.69662
 Alpha  occ. eigenvalues --   -0.69502  -0.69254  -0.68508  -0.68244  -0.67673
 Alpha  occ. eigenvalues --   -0.67441  -0.67379  -0.67082  -0.66945  -0.66567
 Alpha  occ. eigenvalues --   -0.66032  -0.65111  -0.63914  -0.62529  -0.62321
 Alpha  occ. eigenvalues --   -0.62078  -0.62066  -0.61607  -0.61235  -0.60968
 Alpha  occ. eigenvalues --   -0.60132  -0.60086  -0.59672  -0.59572  -0.58822
 Alpha  occ. eigenvalues --   -0.58231  -0.58168  -0.57786  -0.57630  -0.57625
 Alpha  occ. eigenvalues --   -0.57400  -0.56870  -0.56854  -0.56316  -0.55834
 Alpha  occ. eigenvalues --   -0.55701  -0.55523  -0.55518  -0.55369  -0.55168
 Alpha  occ. eigenvalues --   -0.54633  -0.54553  -0.54484  -0.54242  -0.54009
 Alpha  occ. eigenvalues --   -0.53809  -0.53728  -0.53675  -0.53497  -0.53047
 Alpha  occ. eigenvalues --   -0.52952  -0.52818  -0.52791  -0.52472  -0.52428
 Alpha  occ. eigenvalues --   -0.52248  -0.52039  -0.51997  -0.51829  -0.51727
 Alpha  occ. eigenvalues --   -0.51604  -0.51341  -0.51332  -0.51093  -0.50856
 Alpha  occ. eigenvalues --   -0.50628  -0.50563  -0.50268  -0.49933  -0.49873
 Alpha  occ. eigenvalues --   -0.49673  -0.49565  -0.49163  -0.49151  -0.48845
 Alpha  occ. eigenvalues --   -0.48739  -0.48554  -0.48554  -0.48426  -0.48368
 Alpha  occ. eigenvalues --   -0.48047  -0.47955  -0.47835  -0.47760  -0.47689
 Alpha  occ. eigenvalues --   -0.47659  -0.47437  -0.47301  -0.47253  -0.47130
 Alpha  occ. eigenvalues --   -0.46972  -0.46816  -0.46674  -0.46569  -0.46386
 Alpha  occ. eigenvalues --   -0.46269  -0.45988  -0.45891  -0.45652  -0.45335
 Alpha  occ. eigenvalues --   -0.45241  -0.45203  -0.44846  -0.44769  -0.44629
 Alpha  occ. eigenvalues --   -0.44556  -0.44421  -0.44374  -0.44323  -0.44285
 Alpha  occ. eigenvalues --   -0.43984  -0.43856  -0.43772  -0.43655  -0.43475
 Alpha  occ. eigenvalues --   -0.43413  -0.43120  -0.43035  -0.42864  -0.42332
 Alpha  occ. eigenvalues --   -0.42040  -0.41949  -0.41028  -0.40964  -0.40717
 Alpha  occ. eigenvalues --   -0.40681  -0.40259  -0.40156  -0.39882  -0.39746
 Alpha  occ. eigenvalues --   -0.39740  -0.39498  -0.39267  -0.38748  -0.38388
 Alpha  occ. eigenvalues --   -0.38373  -0.37902  -0.37377  -0.36683  -0.36219
 Alpha  occ. eigenvalues --   -0.36085  -0.35479  -0.35360  -0.33982  -0.33729
 Alpha  occ. eigenvalues --   -0.33467  -0.33117  -0.32813  -0.32554  -0.32167
 Alpha  occ. eigenvalues --   -0.32144  -0.31957  -0.31734  -0.26324  -0.25867
 Alpha  occ. eigenvalues --   -0.23463  -0.23324
 Alpha virt. eigenvalues --   -0.07694  -0.07354   0.00079   0.00656   0.02316
 Alpha virt. eigenvalues --    0.02798   0.04436   0.04888   0.05003   0.06279
 Alpha virt. eigenvalues --    0.06491   0.06714   0.07444   0.08064   0.08161

 Mulliken charges:
               1
     1  Mg   0.971975
     2  C    0.037644
     3  C   -0.077606
     4  C   -0.047389
     5  C   -0.093022
     6  N   -0.359317
     7  C   -0.051870
     8  C   -0.053743
     9  C   -0.081907
    10  C    0.068546
    11  C    0.030560
    12  C    0.005095
    13  C   -0.116297
    14  H    0.048004
    15  N   -0.473421
    16  C    0.150711
    17  C   -0.148692
    18  C   -0.063196
    19  C    0.180099
    20  C    0.070467
    21  C    0.021639
    22  O   -0.276294
    23  C    0.023466
    24  N   -0.303385
    25  C    0.005232
    26  C   -0.045830
    27  C   -0.064961
    28  C    0.055384
    29  C    0.009441
    30  C   -0.002865
    31  C   -0.061522
    32  N   -0.466495
    33  C    0.108593
    34  C   -0.190741
    35  C   -0.079733
    36  C    0.147859
    37  C    0.086709
    38  C    0.122408
    39  O   -0.159424
    40  C   -0.057491
    41  C    0.245413
    42  O   -0.241397
    43  O   -0.390680
    44  C    0.140065
    45  H    0.005735
    46  H   -0.060401
    47  H    0.006976
    48  H    0.035234
    49  H    0.038506
    50  H    0.038047
    51  H    0.024501
    52  H    0.047561
    53  H    0.031349
    54  H    0.047661
    55  H    0.050633
    56  H    0.054832
    57  H    0.034279
    58  H    0.046806
    59  H    0.065060
    60  H    0.062918
    61  H    0.064285
    62  H    0.063544
    63  H    0.043472
    64  H    0.043077
    65  H    0.033457
    66  H    0.024379
    67  H    0.040164
    68  H    0.030970
    69  H    0.026654
    70  H    0.031333
    71  H    0.020860
    72  H    0.039953
    73  H    0.062300
    74  H    0.052060
    75  H    0.046471
    76  H    0.069883
    77  H    0.047256
    78  H    0.043993
    79  H    0.064159
    80  Mg   0.978578
    81  C   -0.032873
    82  C   -0.099747
    83  C   -0.063602
    84  C   -0.089494
    85  N   -0.322053
    86  C    0.015177
    87  C   -0.082469
    88  C   -0.128360
    89  C    0.030637
    90  C    0.020671
    91  C    0.044949
    92  C   -0.121178
    93  H    0.030801
    94  N   -0.522995
    95  C    0.241949
    96  C   -0.149299
    97  C   -0.081319
    98  C    0.154469
    99  C    0.041932
   100  C    0.076181
   101  O   -0.213765
   102  C   -0.007640
   103  N   -0.359216
   104  C    0.071636
   105  C   -0.108226
   106  C   -0.079845
   107  C    0.063544
   108  C    0.008302
   109  C    0.027477
   110  C   -0.074081
   111  N   -0.443925
   112  C    0.130118
   113  C   -0.214784
   114  C    0.007998
   115  C    0.121650
   116  C    0.094278
   117  C    0.108409
   118  O   -0.190785
   119  C   -0.041920
   120  C    0.275576
   121  O   -0.281945
   122  O   -0.372039
   123  C    0.141526
   124  H   -0.011157
   125  H    0.021668
   126  H   -0.003584
   127  H    0.026691
   128  H    0.025642
   129  H    0.045039
   130  H    0.043243
   131  H    0.033128
   132  H    0.030086
   133  H    0.030100
   134  H    0.065275
   135  H    0.054091
   136  H    0.051088
   137  H    0.023048
   138  H    0.045325
   139  H    0.070828
   140  H    0.046633
   141  H    0.048678
   142  H    0.037843
   143  H    0.037784
   144  H    0.044159
   145  H    0.029740
   146  H    0.037009
   147  H    0.035377
   148  H    0.037537
   149  H    0.038891
   150  H    0.028211
   151  H    0.026691
   152  H    0.030844
   153  H    0.066482
   154  H    0.049419
   155  H    0.057616
   156  H    0.060447
   157  H    0.064193
   158  H    0.067635
 Sum of Mulliken charges =  -0.00000

 Dipole moment (field-independent basis, Debye):
    X=              0.0957    Y=             -3.5390    Z=              0.0144  Tot=              3.5403
 Quadrupole moment (field-independent basis, Debye-Ang):
   XX=           -177.1295   YY=           -486.1458   ZZ=           -496.8495
   XY=             20.3385   XZ=             47.7212   YZ=             23.0850

 Normal termination of Gaussian 16 at Sun Sep 19 18:12:02 2021.
