 Gaussian 16, Revision A.03,
 Gaussian 16:  ES64L-G16RevA.03 25-Dec-2016

 --------------------------------
 #p wB97XD/Def2SVP td=(nstates=5)
 --------------------------------

 --------------------------------
 TDDFT excited states in gaussian
 --------------------------------
 Symbolic Z-matrix:
 Charge =  0 Multiplicity = 1

                         Standard orientation:
 ---------------------------------------------------------------------
 Center     Atomic      Atomic             Coordinates (Angstroms)
 Number     Number       Type             X           Y           Z
 ---------------------------------------------------------------------
      1         12           0       22.400558   -0.616698    0.435131
      2          6           0       22.020849    2.327798   -1.380074
      3          6           0       23.302288    1.156254    3.154496
      4          6           0       23.172532   -3.531240    1.963197
      5          6           0       21.948193   -2.358437   -2.506213
      6          7           0       22.646452    1.554168    0.806925
      7          6           0       22.231496    2.565057   -0.022213
      8          6           0       22.351213    3.874372    0.660482
      9          6           0       22.809220    3.577955    2.093218
     10          6           0       22.928756    1.993150    2.086435
     11          6           0       24.036671    4.292551    2.636933
     12          6           0       20.960533    4.725007    0.568133
     13          6           0       20.996465    6.082975   -0.171389
     14          1           0       20.228336    7.270823    0.353869
     15          7           0       23.016658   -1.127403    2.328762
     16          6           0       23.363149   -0.239400    3.336054
     17          6           0       23.808729   -0.960219    4.472593
     18          6           0       23.786703   -2.344808    4.152545
     19          6           0       23.291837   -2.383701    2.772609
     20          6           0       24.094628   -0.159071    5.802579
     21          6           0       24.269407   -3.469231    5.067170
     22          8           0       24.324007   -4.670042    4.761417
     23          6           0       24.634885   -3.168074    6.453985
     24          7           0       22.795066   -2.668157   -0.193866
     25          6           0       22.978608   -3.691092    0.615061
     26          6           0       23.159262   -5.002344   -0.182502
     27          6           0       22.283764   -4.605199   -1.435740
     28          6           0       22.311123   -3.081068   -1.379809
     29          6           0       24.589548   -5.477629   -0.634891
     30          6           0       20.784112   -5.170947   -1.484748
     31          6           0       19.868397   -4.810638   -0.387611
     32          7           0       22.084384   -0.187103   -1.645974
     33          6           0       21.898937   -1.029789   -2.759475
     34          6           0       21.689432   -0.232809   -3.925967
     35          6           0       21.789284    1.069133   -3.477406
     36          6           0       21.925462    1.041420   -2.050769
     37          6           0       21.685519   -0.699329   -5.298932
     38          6           0       21.574232    2.388120   -3.848144
     39          8           0       21.316563    2.903410   -4.940903
     40          6           0       21.802862    3.300995   -2.558434
     41          6           0       23.071744    4.043471   -2.818678
     42          8           0       24.202375    3.661023   -3.035810
     43          8           0       22.725622    5.331905   -2.804360
     44          6           0       23.839216    6.314297   -3.013421
     45          1           0       23.353873    1.830753    4.011697
     46          1           0       23.281230   -4.450763    2.540873
     47          1           0       21.741541   -2.925701   -3.415906
     48          1           0       23.128620    4.402970    0.110225
     49          1           0       21.991060    3.800951    2.777690
     50          1           0       24.748879    3.506045    2.390190
     51          1           0       23.986818    4.589407    3.684696
     52          1           0       24.387045    5.206325    2.157751
     53          1           0       20.575008    4.872173    1.576567
     54          1           0       20.182283    4.229045   -0.012454
     55          1           0       20.530294    5.906630   -1.141196
     56          1           0       22.012659    6.388382   -0.417171
     57          1           0       25.091628   -0.422834    6.154947
     58          1           0       23.352689   -0.666791    6.419018
     59          1           0       24.121274    0.929689    5.756860
     60          1           0       25.425471   -2.420208    6.496992
     61          1           0       25.186389   -4.040068    6.804713
     62          1           0       23.798201   -2.963860    7.122579
     63          1           0       22.556788   -5.775381    0.294717
     64          1           0       22.826472   -5.043767   -2.272794
     65          1           0       25.261989   -4.693099   -0.979847
     66          1           0       24.355046   -6.198484   -1.418966
     67          1           0       25.105479   -5.980388    0.183552
     68          1           0       20.734474   -6.259993   -1.499538
     69          1           0       20.212605   -4.701984   -2.285667
     70          1           0       19.530730   -3.813800   -0.667671
     71          1           0       20.256926   -4.733095    0.628293
     72          1           0       18.958477   -5.395413   -0.256819
     73          1           0       22.745221   -0.762674   -5.549017
     74          1           0       21.190164   -0.044889   -6.015592
     75          1           0       21.135163   -1.630307   -5.439250
     76          1           0       20.947668    3.932684   -2.317962
     77          1           0       24.010326    6.739834   -2.024359
     78          1           0       23.543097    7.051495   -3.759371
     79          1           0       24.805957    5.917954   -3.325215
     80         12           0      -22.194234   -0.717459   -0.155563
     81          6           0      -24.048720    2.103922    1.036946
     82          6           0      -20.181848    1.419029   -1.938714
     83          6           0      -20.688288   -3.321818   -1.690901
     84          6           0      -24.883700   -2.733242    0.914367
     85          7           0      -22.141120    1.493618   -0.390277
     86          6           0      -22.930119    2.476083    0.228443
     87          6           0      -22.407530    3.838305   -0.149633
     88          6           0      -21.562540    3.526553   -1.456107
     89          6           0      -21.310504    1.998564   -1.294957
     90          6           0      -22.456196    3.867292   -2.701553
     91          6           0      -21.672877    4.591200    1.015173
     92          6           0      -22.083971    5.976205    1.060467
     93          1           0      -21.684442    6.760566    2.409497
     94          7           0      -20.526436   -0.834529   -1.482352
     95          6           0      -19.826573    0.148603   -2.061091
     96          6           0      -18.730581   -0.415404   -2.787389
     97          6           0      -18.851755   -1.788800   -2.756223
     98          6           0      -20.074733   -2.083320   -1.875587
     99          6           0      -17.755508    0.461976   -3.635056
    100          6           0      -17.916512   -2.860607   -3.352847
    101          8           0      -18.215879   -4.022970   -3.246768
    102          6           0      -16.598285   -2.473569   -3.980681
    103          7           0      -22.885482   -2.700310   -0.574541
    104          6           0      -21.978150   -3.602064   -1.119695
    105          6           0      -22.451508   -5.007275   -0.936017
    106          6           0      -23.796122   -4.829026   -0.075656
    107          6           0      -23.844334   -3.339081    0.168334
    108          6           0      -22.593889   -5.750956   -2.220904
    109          6           0      -23.926622   -5.688463    1.298889
    110          6           0      -25.035132   -6.659064    1.410604
    111          7           0      -24.073149   -0.449817    0.828038
    112          6           0      -25.024560   -1.383994    1.170623
    113          6           0      -26.135772   -0.660286    1.928444
    114          6           0      -25.740877    0.690684    2.000356
    115          6           0      -24.504220    0.775784    1.269600
    116          6           0      -27.412461   -1.332549    2.451569
    117          6           0      -26.215593    1.980664    2.400440
    118          8           0      -27.256978    2.307228    3.013366
    119          6           0      -25.236420    2.976620    1.653733
    120          6           0      -24.866969    4.060640    2.710478
    121          8           0      -23.775748    4.021020    3.307900
    122          8           0      -25.838620    5.004661    2.760328
    123          6           0      -25.562079    5.919438    3.920849
    124          1           0      -19.407450    2.085517   -2.325094
    125          1           0      -20.207793   -4.182822   -2.161634
    126          1           0      -25.710979   -3.282653    1.368184
    127          1           0      -23.276133    4.403426   -0.486908
    128          1           0      -20.653445    4.125146   -1.501638
    129          1           0      -23.247370    3.140191   -2.882811
    130          1           0      -21.812746    3.983525   -3.572620
    131          1           0      -22.921774    4.840133   -2.541995
    132          1           0      -20.624805    4.654949    0.721659
    133          1           0      -21.762465    4.062533    1.964462
    134          1           0      -23.169630    6.062763    1.107808
    135          1           0      -21.643785    6.475250    0.196812
    136          1           0      -16.777674    0.185802   -3.240609
    137          1           0      -17.875124    1.537560   -3.505882
    138          1           0      -17.894957    0.251182   -4.695265
    139          1           0      -16.113425   -3.345123   -4.420599
    140          1           0      -16.128171   -2.116244   -3.064538
    141          1           0      -16.791343   -1.697004   -4.720744
    142          1           0      -21.664781   -5.441518   -0.318811
    143          1           0      -24.618483   -5.138140   -0.720366
    144          1           0      -21.788945   -6.484468   -2.198037
    145          1           0      -22.375703   -5.137484   -3.094928
    146          1           0      -23.563182   -6.221461   -2.387400
    147          1           0      -24.140920   -4.909079    2.030096
    148          1           0      -22.946002   -6.108201    1.519177
    149          1           0      -25.721366   -6.383290    2.210890
    150          1           0      -24.431039   -7.493012    1.766324
    151          1           0      -25.478504   -6.920055    0.448695
    152          1           0      -28.157512   -1.194534    1.668817
    153          1           0      -27.770820   -0.884955    3.378526
    154          1           0      -27.195580   -2.376941    2.675994
    155          1           0      -25.856952    3.373413    0.851405
    156          1           0      -25.769773    5.492083    4.901697
    157          1           0      -26.072961    6.880700    3.875889
    158          1           0      -24.509714    6.189892    3.832041
 ---------------------------------------------------------------------

 SCF Done:  E(RwB97XD) =  -4070.55516130     A.U. after   19 cycles

 Excitation energies and oscillator strengths:

 Excited State   1:      Singlet-A      1.6463 eV  753.10 nm  f=0.3693  <S**2>=0.000
     310 -> 316        0.18129
     311 -> 313        0.68360
     310 <- 316        0.11552
 This state for optimization and/or second-order correction.
 Total Energy, E(TD-HF/TD-DFT) =  -4070.49466058
 Copying the excited state density for this state as the 1-particle RhoCI density.

 Excited State   2:      Singlet-A      1.6768 eV  739.40 nm  f=0.3564  <S**2>=0.000
     309 -> 315       -0.19187
     312 -> 314        0.68013
     309 <- 315       -0.11546

 Excited State   3:      Singlet-A      2.1205 eV  584.69 nm  f=0.1343  <S**2>=0.000
     310 -> 313        0.64944
     311 -> 316       -0.26630

 Excited State   4:      Singlet-A      2.2164 eV  559.40 nm  f=0.0062  <S**2>=0.000
     309 -> 314        0.55057
     312 -> 315        0.43361

 Excited State   5:      Singlet-A      3.6677 eV  338.04 nm  f=0.0000  <S**2>=0.000
     312 -> 313        0.70710

 The electronic state is 1-A.
 Alpha  occ. eigenvalues --  -46.95766 -46.95712 -19.31362 -19.30309 -19.24701
 Alpha  occ. eigenvalues --  -19.24537 -19.24062 -19.23773 -19.23731 -19.23347
 Alpha  occ. eigenvalues --  -14.46879 -14.46614 -14.46480 -14.46459 -14.44347
 Alpha  occ. eigenvalues --  -14.43978 -14.43722 -14.43609 -10.43566 -10.42487
 Alpha  occ. eigenvalues --  -10.39666 -10.39070 -10.38894 -10.38233 -10.35505
 Alpha  occ. eigenvalues --  -10.35503 -10.35444 -10.35398 -10.35351 -10.35276
 Alpha  occ. eigenvalues --  -10.35270 -10.34940 -10.34665 -10.34438 -10.34335
 Alpha  occ. eigenvalues --  -10.34138 -10.33852 -10.33157 -10.33120 -10.33052
 Alpha  occ. eigenvalues --  -10.33034 -10.33006 -10.32970 -10.32842 -10.32773
 Alpha  occ. eigenvalues --  -10.32644 -10.32608 -10.32599 -10.32327 -10.32321
 Alpha  occ. eigenvalues --  -10.32224 -10.32175 -10.32046 -10.32042 -10.32040
 Alpha  occ. eigenvalues --  -10.31988 -10.31967 -10.31881 -10.31636 -10.31578
 Alpha  occ. eigenvalues --  -10.31508 -10.31497 -10.31431 -10.31393 -10.31227
 Alpha  occ. eigenvalues --  -10.31038 -10.30836 -10.30565 -10.30500 -10.30380
 Alpha  occ. eigenvalues --  -10.30356 -10.30352 -10.30350 -10.30147 -10.30118
 Alpha  occ. eigenvalues --  -10.29963 -10.29887 -10.29786 -10.29778 -10.29481
 Alpha  occ. eigenvalues --  -10.29215 -10.29009 -10.28919 -10.28809 -10.28738
 Alpha  occ. eigenvalues --  -10.28580  -3.21576  -3.21569  -1.95166  -1.95148
 Alpha  occ. eigenvalues --   -1.94674  -1.94674  -1.94561  -1.94535  -1.19226
 Alpha  occ. eigenvalues --   -1.18208  -1.13985  -1.11367  -1.10858  -1.10044
 Alpha  occ. eigenvalues --   -1.09594  -1.09299  -1.07467  -1.06340  -1.06127
 Alpha  occ. eigenvalues --   -1.05436  -1.05064  -1.04692  -1.04681  -1.03422
 Alpha  occ. eigenvalues --   -0.94233  -0.93161  -0.91159  -0.90852  -0.90653
 Alpha  occ. eigenvalues --   -0.90595  -0.90351  -0.90038  -0.89921  -0.89562
 Alpha  occ. eigenvalues --   -0.89493  -0.89155  -0.88843  -0.87374  -0.86602
 Alpha  occ. eigenvalues --   -0.86278  -0.86187  -0.85662  -0.85025  -0.84551
 Alpha  occ. eigenvalues --   -0.84461  -0.83970  -0.83549  -0.82735  -0.82626
 Alpha  occ. eigenvalues --   -0.82374  -0.80749  -0.80206  -0.79633  -0.79461
 Alpha  occ. eigenvalues --   -0.79344  -0.78438  -0.77930  -0.77379  -0.77330
 Alpha  occ. eigenvalues --   -0.76872  -0.75516  -0.74147  -0.73698  -0.73408
 Alpha  occ. eigenvalues --   -0.71376  -0.71077  -0.70797  -0.69777  -0.69767
 Alpha  occ. eigenvalues --   -0.69407  -0.69204  -0.68312  -0.67765  -0.67414
 Alpha  occ. eigenvalues --   -0.67009  -0.66886  -0.66813  -0.66424  -0.66281
 Alpha  occ. eigenvalues --   -0.65992  -0.64085  -0.64033  -0.62462  -0.61951
 Alpha  occ. eigenvalues --   -0.61949  -0.61345  -0.61065  -0.60634  -0.60429
 Alpha  occ. eigenvalues --   -0.60286  -0.60208  -0.59927  -0.59379  -0.59025
 Alpha  occ. eigenvalues --   -0.58456  -0.57990  -0.57730  -0.57513  -0.57444
 Alpha  occ. eigenvalues --   -0.57031  -0.57029  -0.56806  -0.56679  -0.56249
 Alpha  occ. eigenvalues --   -0.55954  -0.55901  -0.55471  -0.55329  -0.55200
 Alpha  occ. eigenvalues --   -0.54981  -0.54867  -0.54680  -0.54611  -0.54544
 Alpha  occ. eigenvalues --   -0.54388  -0.54174  -0.53882  -0.53847  -0.53244
 Alpha  occ. eigenvalues --   -0.53158  -0.53054  -0.52479  -0.52363  -0.52298
 Alpha  occ. eigenvalues --   -0.52165  -0.52072  -0.51763  -0.51696  -0.51464
 Alpha  occ. eigenvalues --   -0.51421  -0.51166  -0.51039  -0.50995  -0.50869
 Alpha  occ. eigenvalues --   -0.50550  -0.50476  -0.50313  -0.50150  -0.50062
 Alpha  occ. eigenvalues --   -0.49947  -0.49773  -0.49351  -0.49346  -0.49135
 Alpha  occ. eigenvalues --   -0.48798  -0.48646  -0.48523  -0.48458  -0.48211
 Alpha  occ. eigenvalues --   -0.48139  -0.47993  -0.47950  -0.47792  -0.47752
 Alpha  occ. eigenvalues --   -0.47283  -0.47211  -0.46597  -0.46518  -0.46445
 Alpha  occ. eigenvalues --   -0.46427  -0.46283  -0.46116  -0.46067  -0.46013
 Alpha  occ. eigenvalues --   -0.45734  -0.45657  -0.45386  -0.45329  -0.45192
 Alpha  occ. eigenvalues --   -0.45181  -0.44989  -0.44963  -0.44767  -0.44501
 Alpha  occ. eigenvalues --   -0.44268  -0.44178  -0.44096  -0.43951  -0.43827
 Alpha  occ. eigenvalues --   -0.43781  -0.43650  -0.43387  -0.43046  -0.43020
 Alpha  occ. eigenvalues --   -0.42873  -0.42684  -0.42678  -0.42121  -0.42110
 Alpha  occ. eigenvalues --   -0.41701  -0.41439  -0.40885  -0.40755  -0.40443
 Alpha  occ. eigenvalues --   -0.40072  -0.40011  -0.39770  -0.39672  -0.39220
 Alpha  occ. eigenvalues --   -0.39165  -0.39118  -0.38974  -0.38465  -0.38084
 Alpha  occ. eigenvalues --   -0.38071  -0.36772  -0.36508  -0.36286  -0.36038
 Alpha  occ. eigenvalues --   -0.35821  -0.35780  -0.35191  -0.33935  -0.33721
 Alpha  occ. eigenvalues --   -0.33381  -0.33004  -0.32743  -0.32631  -0.32544
 Alpha  occ. eigenvalues --   -0.32233  -0.32185  -0.31460  -0.26201  -0.25966
 Alpha  occ. eigenvalues --   -0.23292  -0.22012
 Alpha virt. eigenvalues --   -0.07378  -0.05890  -0.00605   0.00253   0.02082
 Alpha virt. eigenvalues --    0.02298   0.04316   0.04469   0.05071   0.05263
 Alpha virt. eigenvalues --    0.07269   0.07710   0.07774   0.08440   0.08586

 Mulliken charges:
               1
     1  Mg   0.939118
     2  C   -0.014602
     3  C   -0.073822
     4  C   -0.062165
     5  C   -0.108134
     6  N   -0.378559
     7  C    0.014369
     8  C   -0.066708
     9  C   -0.052577
    10  C   -0.019037
    11  C    0.003404
    12  C    0.003897
    13  C   -0.135737
    14  H    0.038428
    15  N   -0.463681
    16  C    0.198360
    17  C   -0.182597
    18  C   -0.073561
    19  C    0.131129
    20  C    0.083022
    21  C    0.052719
    22  O   -0.248050
    23  C   -0.010009
    24  N   -0.296338
    25  C    0.019933
    26  C   -0.042554
    27  C   -0.112693
    28  C    0.095914
    29  C    0.041917
    30  C    0.013793
    31  C   -0.088543
    32  N   -0.408938
    33  C    0.114772
    34  C   -0.133379
    35  C    0.022748
    36  C    0.108507
    37  C    0.062418
    38  C    0.079696
    39  O   -0.226693
    40  C   -0.091632
    41  C    0.269330
    42  O   -0.244529
    43  O   -0.346895
    44  C    0.120632
    45  H   -0.007316
    46  H    0.014694
    47  H   -0.002425
    48  H    0.047170
    49  H    0.033942
    50  H    0.048108
    51  H    0.042023
    52  H    0.040873
    53  H    0.041742
    54  H    0.042526
    55  H    0.057884
    56  H    0.038123
    57  H    0.037979
    58  H    0.060536
    59  H    0.052930
    60  H    0.039065
    61  H    0.045948
    62  H    0.075425
    63  H    0.019752
    64  H    0.023024
    65  H    0.050122
    66  H    0.040571
    67  H    0.051598
    68  H    0.036077
    69  H    0.028666
    70  H    0.022175
    71  H    0.034934
    72  H    0.039550
    73  H    0.074345
    74  H    0.055790
    75  H    0.035966
    76  H    0.056657
    77  H    0.046832
    78  H    0.068345
    79  H    0.073698
    80  Mg   0.942958
    81  C    0.041635
    82  C   -0.129211
    83  C   -0.076221
    84  C   -0.077263
    85  N   -0.336207
    86  C   -0.017659
    87  C   -0.079513
    88  C   -0.155282
    89  C    0.135848
    90  C    0.022056
    91  C    0.093515
    92  C   -0.136522
    93  H    0.009033
    94  N   -0.446368
    95  C    0.165923
    96  C   -0.153312
    97  C   -0.107830
    98  C    0.165002
    99  C    0.056726
   100  C    0.032418
   101  O   -0.217408
   102  C    0.006339
   103  N   -0.392284
   104  C    0.060510
   105  C   -0.103430
   106  C   -0.058530
   107  C    0.088716
   108  C    0.029706
   109  C   -0.034563
   110  C   -0.028620
   111  N   -0.416643
   112  C    0.095876
   113  C   -0.195768
   114  C   -0.011688
   115  C    0.104969
   116  C    0.075060
   117  C    0.122560
   118  O   -0.234907
   119  C   -0.139082
   120  C    0.281201
   121  O   -0.275123
   122  O   -0.340438
   123  C    0.131700
   124  H   -0.010060
   125  H    0.029223
   126  H   -0.008276
   127  H    0.017203
   128  H    0.025380
   129  H    0.050743
   130  H    0.035142
   131  H    0.035640
   132  H    0.016159
   133  H    0.073584
   134  H    0.051846
   135  H    0.043265
   136  H    0.051670
   137  H    0.037593
   138  H    0.072647
   139  H    0.062081
   140  H    0.066209
   141  H    0.055566
   142  H    0.043033
   143  H    0.031503
   144  H    0.039713
   145  H    0.045863
   146  H    0.038569
   147  H    0.026804
   148  H    0.028182
   149  H    0.044938
   150  H    0.030311
   151  H    0.041858
   152  H    0.063112
   153  H    0.057595
   154  H    0.033408
   155  H    0.090036
   156  H    0.070059
   157  H    0.052431
   158  H    0.059093
 Sum of Mulliken charges =  -0.00000

 Dipole moment (field-independent basis, Debye):
    X=              2.7094    Y=              0.5781    Z=              0.5505  Tot=              2.8246
 Quadrupole moment (field-independent basis, Debye-Ang):
   XX=           -708.0294   YY=           -481.3661   ZZ=           -512.5374
   XY=             50.6246   XZ=            148.4340   YZ=             18.3435

 Normal termination of Gaussian 16 at Sat Sep 18 20:15:48 2021.
