 Gaussian 16, Revision A.03,
 Gaussian 16:  ES64L-G16RevA.03 25-Dec-2016

 --------------------------------
 #p wB97XD/Def2SVP td=(nstates=5)
 --------------------------------

 --------------------------------
 TDDFT excited states in gaussian
 --------------------------------
 Symbolic Z-matrix:
 Charge =  0 Multiplicity = 1

                         Standard orientation:
 ---------------------------------------------------------------------
 Center     Atomic      Atomic             Coordinates (Angstroms)
 Number     Number       Type             X           Y           Z
 ---------------------------------------------------------------------
      1         12           0      -21.362232    0.215220   -0.717971
      2          6           0      -18.109553   -1.277469   -0.042022
      3          6           0      -22.742357   -2.861439   -0.070669
      4          6           0      -24.205618    1.755480    0.133596
      5          6           0      -19.812831    3.147014   -1.459778
      6          7           0      -20.490797   -1.799513    0.074786
      7          6           0      -19.108243   -2.187600    0.200728
      8          6           0      -19.023494   -3.700522    0.421329
      9          6           0      -20.438292   -4.227621    0.040071
     10          6           0      -21.334844   -2.913491   -0.016042
     11          6           0      -20.480844   -4.993347   -1.366180
     12          6           0      -18.448273   -4.173821    1.724201
     13          6           0      -18.370887   -3.152779    2.883758
     14          1           0      -17.888353   -3.423810    4.320475
     15          7           0      -23.289290   -0.479241   -0.183597
     16          6           0      -23.638543   -1.790934    0.050211
     17          6           0      -25.112368   -1.840640    0.303357
     18          6           0      -25.469568   -0.504857    0.468468
     19          6           0      -24.320590    0.356241    0.198401
     20          6           0      -25.819182   -3.141071    0.453211
     21          6           0      -26.885604   -0.018617    0.894009
     22          8           0      -27.713738   -0.863804    1.183731
     23          6           0      -27.260692    1.408830    1.117915
     24          7           0      -21.821392    2.208166   -0.538095
     25          6           0      -23.149914    2.558920   -0.300607
     26          6           0      -23.359618    4.062766   -0.477688
     27          6           0      -22.073650    4.497034   -1.270131
     28          6           0      -21.214687    3.238346   -1.129342
     29          6           0      -24.657632    4.552403   -1.169861
     30          6           0      -21.369990    5.802217   -0.777764
     31          6           0      -21.540477    7.084015   -1.714912
     32          7           0      -19.368276    0.844501   -0.840159
     33          6           0      -18.896113    2.084124   -1.246319
     34          6           0      -17.464144    2.013899   -1.403476
     35          6           0      -17.161199    0.755457   -0.866154
     36          6           0      -18.375203    0.089613   -0.565945
     37          6           0      -16.597436    3.194976   -1.873470
     38          6           0      -16.110609   -0.174018   -0.584114
     39          8           0      -14.899858    0.018481   -0.815279
     40          6           0      -16.655123   -1.610635   -0.163649
     41          6           0      -15.927429   -1.927615    1.081386
     42          8           0      -15.792300   -1.192900    2.065480
     43          8           0      -15.546234   -3.224855    0.984770
     44          6           0      -14.622810   -3.725957    2.050542
     45          1           0      -23.180479   -3.836020    0.152380
     46          1           0      -25.145467    2.243312    0.401329
     47          1           0      -19.350673    4.067362   -1.821834
     48          1           0      -18.332877   -3.918773   -0.393273
     49          1           0      -20.910510   -4.796910    0.840905
     50          1           0      -20.699656   -6.021532   -1.080721
     51          1           0      -19.530159   -4.856799   -1.882155
     52          1           0      -21.328626   -4.567562   -1.904082
     53          1           0      -17.486131   -4.624441    1.481314
     54          1           0      -19.132499   -4.988840    1.962536
     55          1           0      -19.382291   -2.753370    2.965202
     56          1           0      -17.703973   -2.336342    2.605985
     57          1           0      -26.113082   -3.200775    1.500735
     58          1           0      -25.130108   -3.936199    0.170125
     59          1           0      -26.655452   -3.180016   -0.245694
     60          1           0      -26.778111    1.946354    1.933290
     61          1           0      -28.300717    1.527410    1.420450
     62          1           0      -27.107839    1.811246    0.116614
     63          1           0      -23.349193    4.323149    0.581338
     64          1           0      -22.404952    4.567593   -2.306400
     65          1           0      -25.419714    4.898397   -0.470826
     66          1           0      -25.121879    3.722194   -1.701101
     67          1           0      -24.371677    5.313084   -1.897108
     68          1           0      -20.301560    5.691902   -0.590227
     69          1           0      -21.796877    5.970749    0.210984
     70          1           0      -21.748018    7.866981   -0.985966
     71          1           0      -22.345413    7.015736   -2.446858
     72          1           0      -20.625939    7.166299   -2.301156
     73          1           0      -15.681167    2.921114   -2.396959
     74          1           0      -16.334706    3.644981   -0.916708
     75          1           0      -17.127188    3.772588   -2.630668
     76          1           0      -16.458895   -2.318745   -0.970085
     77          1           0      -14.398041   -4.776948    1.865616
     78          1           0      -15.083375   -3.656602    3.036204
     79          1           0      -13.759349   -3.074530    1.923245
     80         12           0       20.656730    0.739069   -0.110729
     81          6           0       20.903957   -2.710545   -0.222881
     82          6           0       17.561003    0.441660    1.403133
     83          6           0       20.821772    4.024301    0.647456
     84          6           0       23.960179    0.810132   -1.343539
     85          7           0       19.504133   -0.963948    0.777829
     86          6           0       19.741182   -2.228016    0.416222
     87          6           0       18.689143   -3.176897    1.069311
     88          6           0       17.486994   -2.154987    1.343141
     89          6           0       18.189074   -0.765524    1.093895
     90          6           0       16.225112   -2.469677    0.504015
     91          6           0       19.215151   -3.729206    2.374564
     92          6           0       18.904561   -5.194238    2.638805
     93          1           0       18.556070   -5.747524    4.071829
     94          7           0       19.234541    2.073890    0.757824
     95          6           0       18.078179    1.783951    1.378729
     96          6           0       17.493109    3.017065    1.795007
     97          6           0       18.340250    4.106747    1.429182
     98          6           0       19.530344    3.447179    0.877736
     99          6           0       16.108512    3.081502    2.325155
    100          6           0       18.078093    5.525844    1.789536
    101          8           0       17.037531    5.835082    2.345886
    102          6           0       19.053076    6.637105    1.419284
    103          7           0       22.225756    2.272080   -0.418193
    104          6           0       22.010565    3.524905    0.072091
    105          6           0       23.271878    4.325523    0.045537
    106          6           0       24.283167    3.262905   -0.597503
    107          6           0       23.472443    2.024832   -0.890219
    108          6           0       23.165271    5.674978   -0.689110
    109          6           0       25.596765    2.950406    0.247330
    110          6           0       26.994307    3.044300   -0.408931
    111          7           0       22.118014   -0.606423   -0.689554
    112          6           0       23.355076   -0.432843   -1.226023
    113          6           0       23.798325   -1.623366   -1.803707
    114          6           0       22.864330   -2.595234   -1.472730
    115          6           0       21.905252   -1.946178   -0.736338
    116          6           0       25.161008   -1.795168   -2.536759
    117          6           0       22.508619   -3.931502   -1.588137
    118          8           0       23.166611   -4.850135   -2.063860
    119          6           0       21.176841   -4.169448   -0.725670
    120          6           0       20.080333   -4.556004   -1.538168
    121          8           0       19.362488   -3.896248   -2.293494
    122          8           0       19.907233   -5.919899   -1.323493
    123          6           0       18.857146   -6.653642   -2.008906
    124          1           0       16.524063    0.361474    1.735275
    125          1           0       21.018595    5.084019    0.825327
    126          1           0       24.942827    0.958366   -1.796420
    127          1           0       18.484553   -3.982565    0.364774
    128          1           0       17.210023   -2.066369    2.393133
    129          1           0       16.404630   -3.271793   -0.211594
    130          1           0       15.903826   -1.569523   -0.020976
    131          1           0       15.424983   -2.721918    1.199529
    132          1           0       18.960925   -3.193216    3.289221
    133          1           0       20.284912   -3.522722    2.342214
    134          1           0       19.726013   -5.764987    2.206052
    135          1           0       18.042501   -5.344525    1.988930
    136          1           0       15.531443    3.374063    1.448142
    137          1           0       16.023679    3.803881    3.137214
    138          1           0       15.751840    2.126975    2.712298
    139          1           0       19.843971    6.594798    2.168301
    140          1           0       18.527823    7.568541    1.629146
    141          1           0       19.409837    6.514247    0.396757
    142          1           0       23.430317    4.459817    1.115079
    143          1           0       24.734134    3.643128   -1.514123
    144          1           0       23.163468    6.437817    0.090163
    145          1           0       22.282465    5.744147   -1.325535
    146          1           0       24.063916    5.832711   -1.284985
    147          1           0       25.522575    1.931131    0.626102
    148          1           0       25.722507    3.620464    1.098093
    149          1           0       27.091768    2.019809   -0.767892
    150          1           0       27.756905    3.224254    0.347696
    151          1           0       27.129969    3.607597   -1.332087
    152          1           0       25.954373   -1.801871   -1.790437
    153          1           0       25.450656   -0.986249   -3.207752
    154          1           0       25.193127   -2.738543   -3.082543
    155          1           0       21.448666   -4.894872    0.041279
    156          1           0       19.221719   -7.670567   -2.150699
    157          1           0       18.480263   -6.185090   -2.918426
    158          1           0       18.029694   -6.769524   -1.308767
 ---------------------------------------------------------------------

 SCF Done:  E(RwB97XD) =  -4070.55439466     A.U. after   19 cycles

 Excitation energies and oscillator strengths:

 Excited State   1:      Singlet-A      1.6103 eV  769.92 nm  f=0.3644  <S**2>=0.000
     310 -> 316       -0.16144
     312 -> 314        0.68836
     310 <- 316       -0.10996
 This state for optimization and/or second-order correction.
 Total Energy, E(TD-HF/TD-DFT) =  -4070.49521556
 Copying the excited state density for this state as the 1-particle RhoCI density.

 Excited State   2:      Singlet-A      1.6376 eV  757.12 nm  f=0.3962  <S**2>=0.000
     309 -> 315        0.19094
     311 -> 313        0.68236
     309 <- 315        0.11964

 Excited State   3:      Singlet-A      2.1722 eV  570.77 nm  f=0.0972  <S**2>=0.000
     309 -> 313        0.63454
     311 -> 315       -0.29669

 Excited State   4:      Singlet-A      2.2276 eV  556.57 nm  f=0.0763  <S**2>=0.000
     310 -> 314        0.61811
     312 -> 316        0.32524

 Excited State   5:      Singlet-A      3.2594 eV  380.39 nm  f=0.0048  <S**2>=0.000
     306 -> 313        0.67181
     311 -> 315        0.12879

 The electronic state is 1-A.
 Alpha  occ. eigenvalues --  -46.96009 -46.95641 -19.30554 -19.29860 -19.25111
 Alpha  occ. eigenvalues --  -19.24340 -19.24300 -19.24136 -19.23344 -19.22085
 Alpha  occ. eigenvalues --  -14.47061 -14.46901 -14.46592 -14.46189 -14.44399
 Alpha  occ. eigenvalues --  -14.44357 -14.43792 -14.43258 -10.43430 -10.42953
 Alpha  occ. eigenvalues --  -10.39518 -10.39233 -10.38552 -10.37516 -10.36054
 Alpha  occ. eigenvalues --  -10.35854 -10.35738 -10.35543 -10.35418 -10.35367
 Alpha  occ. eigenvalues --  -10.35290 -10.35131 -10.35001 -10.34957 -10.34942
 Alpha  occ. eigenvalues --  -10.34867 -10.34518 -10.33784 -10.33410 -10.33055
 Alpha  occ. eigenvalues --  -10.32944 -10.32798 -10.32780 -10.32739 -10.32549
 Alpha  occ. eigenvalues --  -10.32467 -10.32453 -10.32442 -10.32389 -10.32372
 Alpha  occ. eigenvalues --  -10.32328 -10.32219 -10.32203 -10.31956 -10.31894
 Alpha  occ. eigenvalues --  -10.31887 -10.31872 -10.31867 -10.31846 -10.31676
 Alpha  occ. eigenvalues --  -10.31661 -10.31543 -10.31410 -10.31384 -10.31269
 Alpha  occ. eigenvalues --  -10.31217 -10.31102 -10.31053 -10.30815 -10.30787
 Alpha  occ. eigenvalues --  -10.30720 -10.30710 -10.30697 -10.30683 -10.30423
 Alpha  occ. eigenvalues --  -10.30228 -10.30210 -10.29963 -10.29884 -10.29881
 Alpha  occ. eigenvalues --  -10.29857 -10.29708 -10.29671 -10.28845 -10.28799
 Alpha  occ. eigenvalues --  -10.27935  -3.21798  -3.21583  -1.95395  -1.95141
 Alpha  occ. eigenvalues --   -1.94910  -1.94756  -1.94726  -1.94532  -1.18219
 Alpha  occ. eigenvalues --   -1.17887  -1.12946  -1.12263  -1.12170  -1.09691
 Alpha  occ. eigenvalues --   -1.09627  -1.08845  -1.07540  -1.06820  -1.06065
 Alpha  occ. eigenvalues --   -1.06023  -1.05851  -1.04917  -1.04646  -1.02344
 Alpha  occ. eigenvalues --   -0.95881  -0.93871  -0.91387  -0.91253  -0.90983
 Alpha  occ. eigenvalues --   -0.90875  -0.90492  -0.90245  -0.89812  -0.88828
 Alpha  occ. eigenvalues --   -0.88792  -0.88637  -0.88150  -0.87989  -0.87350
 Alpha  occ. eigenvalues --   -0.86512  -0.86284  -0.85589  -0.84929  -0.84659
 Alpha  occ. eigenvalues --   -0.84250  -0.84140  -0.83433  -0.82906  -0.82726
 Alpha  occ. eigenvalues --   -0.82105  -0.80114  -0.80016  -0.79649  -0.79534
 Alpha  occ. eigenvalues --   -0.78483  -0.78411  -0.78404  -0.77912  -0.77182
 Alpha  occ. eigenvalues --   -0.77104  -0.75481  -0.74992  -0.74363  -0.73678
 Alpha  occ. eigenvalues --   -0.71816  -0.71552  -0.71182  -0.70958  -0.70073
 Alpha  occ. eigenvalues --   -0.69556  -0.69333  -0.68912  -0.68133  -0.68076
 Alpha  occ. eigenvalues --   -0.67824  -0.67470  -0.67367  -0.66844  -0.66674
 Alpha  occ. eigenvalues --   -0.65507  -0.64688  -0.64102  -0.62465  -0.61903
 Alpha  occ. eigenvalues --   -0.61658  -0.61109  -0.61077  -0.61043  -0.61020
 Alpha  occ. eigenvalues --   -0.60148  -0.59984  -0.59926  -0.59517  -0.59181
 Alpha  occ. eigenvalues --   -0.58754  -0.58315  -0.58151  -0.58084  -0.57441
 Alpha  occ. eigenvalues --   -0.57091  -0.56770  -0.56519  -0.56296  -0.56172
 Alpha  occ. eigenvalues --   -0.55621  -0.55492  -0.55433  -0.55311  -0.54737
 Alpha  occ. eigenvalues --   -0.54568  -0.54511  -0.54237  -0.54236  -0.54028
 Alpha  occ. eigenvalues --   -0.53985  -0.53787  -0.53728  -0.53425  -0.53369
 Alpha  occ. eigenvalues --   -0.53195  -0.53136  -0.52978  -0.52570  -0.52278
 Alpha  occ. eigenvalues --   -0.52060  -0.51908  -0.51887  -0.51538  -0.51525
 Alpha  occ. eigenvalues --   -0.51500  -0.51400  -0.50954  -0.50903  -0.50830
 Alpha  occ. eigenvalues --   -0.50707  -0.50308  -0.50253  -0.50179  -0.50062
 Alpha  occ. eigenvalues --   -0.49689  -0.49554  -0.49418  -0.49111  -0.48850
 Alpha  occ. eigenvalues --   -0.48815  -0.48775  -0.48687  -0.48625  -0.48512
 Alpha  occ. eigenvalues --   -0.48469  -0.48139  -0.48056  -0.47874  -0.47737
 Alpha  occ. eigenvalues --   -0.47653  -0.47406  -0.47399  -0.47237  -0.47107
 Alpha  occ. eigenvalues --   -0.47070  -0.46882  -0.46640  -0.46467  -0.46321
 Alpha  occ. eigenvalues --   -0.45926  -0.45836  -0.45813  -0.45536  -0.45393
 Alpha  occ. eigenvalues --   -0.45356  -0.45302  -0.45062  -0.44861  -0.44807
 Alpha  occ. eigenvalues --   -0.44645  -0.44479  -0.44226  -0.44123  -0.44053
 Alpha  occ. eigenvalues --   -0.43985  -0.43901  -0.43834  -0.43779  -0.43671
 Alpha  occ. eigenvalues --   -0.43310  -0.42951  -0.42897  -0.42773  -0.42184
 Alpha  occ. eigenvalues --   -0.41815  -0.41606  -0.41239  -0.40986  -0.40439
 Alpha  occ. eigenvalues --   -0.40275  -0.40125  -0.39887  -0.39386  -0.39348
 Alpha  occ. eigenvalues --   -0.39229  -0.39220  -0.38556  -0.38278  -0.38260
 Alpha  occ. eigenvalues --   -0.37790  -0.37564  -0.36811  -0.36476  -0.36306
 Alpha  occ. eigenvalues --   -0.35806  -0.35742  -0.34914  -0.34014  -0.33738
 Alpha  occ. eigenvalues --   -0.33249  -0.33160  -0.32654  -0.32601  -0.32314
 Alpha  occ. eigenvalues --   -0.31623  -0.31536  -0.31140  -0.26461  -0.26390
 Alpha  occ. eigenvalues --   -0.23327  -0.22571
 Alpha virt. eigenvalues --   -0.07529  -0.06913  -0.00354   0.00137   0.01915
 Alpha virt. eigenvalues --    0.03154   0.04468   0.04480   0.04647   0.05699
 Alpha virt. eigenvalues --    0.06245   0.07088   0.07207   0.07781   0.08151

 Mulliken charges:
               1
     1  Mg   0.954090
     2  C   -0.033180
     3  C   -0.082984
     4  C   -0.079720
     5  C   -0.082991
     6  N   -0.368458
     7  C   -0.053270
     8  C   -0.005169
     9  C   -0.142378
    10  C    0.044550
    11  C    0.037076
    12  C    0.030948
    13  C   -0.102303
    14  H    0.037274
    15  N   -0.470998
    16  C    0.144976
    17  C   -0.159922
    18  C   -0.079510
    19  C    0.169647
    20  C    0.104838
    21  C    0.036115
    22  O   -0.227590
    23  C    0.002045
    24  N   -0.386231
    25  C    0.091588
    26  C   -0.126902
    27  C   -0.015427
    28  C    0.025717
    29  C    0.031665
    30  C   -0.022295
    31  C   -0.061808
    32  N   -0.378141
    33  C    0.092492
    34  C   -0.180541
    35  C   -0.010853
    36  C    0.118992
    37  C    0.073291
    38  C    0.083854
    39  O   -0.250525
    40  C   -0.041203
    41  C    0.265038
    42  O   -0.260755
    43  O   -0.368531
    44  C    0.138617
    45  H    0.004113
    46  H   -0.041809
    47  H   -0.008974
    48  H    0.025778
    49  H    0.039993
    50  H    0.048677
    51  H    0.050479
    52  H    0.040817
    53  H    0.031449
    54  H    0.017623
    55  H    0.047100
    56  H    0.072089
    57  H    0.073532
    58  H    0.022194
    59  H    0.060921
    60  H    0.076679
    61  H    0.048870
    62  H    0.056606
    63  H    0.052208
    64  H    0.031506
    65  H    0.041498
    66  H    0.036522
    67  H    0.042377
    68  H    0.044482
    69  H    0.024544
    70  H    0.051170
    71  H    0.034936
    72  H    0.047448
    73  H    0.051632
    74  H    0.071767
    75  H    0.038744
    76  H    0.074318
    77  H    0.059698
    78  H    0.067143
    79  H    0.072745
    80  Mg   0.939054
    81  C   -0.063687
    82  C   -0.088129
    83  C   -0.039686
    84  C   -0.124252
    85  N   -0.332210
    86  C    0.013238
    87  C   -0.124725
    88  C   -0.102964
    89  C    0.083794
    90  C    0.035796
    91  C    0.029683
    92  C   -0.116597
    93  H    0.044719
    94  N   -0.455949
    95  C    0.158348
    96  C   -0.182152
    97  C   -0.057299
    98  C    0.198316
    99  C    0.076188
   100  C    0.004806
   101  O   -0.235982
   102  C    0.002776
   103  N   -0.354094
   104  C   -0.009463
   105  C   -0.086559
   106  C   -0.051272
   107  C    0.062319
   108  C    0.022930
   109  C   -0.053249
   110  C   -0.067787
   111  N   -0.433926
   112  C    0.194380
   113  C   -0.187434
   114  C    0.053560
   115  C    0.162273
   116  C    0.075225
   117  C    0.056264
   118  O   -0.207061
   119  C   -0.077434
   120  C    0.295405
   121  O   -0.257326
   122  O   -0.388888
   123  C    0.139775
   124  H   -0.000007
   125  H   -0.030107
   126  H   -0.003648
   127  H    0.037089
   128  H    0.045736
   129  H    0.048953
   130  H    0.034044
   131  H    0.036099
   132  H    0.037202
   133  H    0.027133
   134  H    0.055772
   135  H    0.044499
   136  H    0.060763
   137  H    0.065632
   138  H    0.024450
   139  H    0.059353
   140  H    0.052037
   141  H    0.063654
   142  H    0.053031
   143  H    0.024079
   144  H    0.042377
   145  H    0.053166
   146  H    0.040413
   147  H    0.043625
   148  H    0.030900
   149  H    0.022315
   150  H    0.047969
   151  H    0.040132
   152  H    0.047444
   153  H    0.037811
   154  H    0.062207
   155  H    0.083003
   156  H    0.056829
   157  H    0.068869
   158  H    0.036452
 Sum of Mulliken charges =  -0.00000

 Dipole moment (field-independent basis, Debye):
    X=             -1.9630    Y=              1.9043    Z=             -2.2608  Tot=              3.5484
 Quadrupole moment (field-independent basis, Debye-Ang):
   XX=           -310.2414   YY=           -470.1074   ZZ=           -519.1713
   XY=             39.3861   XZ=             74.7545   YZ=            -21.9008

 Normal termination of Gaussian 16 at Sat Sep 18 14:40:35 2021.
