 Gaussian 16, Revision A.03,
 Gaussian 16:  ES64L-G16RevA.03 25-Dec-2016

 --------------------------------
 #p wB97XD/Def2SVP td=(nstates=5)
 --------------------------------

 --------------------------------
 TDDFT excited states in gaussian
 --------------------------------
 Symbolic Z-matrix:
 Charge =  0 Multiplicity = 1

                         Standard orientation:
 ---------------------------------------------------------------------
 Center     Atomic      Atomic             Coordinates (Angstroms)
 Number     Number       Type             X           Y           Z
 ---------------------------------------------------------------------
      1         12           0       16.293461   -0.524505    0.453625
      2          6           0       15.162476    2.287479   -1.361176
      3          6           0       17.640279    1.450440    2.725214
      4          6           0       18.055250   -3.230776    1.569433
      5          6           0       15.677010   -2.460141   -2.636439
      6          7           0       16.414216    1.645252    0.587633
      7          6           0       15.698806    2.558094   -0.100985
      8          6           0       15.748931    3.906020    0.644773
      9          6           0       16.490777    3.638403    1.914965
     10          6           0       16.931228    2.152333    1.749880
     11          6           0       17.597566    4.727578    2.224797
     12          6           0       14.412092    4.692463    0.856268
     13          6           0       14.123293    5.546885    2.164155
     14          1           0       13.510826    6.946062    2.004132
     15          7           0       17.465172   -0.868078    2.099864
     16          6           0       17.917783    0.119756    2.945079
     17          6           0       18.664493   -0.513657    3.994510
     18          6           0       18.860060   -1.916639    3.688115
     19          6           0       18.163110   -2.043844    2.389193
     20          6           0       19.221606    0.338846    5.061567
     21          6           0       19.540281   -3.045228    4.501763
     22          8           0       19.634053   -4.136987    4.045946
     23          6           0       19.857212   -2.847840    5.948396
     24          7           0       16.826516   -2.543038   -0.472700
     25          6           0       17.447803   -3.446695    0.318009
     26          6           0       17.588345   -4.837853   -0.378704
     27          6           0       16.800728   -4.626772   -1.707842
     28          6           0       16.407398   -3.129888   -1.649212
     29          6           0       18.998697   -5.306316   -0.620124
     30          6           0       15.542547   -5.525400   -1.973248
     31          6           0       14.262108   -5.209694   -1.276910
     32          7           0       15.571371   -0.280919   -1.597302
     33          6           0       15.347496   -1.137579   -2.636770
     34          6           0       14.672582   -0.432773   -3.699220
     35          6           0       14.562717    0.919925   -3.282282
     36          6           0       15.170046    0.963996   -2.010893
     37          6           0       14.328915   -0.939877   -5.055285
     38          6           0       14.134432    2.241231   -3.643009
     39          8           0       13.555542    2.701184   -4.620556
     40          6           0       14.457036    3.181699   -2.396491
     41          6           0       15.193206    4.452356   -2.786367
     42          8           0       16.306233    4.469526   -3.245079
     43          8           0       14.400439    5.548675   -2.486248
     44          6           0       15.012463    6.824059   -2.860651
     45          1           0       17.939211    2.002484    3.619147
     46          1           0       18.599372   -4.064045    2.018333
     47          1           0       15.396861   -3.051696   -3.510421
     48          1           0       16.314682    4.470875   -0.096162
     49          1           0       15.783595    3.756072    2.736492
     50          1           0       17.508398    5.546560    1.511249
     51          1           0       18.557301    4.213996    2.281073
     52          1           0       17.397922    5.236846    3.167789
     53          1           0       13.608774    3.957566    0.798740
     54          1           0       14.206074    5.372586    0.029360
     55          1           0       15.093594    5.620108    2.655740
     56          1           0       13.474793    4.972334    2.825657
     57          1           0       20.186861   -0.101035    5.311333
     58          1           0       18.572342    0.227339    5.929162
     59          1           0       19.369204    1.410532    4.927103
     60          1           0       20.881260   -2.478651    5.910711
     61          1           0       19.668132   -3.778669    6.483972
     62          1           0       19.304083   -2.046051    6.438057
     63          1           0       17.022607   -5.611233    0.141227
     64          1           0       17.332712   -4.647515   -2.658464
     65          1           0       19.721708   -4.685036   -0.089979
     66          1           0       19.279876   -5.243982   -1.671720
     67          1           0       19.032150   -6.330939   -0.250646
     68          1           0       15.776849   -6.562635   -1.733534
     69          1           0       15.414252   -5.599786   -3.053350
     70          1           0       14.467137   -4.638827   -0.371069
     71          1           0       13.621119   -6.001758   -0.889139
     72          1           0       13.658371   -4.693310   -2.023876
     73          1           0       15.178524   -1.282623   -5.645165
     74          1           0       14.085158   -0.051989   -5.639206
     75          1           0       13.529892   -1.680978   -5.020678
     76          1           0       13.490464    3.424659   -1.954660
     77          1           0       15.119548    7.085277   -1.808302
     78          1           0       14.202629    7.349857   -3.365871
     79          1           0       15.933703    6.707838   -3.431944
     80         12           0      -15.929249   -0.781709   -0.026847
     81          6           0      -17.963694    2.167557    0.493961
     82          6           0      -13.666413    1.235038   -1.144742
     83          6           0      -14.350202   -3.600000   -0.679835
     84          6           0      -18.851871   -2.880668    0.485302
     85          7           0      -15.814653    1.508300   -0.170065
     86          6           0      -16.714793    2.525341    0.071232
     87          6           0      -16.117696    3.838972   -0.284749
     88          6           0      -14.959784    3.462627   -1.244556
     89          6           0      -14.808464    1.966394   -0.882087
     90          6           0      -15.292152    3.634520   -2.742981
     91          6           0      -15.526615    4.510744    0.992073
     92          6           0      -15.818048    6.050653    1.174707
     93          1           0      -15.690794    6.715540    2.602908
     94          7           0      -14.124026   -1.107254   -0.804782
     95          6           0      -13.269069   -0.168179   -1.111174
     96          6           0      -12.019052   -0.800131   -1.489029
     97          6           0      -12.225783   -2.173561   -1.219513
     98          6           0      -13.620602   -2.332386   -0.908857
     99          6           0      -10.791029    0.043547   -1.876551
    100          6           0      -11.196074   -3.264958   -1.312027
    101          8           0      -11.500131   -4.398589   -1.088883
    102          6           0       -9.772498   -2.903021   -1.584637
    103          7           0      -16.664457   -2.970046   -0.351455
    104          6           0      -15.691860   -3.873140   -0.456859
    105          6           0      -16.178294   -5.249702   -0.198870
    106          6           0      -17.706860   -4.986991   -0.017552
    107          6           0      -17.805365   -3.485668    0.046074
    108          6           0      -15.791595   -6.371901   -1.228132
    109          6           0      -18.265303   -5.731222    1.257657
    110          6           0      -19.143853   -7.001588    1.085151
    111          7           0      -17.908247   -0.526232    0.379961
    112          6           0      -18.973073   -1.416816    0.642746
    113          6           0      -20.181027   -0.645282    1.001403
    114          6           0      -19.803962    0.690522    0.965553
    115          6           0      -18.482608    0.749942    0.556172
    116          6           0      -21.594483   -1.243264    1.203012
    117          6           0      -20.348912    2.068443    1.187661
    118          8           0      -21.415492    2.497659    1.559606
    119          6           0      -19.209675    3.105024    0.718216
    120          6           0      -19.064426    4.177223    1.632931
    121          8           0      -18.245661    4.142608    2.562160
    122          8           0      -19.918389    5.263146    1.467047
    123          6           0      -19.679852    6.501092    2.270823
    124          1           0      -12.805395    1.803017   -1.501472
    125          1           0      -13.809196   -4.535867   -0.833869
    126          1           0      -19.736504   -3.497329    0.651472
    127          1           0      -16.829179    4.424202   -0.867916
    128          1           0      -14.023355    4.004380   -1.112928
    129          1           0      -14.612791    4.351439   -3.205022
    130          1           0      -16.316984    4.000276   -2.799358
    131          1           0      -15.272987    2.710928   -3.322207
    132          1           0      -14.448898    4.373977    0.901204
    133          1           0      -15.883212    3.914674    1.831852
    134          1           0      -16.810102    6.247087    0.768987
    135          1           0      -15.076061    6.501964    0.514942
    136          1           0      -10.019787   -0.104863   -1.119619
    137          1           0      -10.973238    1.105163   -2.039939
    138          1           0      -10.313083   -0.375348   -2.761636
    139          1           0       -9.344290   -2.276999   -0.802238
    140          1           0       -9.583183   -2.274719   -2.454909
    141          1           0       -9.174686   -3.814803   -1.585664
    142          1           0      -15.775018   -5.564629    0.763578
    143          1           0      -18.229083   -5.256918   -0.935698
    144          1           0      -15.097957   -5.912548   -1.931610
    145          1           0      -16.607089   -6.907947   -1.714930
    146          1           0      -15.285856   -7.172022   -0.687374
    147          1           0      -18.894717   -5.041277    1.820382
    148          1           0      -17.411177   -5.795918    1.931726
    149          1           0      -18.809262   -7.778700    1.772159
    150          1           0      -19.090233   -7.342279    0.051011
    151          1           0      -20.183591   -6.786630    1.334708
    152          1           0      -21.474026   -2.241739    1.622356
    153          1           0      -22.058622   -1.396190    0.228420
    154          1           0      -22.213071   -0.624286    1.853284
    155          1           0      -19.500654    3.501519   -0.254080
    156          1           0      -18.714215    6.946724    2.027812
    157          1           0      -19.932366    6.351867    3.319932
    158          1           0      -20.326562    7.270383    1.849043
 ---------------------------------------------------------------------

 SCF Done:  E(RwB97XD) =  -4070.56487981     A.U. after   19 cycles

 Excitation energies and oscillator strengths:

 Excited State   1:      Singlet-A      1.6418 eV  755.19 nm  f=0.3875  <S**2>=0.000
     309 -> 315        0.19296
     312 -> 314        0.68148
     309 <- 315        0.11999
 This state for optimization and/or second-order correction.
 Total Energy, E(TD-HF/TD-DFT) =  -4070.50454617
 Copying the excited state density for this state as the 1-particle RhoCI density.

 Excited State   2:      Singlet-A      1.6950 eV  731.46 nm  f=0.3782  <S**2>=0.000
     310 -> 316       -0.16829
     311 -> 313        0.68650
     310 <- 316       -0.11044

 Excited State   3:      Singlet-A      2.1227 eV  584.08 nm  f=0.2094  <S**2>=0.000
     310 -> 313        0.67152
     311 -> 316        0.20531

 Excited State   4:      Singlet-A      2.1321 eV  581.52 nm  f=0.1163  <S**2>=0.000
     309 -> 314        0.63978
     312 -> 315       -0.28518

 Excited State   5:      Singlet-A      3.3487 eV  370.25 nm  f=0.0010  <S**2>=0.000
     306 -> 314       -0.21950
     308 -> 314        0.64986

 The electronic state is 1-A.
 Alpha  occ. eigenvalues --  -46.96376 -46.95784 -19.30032 -19.29193 -19.25002
 Alpha  occ. eigenvalues --  -19.24641 -19.24627 -19.24316 -19.23729 -19.23455
 Alpha  occ. eigenvalues --  -14.46843 -14.46420 -14.46388 -14.44734 -14.44420
 Alpha  occ. eigenvalues --  -14.44369 -14.44154 -14.43436 -10.43013 -10.42326
 Alpha  occ. eigenvalues --  -10.39935 -10.39730 -10.39125 -10.38862 -10.35726
 Alpha  occ. eigenvalues --  -10.35372 -10.35295 -10.35189 -10.35097 -10.35044
 Alpha  occ. eigenvalues --  -10.35013 -10.34789 -10.34740 -10.34394 -10.34076
 Alpha  occ. eigenvalues --  -10.34027 -10.33832 -10.33660 -10.33585 -10.33530
 Alpha  occ. eigenvalues --  -10.33357 -10.33075 -10.32963 -10.32875 -10.32850
 Alpha  occ. eigenvalues --  -10.32600 -10.32365 -10.32267 -10.32244 -10.32132
 Alpha  occ. eigenvalues --  -10.32130 -10.32113 -10.31975 -10.31927 -10.31900
 Alpha  occ. eigenvalues --  -10.31744 -10.31716 -10.31445 -10.31359 -10.31316
 Alpha  occ. eigenvalues --  -10.31301 -10.31300 -10.31008 -10.30858 -10.30810
 Alpha  occ. eigenvalues --  -10.30799 -10.30564 -10.30491 -10.30471 -10.30464
 Alpha  occ. eigenvalues --  -10.30394 -10.30302 -10.30271 -10.30164 -10.30093
 Alpha  occ. eigenvalues --  -10.30021 -10.29882 -10.29600 -10.29550 -10.29398
 Alpha  occ. eigenvalues --  -10.29351 -10.29314 -10.29083 -10.28986 -10.28959
 Alpha  occ. eigenvalues --  -10.28820  -3.22170  -3.21763  -1.95723  -1.95337
 Alpha  occ. eigenvalues --   -1.95293  -1.95119  -1.94894  -1.94723  -1.18505
 Alpha  occ. eigenvalues --   -1.16324  -1.15167  -1.14427  -1.13046  -1.11491
 Alpha  occ. eigenvalues --   -1.10791  -1.08532  -1.07829  -1.06975  -1.06918
 Alpha  occ. eigenvalues --   -1.06262  -1.05179  -1.04560  -1.03918  -1.02964
 Alpha  occ. eigenvalues --   -0.93620  -0.93191  -0.91208  -0.91147  -0.90817
 Alpha  occ. eigenvalues --   -0.90781  -0.90233  -0.89883  -0.89771  -0.89622
 Alpha  occ. eigenvalues --   -0.89349  -0.89158  -0.88079  -0.87128  -0.86276
 Alpha  occ. eigenvalues --   -0.85923  -0.85640  -0.84946  -0.84492  -0.84076
 Alpha  occ. eigenvalues --   -0.83950  -0.83917  -0.82877  -0.82828  -0.82411
 Alpha  occ. eigenvalues --   -0.82378  -0.80773  -0.80308  -0.79106  -0.79056
 Alpha  occ. eigenvalues --   -0.79039  -0.78606  -0.78131  -0.77852  -0.77386
 Alpha  occ. eigenvalues --   -0.76642  -0.74728  -0.74364  -0.73476  -0.73090
 Alpha  occ. eigenvalues --   -0.71772  -0.71235  -0.71208  -0.70721  -0.70255
 Alpha  occ. eigenvalues --   -0.69972  -0.69282  -0.68977  -0.68056  -0.67536
 Alpha  occ. eigenvalues --   -0.66982  -0.66974  -0.66272  -0.66239  -0.66135
 Alpha  occ. eigenvalues --   -0.66050  -0.63735  -0.63493  -0.63051  -0.62086
 Alpha  occ. eigenvalues --   -0.62071  -0.61554  -0.61060  -0.60848  -0.60363
 Alpha  occ. eigenvalues --   -0.60033  -0.60024  -0.59530  -0.59430  -0.59173
 Alpha  occ. eigenvalues --   -0.58575  -0.58094  -0.57890  -0.57639  -0.57481
 Alpha  occ. eigenvalues --   -0.57377  -0.57036  -0.56574  -0.56042  -0.55920
 Alpha  occ. eigenvalues --   -0.55833  -0.55714  -0.55368  -0.55336  -0.55019
 Alpha  occ. eigenvalues --   -0.54755  -0.54598  -0.54379  -0.54337  -0.53932
 Alpha  occ. eigenvalues --   -0.53776  -0.53721  -0.53225  -0.53185  -0.52920
 Alpha  occ. eigenvalues --   -0.52805  -0.52564  -0.52532  -0.52276  -0.52185
 Alpha  occ. eigenvalues --   -0.52073  -0.51999  -0.51800  -0.51639  -0.51537
 Alpha  occ. eigenvalues --   -0.51476  -0.51173  -0.51149  -0.50980  -0.50757
 Alpha  occ. eigenvalues --   -0.50710  -0.50651  -0.50567  -0.50336  -0.50236
 Alpha  occ. eigenvalues --   -0.49943  -0.49699  -0.49688  -0.49469  -0.49353
 Alpha  occ. eigenvalues --   -0.49221  -0.49114  -0.48772  -0.48376  -0.48145
 Alpha  occ. eigenvalues --   -0.48013  -0.47800  -0.47712  -0.47505  -0.47459
 Alpha  occ. eigenvalues --   -0.47413  -0.47307  -0.46879  -0.46734  -0.46602
 Alpha  occ. eigenvalues --   -0.46553  -0.46524  -0.46430  -0.46292  -0.46053
 Alpha  occ. eigenvalues --   -0.45943  -0.45689  -0.45617  -0.45426  -0.45276
 Alpha  occ. eigenvalues --   -0.45266  -0.45020  -0.44952  -0.44909  -0.44729
 Alpha  occ. eigenvalues --   -0.44664  -0.44564  -0.44377  -0.44161  -0.44009
 Alpha  occ. eigenvalues --   -0.43815  -0.43777  -0.43466  -0.43205  -0.42913
 Alpha  occ. eigenvalues --   -0.42852  -0.42556  -0.42528  -0.42272  -0.42095
 Alpha  occ. eigenvalues --   -0.42065  -0.41788  -0.41765  -0.41146  -0.40887
 Alpha  occ. eigenvalues --   -0.40259  -0.40087  -0.39891  -0.39569  -0.39381
 Alpha  occ. eigenvalues --   -0.39101  -0.39043  -0.38471  -0.38172  -0.37967
 Alpha  occ. eigenvalues --   -0.37721  -0.37712  -0.36645  -0.35606  -0.35559
 Alpha  occ. eigenvalues --   -0.35417  -0.35041  -0.34763  -0.33976  -0.33794
 Alpha  occ. eigenvalues --   -0.33622  -0.33281  -0.33077  -0.32766  -0.32679
 Alpha  occ. eigenvalues --   -0.32059  -0.31796  -0.31553  -0.25783  -0.25467
 Alpha  occ. eigenvalues --   -0.23467  -0.22896
 Alpha virt. eigenvalues --   -0.07425  -0.07046   0.00248   0.01572   0.02424
 Alpha virt. eigenvalues --    0.03040   0.04199   0.04592   0.04710   0.05482
 Alpha virt. eigenvalues --    0.06731   0.06960   0.07722   0.07748   0.08453

 Mulliken charges:
               1
     1  Mg   0.948194
     2  C   -0.025663
     3  C   -0.065458
     4  C   -0.063864
     5  C   -0.102257
     6  N   -0.370823
     7  C   -0.015787
     8  C   -0.028337
     9  C   -0.134676
    10  C    0.098525
    11  C    0.020680
    12  C   -0.030046
    13  C   -0.123665
    14  H    0.053471
    15  N   -0.508397
    16  C    0.144463
    17  C   -0.142122
    18  C   -0.082428
    19  C    0.113104
    20  C    0.033096
    21  C    0.056550
    22  O   -0.199089
    23  C   -0.017970
    24  N   -0.306651
    25  C    0.065664
    26  C   -0.068836
    27  C   -0.047944
    28  C    0.007231
    29  C    0.036403
    30  C   -0.047602
    31  C   -0.031071
    32  N   -0.393450
    33  C    0.166296
    34  C   -0.185019
    35  C   -0.031422
    36  C    0.105963
    37  C    0.061933
    38  C    0.130849
    39  O   -0.210364
    40  C   -0.060552
    41  C    0.252735
    42  O   -0.228589
    43  O   -0.379481
    44  C    0.117898
    45  H   -0.017267
    46  H    0.026273
    47  H   -0.005204
    48  H    0.048828
    49  H    0.042221
    50  H    0.042693
    51  H    0.050164
    52  H    0.032151
    53  H    0.030126
    54  H    0.046326
    55  H    0.034972
    56  H    0.055811
    57  H    0.037230
    58  H    0.055400
    59  H    0.058297
    60  H    0.064592
    61  H    0.073716
    62  H    0.037407
    63  H    0.039951
    64  H    0.035251
    65  H    0.044200
    66  H    0.034884
    67  H    0.041367
    68  H    0.023767
    69  H    0.022416
    70  H    0.035751
    71  H    0.033342
    72  H    0.037132
    73  H    0.045490
    74  H    0.051313
    75  H    0.052557
    76  H    0.070792
    77  H    0.051514
    78  H    0.068707
    79  H    0.086338
    80  Mg   0.973887
    81  C   -0.021054
    82  C   -0.054258
    83  C   -0.053565
    84  C   -0.109986
    85  N   -0.302046
    86  C   -0.007144
    87  C   -0.073301
    88  C   -0.132748
    89  C    0.070405
    90  C    0.036884
    91  C    0.034113
    92  C   -0.096370
    93  H    0.049802
    94  N   -0.460684
    95  C    0.091573
    96  C   -0.147256
    97  C   -0.078523
    98  C    0.134346
    99  C    0.062785
   100  C    0.051680
   101  O   -0.201420
   102  C   -0.020142
   103  N   -0.271118
   104  C    0.014729
   105  C   -0.095360
   106  C   -0.044708
   107  C    0.058053
   108  C    0.023246
   109  C   -0.029537
   110  C   -0.028120
   111  N   -0.485612
   112  C    0.125915
   113  C   -0.223685
   114  C   -0.055390
   115  C    0.152329
   116  C    0.077625
   117  C    0.163238
   118  O   -0.174825
   119  C   -0.083172
   120  C    0.267169
   121  O   -0.273077
   122  O   -0.389997
   123  C    0.157553
   124  H   -0.025678
   125  H    0.021037
   126  H   -0.000238
   127  H    0.020606
   128  H    0.035048
   129  H    0.041989
   130  H    0.027862
   131  H    0.045302
   132  H    0.025018
   133  H    0.073810
   134  H    0.043933
   135  H    0.037106
   136  H    0.048623
   137  H    0.053778
   138  H    0.042245
   139  H    0.049700
   140  H    0.042917
   141  H    0.056084
   142  H    0.045834
   143  H    0.031669
   144  H    0.049350
   145  H    0.037549
   146  H    0.031987
   147  H    0.020879
   148  H    0.014696
   149  H    0.040115
   150  H    0.034921
   151  H    0.038235
   152  H    0.028638
   153  H    0.052707
   154  H    0.061888
   155  H    0.080233
   156  H    0.043700
   157  H    0.073769
   158  H    0.042450
 Sum of Mulliken charges =  -0.00000

 Dipole moment (field-independent basis, Debye):
    X=              4.2338    Y=              0.4165    Z=              2.5225  Tot=              4.9458
 Quadrupole moment (field-independent basis, Debye-Ang):
   XX=           -660.6896   YY=           -469.9932   ZZ=           -512.9906
   XY=             19.6985   XZ=            134.6756   YZ=             14.1174

 Normal termination of Gaussian 16 at Sun Sep 19 02:06:26 2021.
