 Gaussian 16, Revision A.03,
 Gaussian 16:  ES64L-G16RevA.03 25-Dec-2016

 --------------------------------
 #p wB97XD/Def2SVP td=(nstates=5)
 --------------------------------

 --------------------------------
 TDDFT excited states in gaussian
 --------------------------------
 Symbolic Z-matrix:
 Charge =  0 Multiplicity = 1

                         Standard orientation:
 ---------------------------------------------------------------------
 Center     Atomic      Atomic             Coordinates (Angstroms)
 Number     Number       Type             X           Y           Z
 ---------------------------------------------------------------------
      1         12           0       25.734265   -0.679627    0.474989
      2          6           0       25.912747    2.151305   -1.431814
      3          6           0       25.601679    1.119451    3.276425
      4          6           0       25.801746   -3.491612    2.121418
      5          6           0       26.484703   -2.473054   -2.512153
      6          7           0       25.928107    1.438737    0.905142
      7          6           0       25.719953    2.383847   -0.045361
      8          6           0       25.309223    3.701087    0.553682
      9          6           0       25.501598    3.399308    2.094044
     10          6           0       25.776648    1.911361    2.117199
     11          6           0       26.573252    4.269153    2.793965
     12          6           0       23.823552    4.231695    0.075534
     13          6           0       23.675509    5.693487   -0.373347
     14          1           0       24.726179    6.710356    0.173432
     15          7           0       25.536797   -1.112540    2.336368
     16          6           0       25.497286   -0.272077    3.403026
     17          6           0       25.502025   -0.960548    4.670786
     18          6           0       25.353588   -2.276404    4.351357
     19          6           0       25.685834   -2.339185    2.894131
     20          6           0       25.684035   -0.115371    5.918230
     21          6           0       25.135954   -3.480208    5.289499
     22          8           0       25.075951   -4.628409    4.915661
     23          6           0       25.038576   -3.110022    6.740036
     24          7           0       26.271225   -2.679433   -0.131573
     25          6           0       26.077480   -3.658075    0.770806
     26          6           0       26.254036   -5.037384    0.128092
     27          6           0       26.155543   -4.723997   -1.403527
     28          6           0       26.341532   -3.193079   -1.372691
     29          6           0       27.538053   -5.890137    0.509984
     30          6           0       24.787548   -5.071996   -2.102535
     31          6           0       23.472998   -4.484194   -1.661300
     32          7           0       26.048408   -0.346413   -1.603849
     33          6           0       26.431969   -1.133688   -2.694365
     34          6           0       26.578898   -0.331512   -3.915553
     35          6           0       26.372223    0.980955   -3.465049
     36          6           0       26.057373    0.878073   -2.073471
     37          6           0       26.827523   -0.807946   -5.323644
     38          6           0       26.342452    2.323311   -3.828954
     39          8           0       26.570332    2.909741   -4.875505
     40          6           0       25.817433    3.116995   -2.604627
     41          6           0       26.761581    4.255697   -2.533656
     42          8           0       27.895192    4.215921   -2.049333
     43          8           0       26.264598    5.349345   -3.181457
     44          6           0       27.154978    6.474207   -3.484803
     45          1           0       25.365341    1.733078    4.148498
     46          1           0       25.779958   -4.473620    2.596983
     47          1           0       26.667997   -3.150827   -3.349403
     48          1           0       26.046404    4.471899    0.328667
     49          1           0       24.543366    3.522730    2.598214
     50          1           0       27.473159    3.671280    2.937722
     51          1           0       26.195748    4.558530    3.774718
     52          1           0       26.764451    5.114901    2.133361
     53          1           0       23.179051    4.054856    0.936694
     54          1           0       23.472715    3.659886   -0.782982
     55          1           0       22.741248    6.109553    0.002739
     56          1           0       23.591584    5.738907   -1.459096
     57          1           0       26.623395    0.435107    5.972297
     58          1           0       25.815625   -0.587699    6.891541
     59          1           0       24.773991    0.484067    5.893035
     60          1           0       24.246222   -2.378793    6.898213
     61          1           0       26.060256   -2.799736    6.958130
     62          1           0       24.745631   -3.874240    7.459049
     63          1           0       25.397507   -5.577450    0.533132
     64          1           0       27.027699   -5.147087   -1.902457
     65          1           0       28.139658   -5.336246    1.230261
     66          1           0       28.206200   -5.985500   -0.345106
     67          1           0       27.359041   -6.902801    0.874527
     68          1           0       24.798048   -6.155733   -1.983540
     69          1           0       24.799297   -4.841476   -3.167339
     70          1           0       23.611927   -3.943896   -0.723971
     71          1           0       22.749461   -5.274222   -1.460750
     72          1           0       23.027173   -3.740493   -2.321490
     73          1           0       27.838349   -0.588234   -5.664369
     74          1           0       26.103353   -0.352828   -5.999541
     75          1           0       26.761672   -1.892076   -5.228489
     76          1           0       24.768701    3.392398   -2.717557
     77          1           0       26.813111    7.049426   -4.346050
     78          1           0       28.201002    6.172320   -3.506309
     79          1           0       27.212568    7.193662   -2.668203
     80         12           0      -25.606556   -0.530894   -0.644879
     81          6           0      -26.753085    1.856588    1.657396
     82          6           0      -24.899461    1.851124   -2.869179
     83          6           0      -24.669316   -2.881706   -2.662027
     84          6           0      -27.345904   -2.958220    1.397530
     85          7           0      -25.923098    1.599785   -0.597010
     86          6           0      -26.224893    2.389636    0.441194
     87          6           0      -26.263047    3.844530    0.050474
     88          6           0      -26.066032    3.779833   -1.517251
     89          6           0      -25.589123    2.350179   -1.685304
     90          6           0      -27.282296    4.126490   -2.435990
     91          6           0      -25.033738    4.643546    0.724123
     92          6           0      -25.462787    5.982213    1.409423
     93          1           0      -24.272081    6.589312    2.331398
     94          7           0      -24.679201   -0.504122   -2.353236
     95          6           0      -24.415871    0.598162   -3.148463
     96          6           0      -23.518675    0.198763   -4.197549
     97          6           0      -23.363636   -1.247777   -4.187073
     98          6           0      -24.161927   -1.634296   -2.961233
     99          6           0      -23.034730    1.266971   -5.219834
    100          6           0      -22.621562   -2.273890   -5.035798
    101          8           0      -22.535008   -3.494582   -4.810671
    102          6           0      -21.871401   -1.650151   -6.158975
    103          7           0      -26.129792   -2.570110   -0.647093
    104          6           0      -25.560641   -3.298130   -1.662620
    105          6           0      -26.036848   -4.750776   -1.627732
    106          6           0      -26.612815   -4.847708   -0.190628
    107          6           0      -26.774073   -3.380280    0.211066
    108          6           0      -26.996443   -5.034517   -2.850767
    109          6           0      -25.742187   -5.663752    0.856582
    110          6           0      -26.488106   -6.260756    2.060656
    111          7           0      -26.783087   -0.599464    1.183049
    112          6           0      -27.381288   -1.634474    1.835667
    113          6           0      -27.942281   -1.203341    3.096504
    114          6           0      -27.637009    0.169874    3.073841
    115          6           0      -26.994004    0.505273    1.873732
    116          6           0      -28.684465   -1.967613    4.216879
    117          6           0      -27.748778    1.370771    3.853792
    118          8           0      -28.065826    1.590571    4.993422
    119          6           0      -27.310426    2.561201    2.852606
    120          6           0      -26.471124    3.368988    3.741499
    121          8           0      -25.261701    3.212979    4.046466
    122          8           0      -27.282749    4.338666    4.197399
    123          6           0      -26.740098    5.303035    5.155301
    124          1           0      -24.580834    2.629282   -3.566098
    125          1           0      -24.290993   -3.683755   -3.299553
    126          1           0      -27.771645   -3.746852    2.021436
    127          1           0      -27.165159    4.381132    0.345642
    128          1           0      -25.249134    4.377400   -1.922281
    129          1           0      -27.606612    3.203871   -2.917303
    130          1           0      -26.885334    4.816547   -3.180327
    131          1           0      -28.176723    4.550936   -1.981324
    132          1           0      -24.182932    4.845548    0.072340
    133          1           0      -24.564490    3.945444    1.417436
    134          1           0      -26.336388    5.825252    2.041768
    135          1           0      -25.674525    6.805623    0.727743
    136          1           0      -22.112803    1.702331   -4.836795
    137          1           0      -23.642148    2.172840   -5.227349
    138          1           0      -23.065192    0.994162   -6.274444
    139          1           0      -21.098801   -0.945460   -5.853442
    140          1           0      -22.674979   -1.200026   -6.743132
    141          1           0      -21.399786   -2.372610   -6.825708
    142          1           0      -25.134654   -5.349457   -1.753840
    143          1           0      -27.569063   -5.369795   -0.222745
    144          1           0      -28.027387   -5.122620   -2.508228
    145          1           0      -26.836448   -5.934670   -3.443689
    146          1           0      -27.097637   -4.239098   -3.589417
    147          1           0      -25.112498   -4.889464    1.295678
    148          1           0      -25.114902   -6.468917    0.473453
    149          1           0      -26.185672   -5.798948    3.001428
    150          1           0      -26.426175   -7.333284    2.246044
    151          1           0      -27.523615   -5.945579    1.940167
    152          1           0      -29.124627   -2.840862    3.735426
    153          1           0      -29.453705   -1.344246    4.674631
    154          1           0      -27.920980   -2.283103    4.927897
    155          1           0      -28.185662    3.152640    2.583210
    156          1           0      -26.660003    6.271373    4.661639
    157          1           0      -25.830200    4.942294    5.633756
    158          1           0      -27.486405    5.464662    5.933021
 ---------------------------------------------------------------------

 SCF Done:  E(RwB97XD) =  -4070.59478502     A.U. after   19 cycles

 Excitation energies and oscillator strengths:

 Excited State   1:      Singlet-A      1.6707 eV  742.10 nm  f=0.3746  <S**2>=0.000
     309 -> 315       -0.20302
     311 -> 313        0.67878
     309 <- 315       -0.12002
 This state for optimization and/or second-order correction.
 Total Energy, E(TD-HF/TD-DFT) =  -4070.53338726
 Copying the excited state density for this state as the 1-particle RhoCI density.

 Excited State   2:      Singlet-A      1.7218 eV  720.09 nm  f=0.3763  <S**2>=0.000
     310 -> 316       -0.19589
     312 -> 314        0.67980
     310 <- 316       -0.11419

 Excited State   3:      Singlet-A      2.1931 eV  565.35 nm  f=0.0609  <S**2>=0.000
     309 -> 313        0.61588
     311 -> 315        0.33611

 Excited State   4:      Singlet-A      2.2243 eV  557.42 nm  f=0.0565  <S**2>=0.000
     310 -> 314        0.61467
     312 -> 316        0.33871

 Excited State   5:      Singlet-A      3.4187 eV  362.66 nm  f=0.4032  <S**2>=0.000
     305 -> 313        0.13474
     308 -> 313       -0.33983
     309 -> 313       -0.25500
     311 -> 315        0.52609

 The electronic state is 1-A.
 Alpha  occ. eigenvalues --  -46.94304 -46.93936 -19.30096 -19.29119 -19.24985
 Alpha  occ. eigenvalues --  -19.24748 -19.24082 -19.23416 -19.23273 -19.22680
 Alpha  occ. eigenvalues --  -14.47196 -14.46325 -14.46280 -14.45633 -14.44642
 Alpha  occ. eigenvalues --  -14.44107 -14.43321 -14.43011 -10.42437 -10.42091
 Alpha  occ. eigenvalues --  -10.40003 -10.39955 -10.38675 -10.37516 -10.35772
 Alpha  occ. eigenvalues --  -10.35212 -10.34937 -10.34837 -10.34754 -10.34683
 Alpha  occ. eigenvalues --  -10.34618 -10.34449 -10.34383 -10.34291 -10.34268
 Alpha  occ. eigenvalues --  -10.34265 -10.34234 -10.34165 -10.33473 -10.33237
 Alpha  occ. eigenvalues --  -10.33114 -10.32991 -10.32901 -10.32806 -10.32705
 Alpha  occ. eigenvalues --  -10.32663 -10.32429 -10.32011 -10.32005 -10.31991
 Alpha  occ. eigenvalues --  -10.31906 -10.31898 -10.31887 -10.31808 -10.31788
 Alpha  occ. eigenvalues --  -10.31769 -10.31742 -10.31719 -10.31694 -10.31666
 Alpha  occ. eigenvalues --  -10.31643 -10.31600 -10.31532 -10.31384 -10.31354
 Alpha  occ. eigenvalues --  -10.31348 -10.30778 -10.30573 -10.30534 -10.30412
 Alpha  occ. eigenvalues --  -10.30368 -10.30368 -10.30275 -10.30184 -10.29947
 Alpha  occ. eigenvalues --  -10.29903 -10.29902 -10.29881 -10.29741 -10.29736
 Alpha  occ. eigenvalues --  -10.29616 -10.29201 -10.29008 -10.29004 -10.28493
 Alpha  occ. eigenvalues --  -10.28052  -3.20562  -3.20179  -1.94124  -1.93761
 Alpha  occ. eigenvalues --   -1.93708  -1.93573  -1.93323  -1.93169  -1.18130
 Alpha  occ. eigenvalues --   -1.16998  -1.13777  -1.13017  -1.11644  -1.11208
 Alpha  occ. eigenvalues --   -1.08092  -1.07733  -1.07640  -1.07213  -1.06752
 Alpha  occ. eigenvalues --   -1.06325  -1.06106  -1.05626  -1.05009  -1.04483
 Alpha  occ. eigenvalues --   -0.94706  -0.94307  -0.91604  -0.91071  -0.90350
 Alpha  occ. eigenvalues --   -0.90137  -0.89909  -0.89889  -0.89850  -0.89389
 Alpha  occ. eigenvalues --   -0.89388  -0.88945  -0.88481  -0.88228  -0.86466
 Alpha  occ. eigenvalues --   -0.86286  -0.85745  -0.85471  -0.84634  -0.84494
 Alpha  occ. eigenvalues --   -0.84404  -0.84181  -0.83245  -0.82988  -0.82481
 Alpha  occ. eigenvalues --   -0.82257  -0.81007  -0.80200  -0.79374  -0.79249
 Alpha  occ. eigenvalues --   -0.78891  -0.78840  -0.77863  -0.77626  -0.77333
 Alpha  occ. eigenvalues --   -0.77135  -0.74787  -0.74612  -0.74128  -0.73663
 Alpha  occ. eigenvalues --   -0.71556  -0.71236  -0.71008  -0.70730  -0.70121
 Alpha  occ. eigenvalues --   -0.69862  -0.69313  -0.69212  -0.68002  -0.67476
 Alpha  occ. eigenvalues --   -0.67342  -0.66903  -0.66893  -0.66746  -0.66451
 Alpha  occ. eigenvalues --   -0.65744  -0.63768  -0.63693  -0.63157  -0.62276
 Alpha  occ. eigenvalues --   -0.61806  -0.61287  -0.61263  -0.61158  -0.60632
 Alpha  occ. eigenvalues --   -0.60001  -0.59874  -0.59789  -0.59526  -0.59122
 Alpha  occ. eigenvalues --   -0.58336  -0.58324  -0.57861  -0.57455  -0.57231
 Alpha  occ. eigenvalues --   -0.57087  -0.56583  -0.56396  -0.56299  -0.55855
 Alpha  occ. eigenvalues --   -0.55591  -0.55393  -0.55190  -0.55116  -0.54770
 Alpha  occ. eigenvalues --   -0.54590  -0.54558  -0.54504  -0.54333  -0.54173
 Alpha  occ. eigenvalues --   -0.54162  -0.53599  -0.53536  -0.53351  -0.53191
 Alpha  occ. eigenvalues --   -0.52992  -0.52693  -0.52531  -0.52415  -0.52324
 Alpha  occ. eigenvalues --   -0.52136  -0.52131  -0.51962  -0.51489  -0.51372
 Alpha  occ. eigenvalues --   -0.51253  -0.51029  -0.51006  -0.50854  -0.50715
 Alpha  occ. eigenvalues --   -0.50482  -0.50413  -0.50097  -0.50012  -0.49943
 Alpha  occ. eigenvalues --   -0.49936  -0.49712  -0.49328  -0.49202  -0.49092
 Alpha  occ. eigenvalues --   -0.48825  -0.48741  -0.48574  -0.48428  -0.48424
 Alpha  occ. eigenvalues --   -0.48271  -0.47855  -0.47662  -0.47616  -0.47469
 Alpha  occ. eigenvalues --   -0.47396  -0.47140  -0.47079  -0.46864  -0.46764
 Alpha  occ. eigenvalues --   -0.46449  -0.46071  -0.45974  -0.45801  -0.45761
 Alpha  occ. eigenvalues --   -0.45701  -0.45516  -0.45504  -0.45428  -0.45067
 Alpha  occ. eigenvalues --   -0.45025  -0.44837  -0.44824  -0.44795  -0.44793
 Alpha  occ. eigenvalues --   -0.44605  -0.44370  -0.44174  -0.44063  -0.44039
 Alpha  occ. eigenvalues --   -0.43888  -0.43778  -0.43506  -0.43269  -0.43165
 Alpha  occ. eigenvalues --   -0.43151  -0.42979  -0.42719  -0.42688  -0.42475
 Alpha  occ. eigenvalues --   -0.42447  -0.42214  -0.41515  -0.41489  -0.41110
 Alpha  occ. eigenvalues --   -0.40738  -0.40376  -0.40092  -0.39782  -0.39475
 Alpha  occ. eigenvalues --   -0.39025  -0.38959  -0.38417  -0.38303  -0.37527
 Alpha  occ. eigenvalues --   -0.37232  -0.37138  -0.36338  -0.36167  -0.35987
 Alpha  occ. eigenvalues --   -0.35435  -0.34971  -0.34945  -0.34635  -0.33735
 Alpha  occ. eigenvalues --   -0.33516  -0.33405  -0.32927  -0.32632  -0.32476
 Alpha  occ. eigenvalues --   -0.32060  -0.31858  -0.31786  -0.26131  -0.25759
 Alpha  occ. eigenvalues --   -0.22945  -0.22427
 Alpha virt. eigenvalues --   -0.06800  -0.06163  -0.00409   0.00157   0.01738
 Alpha virt. eigenvalues --    0.02301   0.04548   0.04585   0.05876   0.06204
 Alpha virt. eigenvalues --    0.07358   0.07572   0.07587   0.08230   0.08492

 Mulliken charges:
               1
     1  Mg   0.993148
     2  C    0.010950
     3  C   -0.117758
     4  C   -0.080889
     5  C   -0.117003
     6  N   -0.330608
     7  C   -0.016910
     8  C   -0.037115
     9  C   -0.154007
    10  C    0.076279
    11  C    0.047330
    12  C    0.007308
    13  C   -0.126104
    14  H    0.026424
    15  N   -0.509711
    16  C    0.180137
    17  C   -0.131385
    18  C   -0.119675
    19  C    0.182714
    20  C    0.046372
    21  C    0.071695
    22  O   -0.201865
    23  C   -0.025266
    24  N   -0.321294
    25  C    0.020885
    26  C   -0.086105
    27  C   -0.050131
    28  C   -0.008288
    29  C    0.024217
    30  C   -0.010767
    31  C   -0.046776
    32  N   -0.398964
    33  C    0.159968
    34  C   -0.187033
    35  C    0.034833
    36  C    0.091552
    37  C    0.104718
    38  C    0.050711
    39  O   -0.214288
    40  C   -0.075008
    41  C    0.264779
    42  O   -0.268211
    43  O   -0.355874
    44  C    0.151812
    45  H   -0.008481
    46  H    0.016520
    47  H   -0.010533
    48  H    0.043094
    49  H    0.031881
    50  H    0.045737
    51  H    0.038583
    52  H    0.045933
    53  H    0.033222
    54  H    0.041160
    55  H    0.049115
    56  H    0.062515
    57  H    0.060497
    58  H    0.029671
    59  H    0.066533
    60  H    0.061521
    61  H    0.069420
    62  H    0.048056
    63  H    0.035068
    64  H    0.029209
    65  H    0.038300
    66  H    0.025925
    67  H    0.050245
    68  H    0.032280
    69  H    0.032295
    70  H    0.028544
    71  H    0.041168
    72  H    0.043822
    73  H    0.059449
    74  H    0.063940
    75  H    0.019688
    76  H    0.072683
    77  H    0.061554
    78  H    0.057172
    79  H    0.029417
    80  Mg   0.994311
    81  C    0.048541
    82  C   -0.082934
    83  C   -0.068833
    84  C   -0.108831
    85  N   -0.341443
    86  C    0.045908
    87  C   -0.121697
    88  C   -0.075818
    89  C    0.029445
    90  C    0.026883
    91  C    0.023978
    92  C   -0.140433
    93  H    0.018686
    94  N   -0.559134
    95  C    0.189745
    96  C   -0.126470
    97  C   -0.130502
    98  C    0.181280
    99  C    0.043778
   100  C    0.089168
   101  O   -0.240709
   102  C   -0.020790
   103  N   -0.364156
   104  C    0.073212
   105  C   -0.083726
   106  C   -0.059584
   107  C    0.063300
   108  C    0.017217
   109  C   -0.011423
   110  C   -0.064789
   111  N   -0.360365
   112  C    0.130626
   113  C   -0.202651
   114  C   -0.017965
   115  C    0.092098
   116  C    0.097832
   117  C    0.101690
   118  O   -0.185106
   119  C   -0.133242
   120  C    0.263484
   121  O   -0.285042
   122  O   -0.350104
   123  C    0.138313
   124  H   -0.014463
   125  H    0.026628
   126  H   -0.019355
   127  H    0.037179
   128  H    0.028909
   129  H    0.042211
   130  H    0.037582
   131  H    0.043001
   132  H    0.031545
   133  H    0.058182
   134  H    0.053300
   135  H    0.056610
   136  H    0.054080
   137  H    0.028153
   138  H    0.054170
   139  H    0.074583
   140  H    0.050217
   141  H    0.047497
   142  H    0.043281
   143  H    0.027341
   144  H    0.021190
   145  H    0.043995
   146  H    0.041027
   147  H    0.036394
   148  H    0.043297
   149  H    0.035191
   150  H    0.044635
   151  H    0.027550
   152  H    0.034208
   153  H    0.066273
   154  H    0.064438
   155  H    0.073466
   156  H    0.048549
   157  H    0.075961
   158  H    0.049425
 Sum of Mulliken charges =  -0.00000

 Dipole moment (field-independent basis, Debye):
    X=             -3.9867    Y=              1.1320    Z=              0.1799  Tot=              4.1482
 Quadrupole moment (field-independent basis, Debye-Ang):
   XX=           -608.7110   YY=           -474.9703   ZZ=           -504.5022
   XY=            -56.4541   XZ=            240.6121   YZ=              3.5263

 Normal termination of Gaussian 16 at Sat Sep 18 10:24:26 2021.
