 Gaussian 16, Revision A.03,
 Gaussian 16:  ES64L-G16RevA.03 25-Dec-2016

 --------------------------------
 #p wB97XD/Def2SVP td=(nstates=5)
 --------------------------------

 --------------------------------
 TDDFT excited states in gaussian
 --------------------------------
 Symbolic Z-matrix:
 Charge =  0 Multiplicity = 1

                         Standard orientation:
 ---------------------------------------------------------------------
 Center     Atomic      Atomic             Coordinates (Angstroms)
 Number     Number       Type             X           Y           Z
 ---------------------------------------------------------------------
      1         12           0       13.371634   -0.662739    0.265712
      2          6           0       12.382063    2.282432   -1.593075
      3          6           0       15.400432    1.282804    1.858265
      4          6           0       14.327420   -3.498918    1.645968
      5          6           0       11.655821   -2.760275   -2.156264
      6          7           0       13.731799    1.605232    0.199559
      7          6           0       13.260584    2.622836   -0.603738
      8          6           0       13.915740    3.908250   -0.246866
      9          6           0       15.199282    3.465359    0.501461
     10          6           0       14.797628    2.013375    0.852758
     11          6           0       16.480254    3.488170   -0.361028
     12          6           0       13.003300    4.709218    0.731311
     13          6           0       12.851890    6.253536    0.445366
     14          1           0       11.628585    7.052953    1.047432
     15          7           0       14.727960   -1.025259    1.679556
     16          6           0       15.401333   -0.102939    2.314051
     17          6           0       16.158533   -0.743372    3.372906
     18          6           0       15.721751   -2.088892    3.350904
     19          6           0       14.909738   -2.244713    2.174635
     20          6           0       17.036112    0.083578    4.329992
     21          6           0       16.096529   -3.163903    4.332688
     22          8           0       15.686473   -4.277028    4.190667
     23          6           0       16.900262   -2.801759    5.538817
     24          7           0       13.225865   -2.885864   -0.420718
     25          6           0       13.606905   -3.775783    0.493331
     26          6           0       13.078040   -5.130954    0.207124
     27          6           0       12.371020   -4.882055   -1.162758
     28          6           0       12.397502   -3.383651   -1.310431
     29          6           0       14.082914   -6.337788    0.252154
     30          6           0       10.924115   -5.512984   -1.179815
     31          6           0       10.659154   -6.810827   -1.992734
     32          7           0       12.289939   -0.408464   -1.440884
     33          6           0       11.583993   -1.290730   -2.288997
     34          6           0       10.871304   -0.512366   -3.323057
     35          6           0       11.150888    0.821132   -3.055753
     36          6           0       12.019433    0.867241   -1.978440
     37          6           0       10.117977   -1.115973   -4.533116
     38          6           0       10.856858    2.203023   -3.554644
     39          8           0       10.155951    2.644678   -4.434322
     40          6           0       11.793448    3.212493   -2.720073
     41          6           0       11.085660    4.369070   -2.309248
     42          8           0       10.521652    4.438491   -1.208286
     43          8           0       11.014357    5.417598   -3.221117
     44          6           0       10.457008    6.730462   -2.772549
     45          1           0       16.092638    1.831119    2.499679
     46          1           0       14.592700   -4.434458    2.142611
     47          1           0       11.127647   -3.375538   -2.886293
     48          1           0       14.242891    4.421706   -1.151366
     49          1           0       15.464351    4.035256    1.391785
     50          1           0       17.215550    4.171226    0.065304
     51          1           0       16.186515    3.826938   -1.354099
     52          1           0       16.949372    2.514454   -0.504892
     53          1           0       13.471442    4.585460    1.708022
     54          1           0       12.045963    4.188475    0.736048
     55          1           0       12.880256    6.391350   -0.635175
     56          1           0       13.771902    6.654732    0.872140
     57          1           0       16.605172    0.022505    5.330165
     58          1           0       17.206730    1.121218    4.045185
     59          1           0       17.997739   -0.407822    4.475191
     60          1           0       16.382697   -2.096288    6.188317
     61          1           0       17.827163   -2.255076    5.365698
     62          1           0       17.046492   -3.697740    6.142606
     63          1           0       12.308265   -5.345475    0.948437
     64          1           0       13.008782   -5.247774   -1.967792
     65          1           0       15.026373   -5.933664    0.617653
     66          1           0       14.191833   -6.933264   -0.654979
     67          1           0       13.702265   -7.073148    0.961195
     68          1           0       10.227712   -4.785258   -1.597286
     69          1           0       10.607135   -5.496964   -0.137053
     70          1           0       10.082086   -7.512774   -1.390990
     71          1           0       11.609751   -7.246752   -2.300511
     72          1           0       10.064177   -6.593488   -2.880600
     73          1           0        9.692597   -2.067746   -4.216112
     74          1           0       10.838820   -1.369450   -5.310790
     75          1           0        9.338650   -0.450386   -4.904977
     76          1           0       12.620113    3.509453   -3.364803
     77          1           0       11.072246    7.169800   -1.986062
     78          1           0        9.379974    6.676309   -2.618519
     79          1           0       10.673214    7.443653   -3.567882
     80         12           0      -13.543282   -0.665852    0.013156
     81          6           0      -11.532259    2.288155    0.502487
     82          6           0      -16.342210    1.363724    0.599794
     83          6           0      -15.399090   -3.315933   -0.546255
     84          6           0      -10.616733   -2.562198   -0.232427
     85          7           0      -13.839949    1.619662    0.528241
     86          6           0      -12.925063    2.622384    0.459095
     87          6           0      -13.582552    3.992711    0.440219
     88          6           0      -15.135218    3.688489    0.829841
     89          6           0      -15.115170    2.140499    0.672789
     90          6           0      -15.585032    4.240573    2.205728
     91          6           0      -13.416276    4.724471   -0.934358
     92          6           0      -12.741111    6.116545   -0.829686
     93          1           0      -13.713405    7.354920   -1.274172
     94          7           0      -15.525967   -0.926948    0.018979
     95          6           0      -16.587719   -0.005084    0.310534
     96          6           0      -17.937310   -0.607801    0.201650
     97          6           0      -17.621294   -1.950273   -0.188757
     98          6           0      -16.157907   -2.101267   -0.252663
     99          6           0      -19.251326    0.123768    0.482976
    100          6           0      -18.545002   -3.088223   -0.403389
    101          8           0      -18.260190   -4.144961   -0.956511
    102          6           0      -20.027513   -2.893186   -0.029448
    103          7           0      -13.062339   -2.575223   -0.499717
    104          6           0      -14.015396   -3.522477   -0.654390
    105          6           0      -13.453251   -4.915110   -0.724340
    106          6           0      -11.918797   -4.712586   -0.674889
    107          6           0      -11.819570   -3.178846   -0.514036
    108          6           0      -14.021272   -5.880170    0.295045
    109          6           0      -11.225104   -5.203929   -2.077900
    110          6           0      -10.018525   -6.280891   -1.927599
    111          7           0      -11.479104   -0.305662    0.374557
    112          6           0      -10.406293   -1.199860    0.142754
    113          6           0       -9.156678   -0.449434    0.311468
    114          6           0       -9.585123    0.904123    0.309896
    115          6           0      -10.971619    0.926037    0.468392
    116          6           0       -7.717371   -0.949001    0.393105
    117          6           0       -9.054499    2.281014    0.518173
    118          8           0       -7.911233    2.787844    0.689963
    119          6           0      -10.328865    3.211004    0.519115
    120          6           0      -10.286309    4.073476    1.745970
    121          8           0      -10.007961    3.676127    2.841884
    122          8           0      -10.493432    5.378486    1.394556
    123          6           0      -10.132620    6.323829    2.481154
    124          1           0      -17.165180    2.005354    0.920847
    125          1           0      -15.959210   -4.233764   -0.738345
    126          1           0       -9.689110   -3.127200   -0.343183
    127          1           0      -13.135081    4.550700    1.262767
    128          1           0      -15.833674    4.049166    0.074267
    129          1           0      -15.824159    3.427089    2.891311
    130          1           0      -16.450496    4.894226    2.089523
    131          1           0      -14.883487    4.911366    2.701740
    132          1           0      -14.377048    4.888587   -1.422986
    133          1           0      -12.797387    4.149293   -1.623530
    134          1           0      -11.942527    6.260755   -1.557867
    135          1           0      -12.261513    6.329726    0.125119
    136          1           0      -19.221581    1.213817    0.485794
    137          1           0      -19.775491   -0.184074    1.387678
    138          1           0      -19.907815   -0.159003   -0.340541
    139          1           0      -20.126596   -2.693211    1.037425
    140          1           0      -20.646279   -3.738901   -0.331337
    141          1           0      -20.397815   -2.028314   -0.579853
    142          1           0      -13.777802   -5.359813   -1.666060
    143          1           0      -11.483389   -5.198945    0.197526
    144          1           0      -14.694125   -6.621933   -0.136129
    145          1           0      -14.650369   -5.426679    1.060912
    146          1           0      -13.184448   -6.360536    0.802494
    147          1           0      -10.813893   -4.391907   -2.676701
    148          1           0      -11.936306   -5.686191   -2.747989
    149          1           0      -10.163852   -6.743838   -0.951357
    150          1           0       -9.039060   -5.806170   -1.998918
    151          1           0      -10.139348   -7.112097   -2.621803
    152          1           0       -7.008701   -0.232270   -0.021387
    153          1           0       -7.631501   -1.799475   -0.284226
    154          1           0       -7.622581   -1.275214    1.428917
    155          1           0      -10.194564    3.890709   -0.321969
    156          1           0      -10.679081    6.016415    3.372563
    157          1           0      -10.574508    7.264532    2.153015
    158          1           0       -9.089883    6.412456    2.785900
 ---------------------------------------------------------------------

 SCF Done:  E(RwB97XD) =  -4070.56948613     A.U. after   19 cycles

 Excitation energies and oscillator strengths:

 Excited State   1:      Singlet-A      1.6150 eV  767.69 nm  f=0.3868  <S**2>=0.000
     309 -> 315        0.19315
     312 -> 314        0.68178
     309 <- 315        0.12121
 This state for optimization and/or second-order correction.
 Total Energy, E(TD-HF/TD-DFT) =  -4070.51013453
 Copying the excited state density for this state as the 1-particle RhoCI density.

 Excited State   2:      Singlet-A      1.6944 eV  731.73 nm  f=0.3693  <S**2>=0.000
     310 -> 316        0.16828
     311 -> 313        0.68641
     310 <- 316        0.11045

 Excited State   3:      Singlet-A      2.1190 eV  585.12 nm  f=0.0688  <S**2>=0.000
     309 -> 314        0.63264
     310 -> 313        0.13195
     312 -> 315       -0.27451

 Excited State   4:      Singlet-A      2.1226 eV  584.11 nm  f=0.2790  <S**2>=0.000
     309 -> 314       -0.12632
     310 -> 313        0.65889
     311 -> 316       -0.20149

 Excited State   5:      Singlet-A      3.3497 eV  370.14 nm  f=0.0005  <S**2>=0.000
     305 -> 319        0.10137
     306 -> 314       -0.13558
     308 -> 314        0.64966
     308 -> 317        0.13049

 The electronic state is 1-A.
 Alpha  occ. eigenvalues --  -46.95702 -46.94795 -19.30791 -19.29098 -19.24589
 Alpha  occ. eigenvalues --  -19.24541 -19.24246 -19.23954 -19.23665 -19.23360
 Alpha  occ. eigenvalues --  -14.47178 -14.46436 -14.46309 -14.45303 -14.44661
 Alpha  occ. eigenvalues --  -14.44339 -14.44294 -14.43760 -10.42578 -10.42232
 Alpha  occ. eigenvalues --  -10.39849 -10.39102 -10.39061 -10.39056 -10.35840
 Alpha  occ. eigenvalues --  -10.35617 -10.35599 -10.35555 -10.35274 -10.35229
 Alpha  occ. eigenvalues --  -10.35217 -10.35018 -10.34847 -10.34836 -10.34709
 Alpha  occ. eigenvalues --  -10.34661 -10.33999 -10.33950 -10.33910 -10.33756
 Alpha  occ. eigenvalues --  -10.33510 -10.33278 -10.33223 -10.33056 -10.32888
 Alpha  occ. eigenvalues --  -10.32874 -10.32846 -10.32771 -10.32643 -10.32470
 Alpha  occ. eigenvalues --  -10.32441 -10.32304 -10.32193 -10.32162 -10.32160
 Alpha  occ. eigenvalues --  -10.32065 -10.31959 -10.31896 -10.31826 -10.31790
 Alpha  occ. eigenvalues --  -10.31241 -10.31224 -10.31224 -10.31212 -10.31124
 Alpha  occ. eigenvalues --  -10.31097 -10.30785 -10.30650 -10.30491 -10.30399
 Alpha  occ. eigenvalues --  -10.30318 -10.30209 -10.30122 -10.30098 -10.29936
 Alpha  occ. eigenvalues --  -10.29897 -10.29852 -10.29806 -10.29661 -10.29533
 Alpha  occ. eigenvalues --  -10.29468 -10.29323 -10.29289 -10.29280 -10.29136
 Alpha  occ. eigenvalues --  -10.29003  -3.21682  -3.20871  -1.95256  -1.94813
 Alpha  occ. eigenvalues --   -1.94642  -1.94460  -1.93996  -1.93861  -1.19043
 Alpha  occ. eigenvalues --   -1.16229  -1.14358  -1.12959  -1.12153  -1.10797
 Alpha  occ. eigenvalues --   -1.09208  -1.08455  -1.07734  -1.06898  -1.06841
 Alpha  occ. eigenvalues --   -1.05914  -1.05204  -1.04561  -1.03998  -1.02885
 Alpha  occ. eigenvalues --   -0.93468  -0.93111  -0.91069  -0.90740  -0.90544
 Alpha  occ. eigenvalues --   -0.90298  -0.89934  -0.89810  -0.89698  -0.89546
 Alpha  occ. eigenvalues --   -0.89291  -0.88877  -0.87474  -0.87049  -0.86196
 Alpha  occ. eigenvalues --   -0.85875  -0.84989  -0.84869  -0.84006  -0.83843
 Alpha  occ. eigenvalues --   -0.83630  -0.83275  -0.82796  -0.82546  -0.82301
 Alpha  occ. eigenvalues --   -0.81646  -0.81019  -0.80700  -0.78953  -0.78946
 Alpha  occ. eigenvalues --   -0.78631  -0.78530  -0.78052  -0.77893  -0.77312
 Alpha  occ. eigenvalues --   -0.77101  -0.74650  -0.74478  -0.73333  -0.73014
 Alpha  occ. eigenvalues --   -0.71134  -0.71092  -0.70646  -0.70590  -0.69895
 Alpha  occ. eigenvalues --   -0.69460  -0.69200  -0.69035  -0.67978  -0.67761
 Alpha  occ. eigenvalues --   -0.67535  -0.67460  -0.66903  -0.66339  -0.66161
 Alpha  occ. eigenvalues --   -0.65947  -0.64268  -0.63419  -0.62965  -0.62774
 Alpha  occ. eigenvalues --   -0.61994  -0.61150  -0.60982  -0.60665  -0.60261
 Alpha  occ. eigenvalues --   -0.59955  -0.59850  -0.59448  -0.59093  -0.59058
 Alpha  occ. eigenvalues --   -0.58502  -0.58083  -0.57556  -0.57404  -0.57186
 Alpha  occ. eigenvalues --   -0.56872  -0.56392  -0.55839  -0.55757  -0.55651
 Alpha  occ. eigenvalues --   -0.55290  -0.55278  -0.54945  -0.54566  -0.54519
 Alpha  occ. eigenvalues --   -0.54447  -0.54292  -0.54074  -0.53851  -0.53694
 Alpha  occ. eigenvalues --   -0.53544  -0.53262  -0.53217  -0.53150  -0.52703
 Alpha  occ. eigenvalues --   -0.52461  -0.52344  -0.52111  -0.52001  -0.51902
 Alpha  occ. eigenvalues --   -0.51824  -0.51718  -0.51634  -0.51563  -0.51460
 Alpha  occ. eigenvalues --   -0.51345  -0.51101  -0.51097  -0.50682  -0.50665
 Alpha  occ. eigenvalues --   -0.50575  -0.50160  -0.50133  -0.49980  -0.49875
 Alpha  occ. eigenvalues --   -0.49871  -0.49617  -0.49469  -0.49389  -0.49344
 Alpha  occ. eigenvalues --   -0.49281  -0.48911  -0.48702  -0.48416  -0.48302
 Alpha  occ. eigenvalues --   -0.48067  -0.48057  -0.47803  -0.47636  -0.47414
 Alpha  occ. eigenvalues --   -0.47382  -0.47226  -0.46831  -0.46803  -0.46673
 Alpha  occ. eigenvalues --   -0.46656  -0.46602  -0.46448  -0.46356  -0.46271
 Alpha  occ. eigenvalues --   -0.45962  -0.45854  -0.45715  -0.45652  -0.45349
 Alpha  occ. eigenvalues --   -0.45200  -0.45198  -0.44829  -0.44698  -0.44661
 Alpha  occ. eigenvalues --   -0.44587  -0.44469  -0.44117  -0.44084  -0.43944
 Alpha  occ. eigenvalues --   -0.43702  -0.43431  -0.43185  -0.43130  -0.42838
 Alpha  occ. eigenvalues --   -0.42637  -0.42536  -0.42463  -0.42312  -0.42194
 Alpha  occ. eigenvalues --   -0.42015  -0.42001  -0.41709  -0.41688  -0.41236
 Alpha  occ. eigenvalues --   -0.40444  -0.40181  -0.40100  -0.39495  -0.39374
 Alpha  occ. eigenvalues --   -0.39259  -0.39018  -0.38451  -0.38393  -0.38090
 Alpha  occ. eigenvalues --   -0.37627  -0.37437  -0.36567  -0.36318  -0.35484
 Alpha  occ. eigenvalues --   -0.35181  -0.34956  -0.34676  -0.33902  -0.33791
 Alpha  occ. eigenvalues --   -0.33548  -0.33206  -0.32903  -0.32681  -0.32519
 Alpha  occ. eigenvalues --   -0.32405  -0.31716  -0.31426  -0.25748  -0.25389
 Alpha  occ. eigenvalues --   -0.23389  -0.23041
 Alpha virt. eigenvalues --   -0.07349  -0.07275   0.00140   0.01649   0.02243
 Alpha virt. eigenvalues --    0.03117   0.04223   0.04789   0.05570   0.06636
 Alpha virt. eigenvalues --    0.06823   0.06862   0.07794   0.07811   0.07977

 Mulliken charges:
               1
     1  Mg   0.973763
     2  C   -0.020860
     3  C   -0.054238
     4  C   -0.053473
     5  C   -0.109963
     6  N   -0.301873
     7  C   -0.007236
     8  C   -0.073276
     9  C   -0.132661
    10  C    0.070312
    11  C    0.036931
    12  C    0.034138
    13  C   -0.096435
    14  H    0.050151
    15  N   -0.460670
    16  C    0.091563
    17  C   -0.147574
    18  C   -0.078502
    19  C    0.134211
    20  C    0.063175
    21  C    0.051822
    22  O   -0.201450
    23  C   -0.020473
    24  N   -0.271181
    25  C    0.014458
    26  C   -0.095270
    27  C   -0.044835
    28  C    0.058329
    29  C    0.023251
    30  C   -0.029546
    31  C   -0.028130
    32  N   -0.485465
    33  C    0.125868
    34  C   -0.223526
    35  C   -0.055263
    36  C    0.152482
    37  C    0.077552
    38  C    0.163329
    39  O   -0.174660
    40  C   -0.083211
    41  C    0.267244
    42  O   -0.272874
    43  O   -0.390070
    44  C    0.157535
    45  H   -0.025767
    46  H    0.020984
    47  H   -0.000272
    48  H    0.020528
    49  H    0.034987
    50  H    0.041836
    51  H    0.027814
    52  H    0.045192
    53  H    0.025015
    54  H    0.073999
    55  H    0.043855
    56  H    0.036939
    57  H    0.048545
    58  H    0.053662
    59  H    0.041940
    60  H    0.049847
    61  H    0.042801
    62  H    0.056032
    63  H    0.045909
    64  H    0.031547
    65  H    0.049256
    66  H    0.037434
    67  H    0.031963
    68  H    0.021049
    69  H    0.014830
    70  H    0.040115
    71  H    0.034785
    72  H    0.038228
    73  H    0.028712
    74  H    0.052578
    75  H    0.062102
    76  H    0.080101
    77  H    0.043632
    78  H    0.074088
    79  H    0.042335
    80  Mg   0.990438
    81  C   -0.017368
    82  C   -0.078582
    83  C   -0.086450
    84  C   -0.079765
    85  N   -0.298132
    86  C   -0.019970
    87  C   -0.052846
    88  C   -0.107218
    89  C    0.010840
    90  C    0.015754
    91  C    0.042935
    92  C   -0.139054
    93  H   -0.009754
    94  N   -0.512347
    95  C    0.177290
    96  C   -0.130287
    97  C   -0.071011
    98  C    0.182017
    99  C    0.070231
   100  C    0.029616
   101  O   -0.236764
   102  C   -0.016448
   103  N   -0.420604
   104  C    0.093759
   105  C   -0.078769
   106  C   -0.074285
   107  C    0.102163
   108  C    0.012687
   109  C   -0.031829
   110  C   -0.079616
   111  N   -0.424408
   112  C    0.112329
   113  C   -0.186287
   114  C   -0.110722
   115  C    0.145496
   116  C    0.092650
   117  C    0.193708
   118  O   -0.247293
   119  C   -0.086736
   120  C    0.237125
   121  O   -0.214998
   122  O   -0.372135
   123  C    0.133801
   124  H   -0.004589
   125  H    0.020855
   126  H   -0.003219
   127  H    0.041528
   128  H    0.042872
   129  H    0.048198
   130  H    0.034539
   131  H    0.041286
   132  H    0.049033
   133  H    0.046251
   134  H    0.054849
   135  H    0.060356
   136  H    0.046991
   137  H    0.062831
   138  H    0.044764
   139  H    0.052733
   140  H    0.053569
   141  H    0.038439
   142  H    0.046211
   143  H    0.048402
   144  H    0.040174
   145  H    0.042035
   146  H    0.029088
   147  H    0.043167
   148  H    0.034618
   149  H    0.027428
   150  H    0.052109
   151  H    0.040868
   152  H    0.064293
   153  H    0.026543
   154  H    0.068686
   155  H    0.067224
   156  H    0.050031
   157  H    0.052056
   158  H    0.076622
 Sum of Mulliken charges =  -0.00000

 Dipole moment (field-independent basis, Debye):
    X=             -0.3872    Y=              0.8116    Z=              2.5859  Tot=              2.7378
 Quadrupole moment (field-independent basis, Debye-Ang):
   XX=           -273.4433   YY=           -473.7620   ZZ=           -516.2258
   XY=             -5.6665   XZ=             28.8064   YZ=             18.6103

 Normal termination of Gaussian 16 at Sun Sep 19 14:49:45 2021.
