 Gaussian 16, Revision A.03,
 Gaussian 16:  ES64L-G16RevA.03 25-Dec-2016

 --------------------------------
 #p wB97XD/Def2SVP td=(nstates=5)
 --------------------------------

 --------------------------------
 TDDFT excited states in gaussian
 --------------------------------
 Symbolic Z-matrix:
 Charge =  0 Multiplicity = 1

                         Standard orientation:
 ---------------------------------------------------------------------
 Center     Atomic      Atomic             Coordinates (Angstroms)
 Number     Number       Type             X           Y           Z
 ---------------------------------------------------------------------
      1         12           0      -28.510890    0.248817    0.310285
      2          6           0      -26.734319   -1.892736   -1.696534
      3          6           0      -28.106116    2.699144   -2.053923
      4          6           0      -30.206823    2.460342    2.374533
      5          6           0      -28.507103   -2.117474    2.844257
      6          7           0      -27.475521    0.431110   -1.672074
      7          6           0      -26.901372   -0.641562   -2.292681
      8          6           0      -26.410983   -0.280635   -3.610643
      9          6           0      -26.619032    1.221332   -3.723912
     10          6           0      -27.430391    1.527293   -2.389801
     11          6           0      -25.363939    2.146732   -3.886124
     12          6           0      -27.119797   -1.104991   -4.738718
     13          6           0      -26.269692   -1.451177   -6.009721
     14          1           0      -25.138139   -0.475199   -6.387464
     15          7           0      -29.165278    2.274960    0.096996
     16          6           0      -28.893310    3.093170   -0.986048
     17          6           0      -29.494879    4.420293   -0.744504
     18          6           0      -30.131494    4.364939    0.569822
     19          6           0      -29.877538    3.001392    1.066579
     20          6           0      -29.399861    5.599471   -1.698876
     21          6           0      -30.986978    5.424267    1.224634
     22          8           0      -31.520345    5.177064    2.320468
     23          6           0      -31.222481    6.780621    0.673363
     24          7           0      -29.190744    0.224551    2.352765
     25          6           0      -29.888242    1.218557    2.910081
     26          6           0      -30.422787    0.802441    4.290599
     27          6           0      -30.106975   -0.788742    4.386152
     28          6           0      -29.276369   -0.923480    3.061498
     29          6           0      -29.792276    1.664116    5.427676
     30          6           0      -31.349620   -1.720212    4.354421
     31          6           0      -31.650259   -2.473892    5.658633
     32          7           0      -27.722676   -1.621199    0.603598
     33          6           0      -27.782575   -2.481622    1.702286
     34          6           0      -27.074751   -3.745235    1.398957
     35          6           0      -26.648289   -3.506401    0.071210
     36          6           0      -27.054465   -2.213897   -0.355984
     37          6           0      -26.933019   -4.922912    2.231119
     38          6           0      -26.008101   -4.153079   -1.092885
     39          8           0      -25.587554   -5.267547   -1.256723
     40          6           0      -26.007471   -3.105811   -2.262888
     41          6           0      -24.627310   -2.954769   -2.750855
     42          8           0      -23.779695   -2.365848   -2.060747
     43          8           0      -24.421727   -3.375451   -4.029107
     44          6           0      -23.142534   -3.080710   -4.667032
     45          1           0      -27.960432    3.456538   -2.826969
     46          1           0      -30.706606    3.182368    3.024022
     47          1           0      -28.642576   -2.874257    3.619615
     48          1           0      -25.342422   -0.496561   -3.639649
     49          1           0      -27.361982    1.462755   -4.484963
     50          1           0      -24.353677    1.741084   -3.949196
     51          1           0      -25.366788    2.859571   -3.061895
     52          1           0      -25.431199    2.824198   -4.737727
     53          1           0      -28.057940   -0.621005   -5.010547
     54          1           0      -27.560212   -1.997907   -4.295455
     55          1           0      -26.921735   -1.554342   -6.877532
     56          1           0      -25.689876   -2.366644   -5.895878
     57          1           0      -28.950360    5.343934   -2.657815
     58          1           0      -28.767719    6.387025   -1.287721
     59          1           0      -30.396636    5.900573   -2.020681
     60          1           0      -31.946241    7.257468    1.333650
     61          1           0      -31.594441    6.775998   -0.352033
     62          1           0      -30.271986    7.307775    0.589333
     63          1           0      -31.509685    0.868162    4.239590
     64          1           0      -29.461645   -1.036531    5.228843
     65          1           0      -30.527369    2.075887    6.119312
     66          1           0      -29.244672    2.511352    5.013955
     67          1           0      -29.076671    0.990872    5.900241
     68          1           0      -31.295414   -2.484308    3.579873
     69          1           0      -32.259207   -1.175124    4.101219
     70          1           0      -31.278812   -1.896056    6.505018
     71          1           0      -31.113434   -3.421552    5.629179
     72          1           0      -32.716463   -2.696445    5.649474
     73          1           0      -26.675072   -5.814800    1.660496
     74          1           0      -27.825054   -5.147995    2.815350
     75          1           0      -26.027111   -4.798727    2.824601
     76          1           0      -26.669925   -3.596642   -2.976676
     77          1           0      -22.289763   -3.591865   -4.219430
     78          1           0      -22.985186   -2.005229   -4.748232
     79          1           0      -23.154054   -3.453961   -5.690950
     80         12           0       28.483539    0.488476   -0.584632
     81          6           0       26.074488   -2.085363    0.330120
     82          6           0       25.903050    2.748327   -0.430610
     83          6           0       30.723392    2.885384    0.063678
     84          6           0       30.882659   -1.905754   -0.825935
     85          7           0       26.257102    0.337377    0.098855
     86          6           0       25.478645   -0.848807    0.353611
     87          6           0       23.995098   -0.476654    0.426875
     88          6           0       23.924789    0.956708   -0.177587
     89          6           0       25.442850    1.434635   -0.208766
     90          6           0       23.294311    1.002762   -1.649343
     91          6           0       23.294539   -0.699522    1.735276
     92          6           0       24.174369   -0.885857    2.993953
     93          1           0       23.685384   -1.057205    4.443776
     94          7           0       28.343798    2.589387   -0.365468
     95          6           0       27.177139    3.319612   -0.311982
     96          6           0       27.539920    4.769814   -0.248607
     97          6           0       28.908744    4.762269    0.007191
     98          6           0       29.416010    3.392638   -0.029788
     99          6           0       26.492712    5.823998   -0.320852
    100          6           0       29.755879    6.034154    0.302731
    101          8           0       29.169788    7.097674    0.400233
    102          6           0       31.213728    6.026789    0.623749
    103          7           0       30.508639    0.397403   -0.259517
    104          6           0       31.212902    1.596153   -0.152704
    105          6           0       32.721173    1.351548   -0.199319
    106          6           0       32.814042   -0.106487   -0.778779
    107          6           0       31.354474   -0.551663   -0.662965
    108          6           0       33.607870    2.345934   -0.992197
    109          6           0       33.826222   -1.064469   -0.072500
    110          6           0       35.158959   -1.396514   -0.887287
    111          7           0       28.515696   -1.597172   -0.395367
    112          6           0       29.588833   -2.449434   -0.611231
    113          6           0       29.117550   -3.812468   -0.597290
    114          6           0       27.794018   -3.671505   -0.158474
    115          6           0       27.490162   -2.289928   -0.079754
    116          6           0       30.024689   -5.032419   -0.833594
    117          6           0       26.584593   -4.369228    0.154067
    118          8           0       26.432900   -5.606107    0.094629
    119          6           0       25.343310   -3.391471    0.354973
    120          6           0       24.751618   -3.811010    1.641058
    121          8           0       25.352310   -3.998473    2.704323
    122          8           0       23.408353   -3.826865    1.459773
    123          6           0       22.595485   -4.407469    2.574147
    124          1           0       25.084777    3.467718   -0.364165
    125          1           0       31.444285    3.681543    0.262223
    126          1           0       31.650939   -2.653363   -1.032190
    127          1           0       23.638250   -1.191565   -0.314557
    128          1           0       23.467092    1.680962    0.496494
    129          1           0       22.357481    1.538030   -1.499786
    130          1           0       23.182335   -0.013612   -2.027658
    131          1           0       23.980092    1.610169   -2.241059
    132          1           0       22.601177   -1.523521    1.567810
    133          1           0       22.698886    0.211441    1.802857
    134          1           0       24.843236   -0.024634    2.990752
    135          1           0       24.778869   -1.786584    2.885458
    136          1           0       26.454653    6.273768    0.670867
    137          1           0       25.551780    5.348982   -0.596888
    138          1           0       26.741403    6.525834   -1.117665
    139          1           0       31.536219    5.539405    1.543048
    140          1           0       31.608690    7.025710    0.806506
    141          1           0       31.617020    5.622551   -0.304611
    142          1           0       32.900126    1.425220    0.873989
    143          1           0       33.042564    0.035904   -1.835233
    144          1           0       34.114688    3.076205   -0.360556
    145          1           0       32.982598    2.939012   -1.658740
    146          1           0       34.297612    1.756186   -1.596969
    147          1           0       33.400051   -2.020518    0.232835
    148          1           0       34.048335   -0.560483    0.868203
    149          1           0       35.920918   -1.309626   -0.113116
    150          1           0       35.372651   -0.721141   -1.715861
    151          1           0       35.010031   -2.373846   -1.344970
    152          1           0       29.531117   -5.903256   -1.265588
    153          1           0       30.318250   -5.265977    0.189245
    154          1           0       30.777345   -4.801366   -1.587082
    155          1           0       24.661009   -3.499811   -0.489415
    156          1           0       21.538239   -4.356207    2.311653
    157          1           0       22.732798   -3.844425    3.497503
    158          1           0       22.976044   -5.426812    2.621482
 ---------------------------------------------------------------------

 SCF Done:  E(RwB97XD) =  -4070.61523632     A.U. after   19 cycles

 Excitation energies and oscillator strengths:

 Excited State   1:      Singlet-A      1.6105 eV  769.86 nm  f=0.3561  <S**2>=0.000
     309 -> 315       -0.16150
     312 -> 313        0.68856
     309 <- 315       -0.10999
 This state for optimization and/or second-order correction.
 Total Energy, E(TD-HF/TD-DFT) =  -4070.55605217
 Copying the excited state density for this state as the 1-particle RhoCI density.

 Excited State   2:      Singlet-A      1.6697 eV  742.57 nm  f=0.3889  <S**2>=0.000
     310 -> 316        0.19473
     311 -> 314        0.68026
     310 <- 316        0.11869

 Excited State   3:      Singlet-A      2.1969 eV  564.36 nm  f=0.0831  <S**2>=0.000
     310 -> 314        0.62407
     311 -> 316       -0.31821

 Excited State   4:      Singlet-A      2.2277 eV  556.56 nm  f=0.0763  <S**2>=0.000
     309 -> 313        0.61811
     312 -> 315        0.32526

 Excited State   5:      Singlet-A      3.4244 eV  362.06 nm  f=0.1933  <S**2>=0.000
     306 -> 314        0.53332
     310 -> 314        0.16259
     311 -> 316        0.41066

 The electronic state is 1-A.
 Alpha  occ. eigenvalues --  -46.95650 -46.95229 -19.31192 -19.30555 -19.24341
 Alpha  occ. eigenvalues --  -19.24263 -19.24138 -19.24091 -19.23413 -19.22087
 Alpha  occ. eigenvalues --  -14.47061 -14.46411 -14.46290 -14.46187 -14.44361
 Alpha  occ. eigenvalues --  -14.44125 -14.43832 -14.43261 -10.43422 -10.42954
 Alpha  occ. eigenvalues --  -10.39520 -10.38939 -10.38875 -10.37518 -10.36077
 Alpha  occ. eigenvalues --  -10.36055 -10.35854 -10.35741 -10.35004 -10.34960
 Alpha  occ. eigenvalues --  -10.34944 -10.34925 -10.34696 -10.34668 -10.34520
 Alpha  occ. eigenvalues --  -10.34424 -10.34125 -10.34075 -10.33954 -10.33347
 Alpha  occ. eigenvalues --  -10.33296 -10.33058 -10.32947 -10.32798 -10.32679
 Alpha  occ. eigenvalues --  -10.32551 -10.32523 -10.32444 -10.32392 -10.32333
 Alpha  occ. eigenvalues --  -10.32062 -10.31969 -10.31958 -10.31896 -10.31873
 Alpha  occ. eigenvalues --  -10.31848 -10.31677 -10.31664 -10.31661 -10.31544
 Alpha  occ. eigenvalues --  -10.31436 -10.31435 -10.31386 -10.31335 -10.31271
 Alpha  occ. eigenvalues --  -10.31257 -10.31219 -10.31105 -10.31035 -10.30818
 Alpha  occ. eigenvalues --  -10.30788 -10.30699 -10.30528 -10.30230 -10.30214
 Alpha  occ. eigenvalues --  -10.30103 -10.29974 -10.29935 -10.29932 -10.29928
 Alpha  occ. eigenvalues --  -10.29882 -10.29861 -10.29364 -10.29318 -10.29162
 Alpha  occ. eigenvalues --  -10.27938  -3.21590  -3.21098  -1.95148  -1.94734
 Alpha  occ. eigenvalues --   -1.94707  -1.94539  -1.94203  -1.94075  -1.18619
 Alpha  occ. eigenvalues --   -1.18220  -1.13192  -1.12948  -1.11138  -1.09629
 Alpha  occ. eigenvalues --   -1.09316  -1.08847  -1.07118  -1.06823  -1.06061
 Alpha  occ. eigenvalues --   -1.06026  -1.05399  -1.04920  -1.03009  -1.02345
 Alpha  occ. eigenvalues --   -0.94457  -0.93873  -0.91255  -0.91014  -0.90878
 Alpha  occ. eigenvalues --   -0.90493  -0.90172  -0.89596  -0.89132  -0.88795
 Alpha  occ. eigenvalues --   -0.88663  -0.88640  -0.88215  -0.87992  -0.86286
 Alpha  occ. eigenvalues --   -0.85890  -0.85592  -0.85453  -0.84661  -0.84253
 Alpha  occ. eigenvalues --   -0.84211  -0.83795  -0.83157  -0.82908  -0.82515
 Alpha  occ. eigenvalues --   -0.82108  -0.80408  -0.80019  -0.79652  -0.79492
 Alpha  occ. eigenvalues --   -0.79247  -0.78413  -0.78154  -0.77914  -0.77184
 Alpha  occ. eigenvalues --   -0.76822  -0.74995  -0.74600  -0.73680  -0.73492
 Alpha  occ. eigenvalues --   -0.71555  -0.71172  -0.70960  -0.70271  -0.70023
 Alpha  occ. eigenvalues --   -0.69558  -0.68929  -0.68914  -0.68135  -0.67779
 Alpha  occ. eigenvalues --   -0.67369  -0.67344  -0.67050  -0.66676  -0.66334
 Alpha  occ. eigenvalues --   -0.65509  -0.64715  -0.64103  -0.61841  -0.61661
 Alpha  occ. eigenvalues --   -0.61568  -0.61219  -0.61111  -0.61022  -0.60718
 Alpha  occ. eigenvalues --   -0.60219  -0.59927  -0.59520  -0.59282  -0.59183
 Alpha  occ. eigenvalues --   -0.58756  -0.58153  -0.58047  -0.57836  -0.57357
 Alpha  occ. eigenvalues --   -0.57093  -0.56675  -0.56522  -0.56174  -0.55919
 Alpha  occ. eigenvalues --   -0.55623  -0.55436  -0.55401  -0.54881  -0.54740
 Alpha  occ. eigenvalues --   -0.54729  -0.54513  -0.54347  -0.54239  -0.54152
 Alpha  occ. eigenvalues --   -0.53730  -0.53554  -0.53416  -0.53371  -0.53239
 Alpha  occ. eigenvalues --   -0.53139  -0.53075  -0.52981  -0.52572  -0.52137
 Alpha  occ. eigenvalues --   -0.51916  -0.51890  -0.51813  -0.51541  -0.51527
 Alpha  occ. eigenvalues --   -0.51297  -0.50933  -0.50833  -0.50709  -0.50459
 Alpha  occ. eigenvalues --   -0.50383  -0.50255  -0.50064  -0.50019  -0.49856
 Alpha  occ. eigenvalues --   -0.49692  -0.49556  -0.49410  -0.49163  -0.49114
 Alpha  occ. eigenvalues --   -0.49066  -0.48852  -0.48778  -0.48645  -0.48471
 Alpha  occ. eigenvalues --   -0.48188  -0.48141  -0.47816  -0.47656  -0.47632
 Alpha  occ. eigenvalues --   -0.47449  -0.47409  -0.47159  -0.47110  -0.46884
 Alpha  occ. eigenvalues --   -0.46847  -0.46476  -0.46324  -0.46260  -0.45927
 Alpha  occ. eigenvalues --   -0.45838  -0.45760  -0.45563  -0.45403  -0.45396
 Alpha  occ. eigenvalues --   -0.45304  -0.45097  -0.44961  -0.44864  -0.44647
 Alpha  occ. eigenvalues --   -0.44547  -0.44482  -0.44228  -0.44076  -0.44055
 Alpha  occ. eigenvalues --   -0.43903  -0.43798  -0.43673  -0.43381  -0.43140
 Alpha  occ. eigenvalues --   -0.42953  -0.42841  -0.42775  -0.42586  -0.42248
 Alpha  occ. eigenvalues --   -0.41866  -0.41818  -0.41416  -0.41241  -0.40990
 Alpha  occ. eigenvalues --   -0.40440  -0.40089  -0.39425  -0.39350  -0.39232
 Alpha  occ. eigenvalues --   -0.39206  -0.38782  -0.38708  -0.38557  -0.38279
 Alpha  occ. eigenvalues --   -0.37937  -0.37791  -0.36307  -0.36027  -0.35920
 Alpha  occ. eigenvalues --   -0.35808  -0.35368  -0.34916  -0.33740  -0.33283
 Alpha  occ. eigenvalues --   -0.33163  -0.32898  -0.32704  -0.32317  -0.32234
 Alpha  occ. eigenvalues --   -0.31704  -0.31539  -0.31143  -0.26392  -0.25801
 Alpha  occ. eigenvalues --   -0.22609  -0.22574
 Alpha virt. eigenvalues --   -0.06916  -0.06657   0.00135   0.00181   0.02584
 Alpha virt. eigenvalues --    0.03151   0.04476   0.04644   0.04681   0.06117
 Alpha virt. eigenvalues --    0.06606   0.07087   0.07779   0.07935   0.08661

 Mulliken charges:
               1
     1  Mg   0.952619
     2  C   -0.030331
     3  C   -0.087557
     4  C   -0.053685
     5  C   -0.079046
     6  N   -0.317018
     7  C   -0.008886
     8  C   -0.054237
     9  C   -0.041549
    10  C   -0.009067
    11  C    0.019985
    12  C    0.021211
    13  C   -0.115169
    14  H    0.015617
    15  N   -0.461382
    16  C    0.197324
    17  C   -0.169631
    18  C   -0.061219
    19  C    0.119875
    20  C    0.061294
    21  C    0.038552
    22  O   -0.262816
    23  C    0.013260
    24  N   -0.333136
    25  C    0.064078
    26  C   -0.091945
    27  C   -0.098941
    28  C    0.041353
    29  C    0.031144
    30  C   -0.015238
    31  C   -0.053808
    32  N   -0.449337
    33  C    0.129806
    34  C   -0.162221
    35  C   -0.055500
    36  C    0.145280
    37  C    0.075985
    38  C    0.096321
    39  O   -0.183889
    40  C   -0.041873
    41  C    0.280556
    42  O   -0.276076
    43  O   -0.352445
    44  C    0.141023
    45  H   -0.023874
    46  H    0.028220
    47  H   -0.002399
    48  H    0.046013
    49  H    0.034459
    50  H    0.048875
    51  H    0.031141
    52  H    0.026859
    53  H    0.018633
    54  H    0.024790
    55  H    0.055087
    56  H    0.067006
    57  H    0.025619
    58  H    0.064186
    59  H    0.051388
    60  H    0.063692
    61  H    0.041672
    62  H    0.053114
    63  H    0.040555
    64  H    0.038370
    65  H    0.048239
    66  H    0.046063
    67  H    0.029733
    68  H    0.031754
    69  H    0.025732
    70  H    0.040600
    71  H    0.032181
    72  H    0.041542
    73  H    0.049758
    74  H    0.047508
    75  H    0.057509
    76  H    0.066876
    77  H    0.067219
    78  H    0.052477
    79  H    0.050124
    80  Mg   0.954435
    81  C   -0.033059
    82  C   -0.082960
    83  C   -0.079695
    84  C   -0.082946
    85  N   -0.368414
    86  C   -0.053422
    87  C   -0.004995
    88  C   -0.142337
    89  C    0.044541
    90  C    0.037071
    91  C    0.030604
    92  C   -0.102172
    93  H    0.037291
    94  N   -0.471114
    95  C    0.144922
    96  C   -0.159943
    97  C   -0.079532
    98  C    0.169659
    99  C    0.104914
   100  C    0.036103
   101  O   -0.227585
   102  C    0.002102
   103  N   -0.386274
   104  C    0.091529
   105  C   -0.126920
   106  C   -0.015450
   107  C    0.025737
   108  C    0.031691
   109  C   -0.022291
   110  C   -0.061807
   111  N   -0.378407
   112  C    0.092360
   113  C   -0.180545
   114  C   -0.010778
   115  C    0.119017
   116  C    0.073274
   117  C    0.083831
   118  O   -0.250540
   119  C   -0.041212
   120  C    0.265187
   121  O   -0.260767
   122  O   -0.368591
   123  C    0.138636
   124  H    0.004119
   125  H   -0.041785
   126  H   -0.008988
   127  H    0.025751
   128  H    0.039996
   129  H    0.048690
   130  H    0.050480
   131  H    0.040806
   132  H    0.031542
   133  H    0.017656
   134  H    0.047088
   135  H    0.072045
   136  H    0.073539
   137  H    0.022185
   138  H    0.060914
   139  H    0.076668
   140  H    0.048867
   141  H    0.056584
   142  H    0.052208
   143  H    0.031499
   144  H    0.041498
   145  H    0.036513
   146  H    0.042370
   147  H    0.044481
   148  H    0.024543
   149  H    0.051162
   150  H    0.034939
   151  H    0.047434
   152  H    0.051620
   153  H    0.071751
   154  H    0.038749
   155  H    0.074330
   156  H    0.059718
   157  H    0.067151
   158  H    0.072726
 Sum of Mulliken charges =  -0.00000

 Dipole moment (field-independent basis, Debye):
    X=              0.0576    Y=              5.1465    Z=             -5.8875  Tot=              7.8200
 Quadrupole moment (field-independent basis, Debye-Ang):
   XX=           -288.7937   YY=           -558.5462   ZZ=           -483.9516
   XY=             43.5334   XZ=            -16.2625   YZ=            -18.1264

 Normal termination of Gaussian 16 at Sun Sep 19 21:47:48 2021.
