 Gaussian 16, Revision A.03,
 Gaussian 16:  ES64L-G16RevA.03 25-Dec-2016

 --------------------------------
 #p wB97XD/Def2SVP td=(nstates=5)
 --------------------------------

 --------------------------------
 TDDFT excited states in gaussian
 --------------------------------
 Symbolic Z-matrix:
 Charge =  0 Multiplicity = 1

                         Standard orientation:
 ---------------------------------------------------------------------
 Center     Atomic      Atomic             Coordinates (Angstroms)
 Number     Number       Type             X           Y           Z
 ---------------------------------------------------------------------
      1         12           0      -24.070942   -0.715215   -0.086085
      2          6           0      -25.476014    2.312333    0.550491
      3          6           0      -22.354220    0.420432   -2.854883
      4          6           0      -22.937963   -3.897989   -0.642565
      5          6           0      -26.152676   -2.122110    2.517358
      6          7           0      -24.111399    1.094017   -1.138839
      7          6           0      -24.567809    2.320812   -0.550152
      8          6           0      -24.023551    3.487672   -1.272621
      9          6           0      -23.391418    2.791724   -2.560359
     10          6           0      -23.258585    1.326818   -2.208230
     11          6           0      -24.284826    2.981826   -3.886208
     12          6           0      -23.122791    4.426788   -0.412813
     13          6           0      -23.387291    5.888978   -0.575635
     14          1           0      -23.693401    6.380242   -2.045274
     15          7           0      -22.757889   -1.600702   -1.508889
     16          6           0      -22.200841   -0.920158   -2.550485
     17          6           0      -21.380952   -1.834351   -3.269005
     18          6           0      -21.440110   -3.121902   -2.605732
     19          6           0      -22.371787   -2.924800   -1.445133
     20          6           0      -20.672297   -1.444530   -4.584628
     21          6           0      -20.760178   -4.432388   -2.852033
     22          8           0      -20.954069   -5.516378   -2.290398
     23          6           0      -19.617624   -4.399599   -3.936432
     24          7           0      -24.566100   -2.803255    0.754906
     25          6           0      -23.891770   -3.874018    0.416890
     26          6           0      -24.138330   -5.042632    1.368828
     27          6           0      -25.169880   -4.453384    2.372864
     28          6           0      -25.332795   -3.028176    1.848224
     29          6           0      -24.678866   -6.372738    0.634311
     30          6           0      -24.543524   -4.498822    3.836024
     31          6           0      -23.323593   -3.621189    4.210248
     32          7           0      -25.644804   -0.091347    1.164895
     33          6           0      -26.319742   -0.755424    2.171709
     34          6           0      -27.122427    0.264533    2.876815
     35          6           0      -26.859962    1.488159    2.337932
     36          6           0      -25.931987    1.202741    1.271607
     37          6           0      -28.164703   -0.050052    3.893909
     38          6           0      -27.133431    2.924529    2.377432
     39          8           0      -27.870295    3.582792    3.092382
     40          6           0      -26.233155    3.492128    1.193924
     41          6           0      -27.148578    4.079784    0.194763
     42          8           0      -28.097744    3.530036   -0.390754
     43          8           0      -26.714127    5.383697    0.068607
     44          6           0      -27.357102    6.135664   -1.016922
     45          1           0      -21.754004    0.751959   -3.704582
     46          1           0      -22.447339   -4.860659   -0.804801
     47          1           0      -26.729717   -2.513560    3.356997
     48          1           0      -24.904885    4.069360   -1.545745
     49          1           0      -22.399152    3.214498   -2.714788
     50          1           0      -25.048940    3.753334   -3.791308
     51          1           0      -24.871144    2.068469   -3.985773
     52          1           0      -23.542384    3.097145   -4.674789
     53          1           0      -22.075166    4.261509   -0.664499
     54          1           0      -23.364759    4.120803    0.604893
     55          1           0      -22.531148    6.509000   -0.312678
     56          1           0      -24.151529    6.399833    0.010247
     57          1           0      -19.777229   -0.831712   -4.478461
     58          1           0      -21.474228   -0.963523   -5.144417
     59          1           0      -20.245611   -2.300142   -5.107608
     60          1           0      -20.071036   -4.318015   -4.924321
     61          1           0      -18.932992   -5.221316   -3.727084
     62          1           0      -18.919587   -3.571724   -3.810389
     63          1           0      -23.209565   -5.259971    1.895794
     64          1           0      -26.113099   -4.999035    2.400921
     65          1           0      -23.838806   -7.068132    0.623625
     66          1           0      -24.961227   -6.145425   -0.394159
     67          1           0      -25.495707   -6.940700    1.077778
     68          1           0      -24.293324   -5.495272    4.199786
     69          1           0      -25.367870   -4.093348    4.423567
     70          1           0      -23.739704   -2.949882    4.961574
     71          1           0      -22.897891   -3.103963    3.351303
     72          1           0      -22.493137   -4.179717    4.642029
     73          1           0      -28.120412    0.816441    4.552984
     74          1           0      -27.971071   -0.981509    4.426208
     75          1           0      -29.133505    0.089075    3.415933
     76          1           0      -25.724404    4.291786    1.731623
     77          1           0      -26.963147    7.140306   -0.860607
     78          1           0      -28.421144    6.146695   -0.780695
     79          1           0      -27.263782    5.703656   -2.013510
     80         12           0       24.622640   -0.564884    0.028647
     81          6           0       23.483452    2.680527    0.710060
     82          6           0       24.783034    0.297919   -3.300625
     83          6           0       25.663582   -3.634718   -0.591226
     84          6           0       24.244175   -1.308888    3.441258
     85          7           0       24.252540    1.315305   -1.082813
     86          6           0       23.767196    2.544220   -0.635351
     87          6           0       23.918702    3.700460   -1.700160
     88          6           0       24.175586    2.850232   -2.929317
     89          6           0       24.434032    1.372130   -2.420235
     90          6           0       22.881445    2.802574   -3.864296
     91          6           0       25.245925    4.461758   -1.256394
     92          6           0       25.229612    6.051713   -1.333048
     93          1           0       24.366174    6.495174   -2.486254
     94          7           0       24.993526   -1.537594   -1.680806
     95          6           0       25.007014   -1.057540   -2.921157
     96          6           0       25.407928   -2.041319   -3.891787
     97          6           0       25.846568   -3.144288   -3.132684
     98          6           0       25.449448   -2.826403   -1.709450
     99          6           0       25.429210   -1.859779   -5.365319
    100          6           0       26.634969   -4.370342   -3.544852
    101          8           0       27.168182   -5.131150   -2.729218
    102          6           0       26.705553   -4.771876   -5.020786
    103          7           0       24.862375   -2.259771    1.282455
    104          6           0       25.393379   -3.395069    0.717134
    105          6           0       25.701852   -4.390845    1.833219
    106          6           0       25.354441   -3.598556    3.186324
    107          6           0       24.842454   -2.287049    2.651386
    108          6           0       24.949117   -5.741725    1.564631
    109          6           0       26.468358   -3.468240    4.213269
    110          6           0       26.060455   -3.934965    5.645734
    111          7           0       23.973615    0.457563    1.720758
    112          6           0       23.851375    0.010085    3.073701
    113          6           0       23.326022    1.045035    3.890626
    114          6           0       23.175609    2.107770    2.983873
    115          6           0       23.535063    1.667975    1.692976
    116          6           0       23.037874    1.080419    5.356967
    117          6           0       22.782862    3.473817    2.847384
    118          8           0       22.340957    4.283307    3.628530
    119          6           0       23.079710    3.907413    1.383946
    120          6           0       21.892038    4.615961    0.841403
    121          8           0       20.804466    4.133228    0.538767
    122          8           0       22.244218    5.895662    0.684148
    123          6           0       21.264824    6.776427    0.082982
    124          1           0       25.009722    0.473511   -4.354178
    125          1           0       26.001707   -4.637388   -0.864628
    126          1           0       24.170075   -1.476524    4.517824
    127          1           0       23.040744    4.329433   -1.556185
    128          1           0       25.057114    3.210419   -3.458615
    129          1           0       22.044367    3.360923   -3.444729
    130          1           0       22.587153    1.760432   -3.987028
    131          1           0       23.225679    3.219750   -4.810705
    132          1           0       26.120239    4.180750   -1.842767
    133          1           0       25.458465    4.129044   -0.240071
    134          1           0       26.201546    6.429692   -1.650399
    135          1           0       25.112227    6.498916   -0.345627
    136          1           0       26.479051   -1.858126   -5.661608
    137          1           0       25.002473   -0.900483   -5.654816
    138          1           0       24.906276   -2.648018   -5.906094
    139          1           0       26.992012   -5.817404   -4.909503
    140          1           0       27.411903   -4.183037   -5.607159
    141          1           0       25.766084   -4.821984   -5.570903
    142          1           0       26.742912   -4.703835    1.912266
    143          1           0       24.515271   -4.099490    3.669155
    144          1           0       25.684569   -6.526762    1.740857
    145          1           0       24.496354   -5.807817    0.575269
    146          1           0       24.259119   -5.977558    2.375665
    147          1           0       26.887116   -2.465758    4.295650
    148          1           0       27.191430   -4.227286    3.911414
    149          1           0       25.069441   -4.389010    5.635725
    150          1           0       25.893331   -3.089091    6.312260
    151          1           0       26.775957   -4.652628    6.047658
    152          1           0       24.045224    1.153240    5.767832
    153          1           0       22.469285    0.178601    5.582908
    154          1           0       22.506103    1.982499    5.656290
    155          1           0       23.847805    4.672369    1.505411
    156          1           0       20.324772    6.717800    0.632298
    157          1           0       20.962711    6.550142   -0.940132
    158          1           0       21.678984    7.782183    0.156138
 ---------------------------------------------------------------------

 SCF Done:  E(RwB97XD) =  -4070.63100641     A.U. after   19 cycles

 Excitation energies and oscillator strengths:

 Excited State   1:      Singlet-A      1.6460 eV  753.23 nm  f=0.3764  <S**2>=0.000
     309 -> 315        0.19183
     312 -> 314        0.68167
     309 <- 315        0.11822
 This state for optimization and/or second-order correction.
 Total Energy, E(TD-HF/TD-DFT) =  -4070.57051550
 Copying the excited state density for this state as the 1-particle RhoCI density.

 Excited State   2:      Singlet-A      1.6810 eV  737.55 nm  f=0.3842  <S**2>=0.000
     310 -> 316        0.16574
     311 -> 313        0.68558
     310 <- 316        0.10526

 Excited State   3:      Singlet-A      2.2139 eV  560.03 nm  f=0.0440  <S**2>=0.000
     309 -> 314        0.60811
     312 -> 315       -0.34954

 Excited State   4:      Singlet-A      2.2342 eV  554.93 nm  f=0.1203  <S**2>=0.000
     310 -> 313        0.63518
     311 -> 316       -0.28429

 Excited State   5:      Singlet-A      3.4793 eV  356.35 nm  f=0.0349  <S**2>=0.000
     307 -> 320        0.10570
     308 -> 313        0.60552
     308 -> 318       -0.13946
     308 -> 320        0.13271
     311 -> 316        0.21835

 The electronic state is 1-A.
 Alpha  occ. eigenvalues --  -46.95599 -46.94128 -19.30864 -19.30459 -19.25201
 Alpha  occ. eigenvalues --  -19.25026 -19.24586 -19.24577 -19.23738 -19.22391
 Alpha  occ. eigenvalues --  -14.46897 -14.46865 -14.46782 -14.46236 -14.44868
 Alpha  occ. eigenvalues --  -14.44115 -14.44068 -14.43042 -10.43369 -10.42152
 Alpha  occ. eigenvalues --  -10.40287 -10.39735 -10.39422 -10.37109 -10.36067
 Alpha  occ. eigenvalues --  -10.36015 -10.35815 -10.35575 -10.35160 -10.35101
 Alpha  occ. eigenvalues --  -10.34892 -10.34758 -10.34757 -10.34472 -10.34428
 Alpha  occ. eigenvalues --  -10.34142 -10.34067 -10.33967 -10.33563 -10.33449
 Alpha  occ. eigenvalues --  -10.33305 -10.33053 -10.32980 -10.32878 -10.32781
 Alpha  occ. eigenvalues --  -10.32519 -10.32450 -10.32408 -10.32393 -10.32180
 Alpha  occ. eigenvalues --  -10.32172 -10.32009 -10.31947 -10.31835 -10.31805
 Alpha  occ. eigenvalues --  -10.31652 -10.31646 -10.31619 -10.31533 -10.31491
 Alpha  occ. eigenvalues --  -10.31440 -10.31426 -10.31404 -10.31398 -10.31137
 Alpha  occ. eigenvalues --  -10.31115 -10.31109 -10.30699 -10.30607 -10.30564
 Alpha  occ. eigenvalues --  -10.30467 -10.30435 -10.30343 -10.30173 -10.30148
 Alpha  occ. eigenvalues --  -10.29965 -10.29923 -10.29754 -10.29720 -10.29629
 Alpha  occ. eigenvalues --  -10.29600 -10.29421 -10.29304 -10.29248 -10.28738
 Alpha  occ. eigenvalues --  -10.27555  -3.21457  -3.20246  -1.95046  -1.94568
 Alpha  occ. eigenvalues --   -1.94425  -1.93853  -1.93356  -1.93251  -1.19277
 Alpha  occ. eigenvalues --   -1.18124  -1.12641  -1.12420  -1.11865  -1.11547
 Alpha  occ. eigenvalues --   -1.09650  -1.09259  -1.07129  -1.07095  -1.05912
 Alpha  occ. eigenvalues --   -1.05780  -1.04953  -1.04928  -1.04368  -1.03731
 Alpha  occ. eigenvalues --   -0.94606  -0.94331  -0.91626  -0.91034  -0.90664
 Alpha  occ. eigenvalues --   -0.90426  -0.90302  -0.89906  -0.89900  -0.89201
 Alpha  occ. eigenvalues --   -0.88952  -0.88845  -0.88597  -0.88230  -0.86579
 Alpha  occ. eigenvalues --   -0.85889  -0.85433  -0.85277  -0.84292  -0.84271
 Alpha  occ. eigenvalues --   -0.83783  -0.83472  -0.83223  -0.83179  -0.82328
 Alpha  occ. eigenvalues --   -0.81929  -0.80926  -0.80048  -0.79347  -0.79282
 Alpha  occ. eigenvalues --   -0.79133  -0.78686  -0.77727  -0.77516  -0.76924
 Alpha  occ. eigenvalues --   -0.76916  -0.75097  -0.74443  -0.74169  -0.73401
 Alpha  occ. eigenvalues --   -0.71790  -0.71219  -0.71184  -0.70801  -0.70321
 Alpha  occ. eigenvalues --   -0.69622  -0.69447  -0.69343  -0.67383  -0.67256
 Alpha  occ. eigenvalues --   -0.67176  -0.67007  -0.66947  -0.66674  -0.66498
 Alpha  occ. eigenvalues --   -0.66368  -0.64507  -0.64441  -0.62841  -0.62324
 Alpha  occ. eigenvalues --   -0.61550  -0.61384  -0.61161  -0.60908  -0.60769
 Alpha  occ. eigenvalues --   -0.60615  -0.59933  -0.59719  -0.59484  -0.59290
 Alpha  occ. eigenvalues --   -0.58677  -0.57906  -0.57586  -0.57475  -0.57314
 Alpha  occ. eigenvalues --   -0.56943  -0.56905  -0.56371  -0.56367  -0.55762
 Alpha  occ. eigenvalues --   -0.55509  -0.55458  -0.55163  -0.55151  -0.55120
 Alpha  occ. eigenvalues --   -0.54565  -0.54490  -0.54306  -0.54198  -0.54085
 Alpha  occ. eigenvalues --   -0.54068  -0.53908  -0.53688  -0.53453  -0.53229
 Alpha  occ. eigenvalues --   -0.53035  -0.52987  -0.52839  -0.52702  -0.52352
 Alpha  occ. eigenvalues --   -0.52230  -0.51962  -0.51825  -0.51571  -0.51557
 Alpha  occ. eigenvalues --   -0.51226  -0.51214  -0.50892  -0.50624  -0.50502
 Alpha  occ. eigenvalues --   -0.50491  -0.50466  -0.50454  -0.50396  -0.50083
 Alpha  occ. eigenvalues --   -0.49819  -0.49618  -0.49572  -0.49470  -0.49310
 Alpha  occ. eigenvalues --   -0.49175  -0.49111  -0.48803  -0.48703  -0.48659
 Alpha  occ. eigenvalues --   -0.48470  -0.48323  -0.48125  -0.48017  -0.47772
 Alpha  occ. eigenvalues --   -0.47511  -0.47222  -0.47115  -0.46945  -0.46701
 Alpha  occ. eigenvalues --   -0.46635  -0.46491  -0.46488  -0.46398  -0.46244
 Alpha  occ. eigenvalues --   -0.45853  -0.45674  -0.45609  -0.45418  -0.45168
 Alpha  occ. eigenvalues --   -0.44996  -0.44941  -0.44910  -0.44875  -0.44730
 Alpha  occ. eigenvalues --   -0.44553  -0.44302  -0.44286  -0.44065  -0.44010
 Alpha  occ. eigenvalues --   -0.43871  -0.43871  -0.43608  -0.43557  -0.43441
 Alpha  occ. eigenvalues --   -0.43029  -0.42711  -0.42690  -0.42404  -0.42312
 Alpha  occ. eigenvalues --   -0.41989  -0.41686  -0.41633  -0.41401  -0.40735
 Alpha  occ. eigenvalues --   -0.40202  -0.39846  -0.39625  -0.39523  -0.39378
 Alpha  occ. eigenvalues --   -0.39099  -0.38898  -0.38714  -0.38462  -0.38352
 Alpha  occ. eigenvalues --   -0.38335  -0.38270  -0.36625  -0.36235  -0.36200
 Alpha  occ. eigenvalues --   -0.35887  -0.35715  -0.34975  -0.34322  -0.33587
 Alpha  occ. eigenvalues --   -0.33422  -0.33130  -0.33124  -0.32966  -0.32523
 Alpha  occ. eigenvalues --   -0.32087  -0.31688  -0.31316  -0.26349  -0.26063
 Alpha  occ. eigenvalues --   -0.22888  -0.22761
 Alpha virt. eigenvalues --   -0.06937  -0.06831  -0.00463   0.00221   0.01806
 Alpha virt. eigenvalues --    0.02525   0.04227   0.04953   0.05060   0.06444
 Alpha virt. eigenvalues --    0.06939   0.07447   0.07806   0.08104   0.08423

 Mulliken charges:
               1
     1  Mg   0.932733
     2  C   -0.005143
     3  C   -0.105865
     4  C   -0.037080
     5  C   -0.077820
     6  N   -0.442373
     7  C   -0.001192
     8  C   -0.039726
     9  C   -0.136044
    10  C    0.130605
    11  C    0.033378
    12  C    0.069989
    13  C   -0.138371
    14  H    0.000463
    15  N   -0.460777
    16  C    0.168974
    17  C   -0.150554
    18  C   -0.078154
    19  C    0.134222
    20  C    0.056668
    21  C    0.061908
    22  O   -0.237558
    23  C   -0.054779
    24  N   -0.260535
    25  C    0.017846
    26  C   -0.075259
    27  C   -0.047678
    28  C    0.027360
    29  C   -0.001702
    30  C   -0.063177
    31  C   -0.056315
    32  N   -0.406736
    33  C    0.141299
    34  C   -0.240994
    35  C   -0.006295
    36  C    0.120150
    37  C    0.082695
    38  C    0.139203
    39  O   -0.194715
    40  C   -0.109472
    41  C    0.275777
    42  O   -0.259098
    43  O   -0.370001
    44  C    0.139935
    45  H    0.001525
    46  H    0.024232
    47  H    0.003064
    48  H    0.030708
    49  H    0.027187
    50  H    0.043597
    51  H    0.045652
    52  H    0.050278
    53  H    0.039611
    54  H    0.041759
    55  H    0.043918
    56  H    0.061536
    57  H    0.055383
    58  H    0.062193
    59  H    0.016796
    60  H    0.079263
    61  H    0.051776
    62  H    0.042007
    63  H    0.050167
    64  H    0.039058
    65  H    0.042698
    66  H    0.048624
    67  H    0.040719
    68  H    0.041662
    69  H    0.020565
    70  H    0.044569
    71  H    0.039791
    72  H    0.038708
    73  H    0.047133
    74  H    0.040288
    75  H    0.066230
    76  H    0.068462
    77  H    0.059487
    78  H    0.056208
    79  H    0.059352
    80  Mg   0.983658
    81  C    0.006584
    82  C   -0.113478
    83  C   -0.075904
    84  C   -0.074168
    85  N   -0.350807
    86  C   -0.049301
    87  C   -0.050229
    88  C   -0.097938
    89  C    0.098288
    90  C    0.023320
    91  C    0.001708
    92  C   -0.114954
    93  H    0.031919
    94  N   -0.466431
    95  C    0.153991
    96  C   -0.174237
    97  C   -0.070223
    98  C    0.138032
    99  C    0.077762
   100  C    0.062769
   101  O   -0.243516
   102  C   -0.045544
   103  N   -0.389900
   104  C    0.116275
   105  C   -0.106938
   106  C   -0.048707
   107  C    0.073016
   108  C    0.009936
   109  C    0.001423
   110  C   -0.071384
   111  N   -0.414153
   112  C    0.082183
   113  C   -0.193359
   114  C   -0.037977
   115  C    0.139137
   116  C    0.088177
   117  C    0.083190
   118  O   -0.205383
   119  C   -0.074068
   120  C    0.226070
   121  O   -0.256839
   122  O   -0.333925
   123  C    0.142521
   124  H   -0.000100
   125  H    0.028426
   126  H   -0.008041
   127  H    0.049796
   128  H    0.040055
   129  H    0.051972
   130  H    0.043568
   131  H    0.040179
   132  H    0.030994
   133  H    0.043347
   134  H    0.042794
   135  H    0.062653
   136  H    0.053233
   137  H    0.041050
   138  H    0.058472
   139  H    0.058603
   140  H    0.065488
   141  H    0.052890
   142  H    0.043240
   143  H    0.032362
   144  H    0.027662
   145  H    0.060859
   146  H    0.025932
   147  H    0.049345
   148  H    0.028175
   149  H    0.020859
   150  H    0.037412
   151  H    0.045771
   152  H    0.054247
   153  H    0.052862
   154  H    0.061463
   155  H    0.067069
   156  H    0.054638
   157  H    0.045132
   158  H    0.056998
 Sum of Mulliken charges =  -0.00000

 Dipole moment (field-independent basis, Debye):
    X=              7.6278    Y=             -0.3964    Z=             -5.8955  Tot=              9.6487
 Quadrupole moment (field-independent basis, Debye-Ang):
   XX=           -583.5738   YY=           -502.8792   ZZ=           -471.0173
   XY=            -19.1000   XZ=            -69.0690   YZ=            -51.2959

 Normal termination of Gaussian 16 at Sat Sep 18 13:58:21 2021.
