 Gaussian 16, Revision A.03,
 Gaussian 16:  ES64L-G16RevA.03 25-Dec-2016

 --------------------------------
 #p wB97XD/Def2SVP td=(nstates=5)
 --------------------------------

 --------------------------------
 TDDFT excited states in gaussian
 --------------------------------
 Symbolic Z-matrix:
 Charge =  0 Multiplicity = 1

                         Standard orientation:
 ---------------------------------------------------------------------
 Center     Atomic      Atomic             Coordinates (Angstroms)
 Number     Number       Type             X           Y           Z
 ---------------------------------------------------------------------
      1         12           0       -5.054866    0.587059   -0.114123
      2          6           0       -3.104231   -2.084253   -1.485437
      3          6           0       -7.804191   -1.470720   -0.139967
      4          6           0       -7.066172    3.164453    0.734114
      5          6           0       -2.445735    2.763159   -1.061951
      6          7           0       -5.377879   -1.524582   -0.733324
      7          6           0       -4.450555   -2.470000   -1.198973
      8          6           0       -5.137181   -3.803801   -1.344609
      9          6           0       -6.668461   -3.391944   -1.404837
     10          6           0       -6.626097   -1.977090   -0.756271
     11          6           0       -7.099541   -3.356094   -2.914388
     12          6           0       -4.722681   -4.861982   -0.262121
     13          6           0       -4.497875   -6.151339   -0.875563
     14          1           0       -3.732185   -7.222097    0.052833
     15          7           0       -7.124433    0.686518    0.398347
     16          6           0       -8.059873   -0.269826    0.357687
     17          6           0       -9.282758    0.241664    0.895962
     18          6           0       -9.116582    1.587957    1.144463
     19          6           0       -7.652639    1.901218    0.802886
     20          6           0      -10.594540   -0.605185    0.930291
     21          6           0      -10.113536    2.593456    1.756396
     22          8           0       -9.787985    3.748662    1.863528
     23          6           0      -11.444069    2.129268    2.300368
     24          7           0       -4.855071    2.695699   -0.428423
     25          6           0       -5.802669    3.530978    0.152929
     26          6           0       -5.296355    4.934582    0.230177
     27          6           0       -3.795215    4.811395   -0.327839
     28          6           0       -3.646693    3.327631   -0.569042
     29          6           0       -6.174295    5.914347   -0.472356
     30          6           0       -2.599775    5.413641    0.595882
     31          6           0       -1.774568    6.506668    0.041203
     32          7           0       -3.128728    0.437024   -1.028949
     33          6           0       -2.223082    1.428049   -1.333762
     34          6           0       -0.973819    0.758087   -1.902383
     35          6           0       -1.229149   -0.627643   -1.874213
     36          6           0       -2.574557   -0.767220   -1.383334
     37          6           0        0.262878    1.511970   -2.410097
     38          6           0       -0.683238   -1.880030   -2.301973
     39          8           0        0.428596   -2.148642   -2.810381
     40          6           0       -1.924520   -2.861153   -2.232006
     41          6           0       -1.382617   -4.164534   -1.571821
     42          8           0       -1.594922   -4.404309   -0.369041
     43          8           0       -0.783449   -4.940011   -2.508518
     44          6           0       -0.094466   -6.083780   -1.817725
     45          1           0       -8.620717   -2.166485    0.065906
     46          1           0       -7.691525    4.012464    1.023260
     47          1           0       -1.549266    3.341061   -1.295546
     48          1           0       -4.886054   -4.156318   -2.344736
     49          1           0       -7.299725   -4.105161   -0.876001
     50          1           0       -6.712566   -2.494721   -3.458238
     51          1           0       -8.186064   -3.408491   -2.969337
     52          1           0       -6.731704   -4.257874   -3.404419
     53          1           0       -5.608284   -5.031937    0.350652
     54          1           0       -3.900553   -4.509125    0.360986
     55          1           0       -3.788184   -6.076317   -1.699638
     56          1           0       -5.470355   -6.545324   -1.171819
     57          1           0      -10.883112   -0.560545    1.980412
     58          1           0      -10.471086   -1.654584    0.663093
     59          1           0      -11.324713   -0.184432    0.239106
     60          1           0      -12.047588    2.981192    2.613763
     61          1           0      -11.039563    1.541613    3.124408
     62          1           0      -11.938668    1.541025    1.527478
     63          1           0       -5.284314    5.121322    1.304157
     64          1           0       -3.770612    5.356858   -1.270890
     65          1           0       -6.622937    6.497875    0.330584
     66          1           0       -7.021969    5.445479   -0.971838
     67          1           0       -5.677127    6.551429   -1.204187
     68          1           0       -1.933209    4.555936    0.685651
     69          1           0       -3.019052    5.629184    1.577752
     70          1           0       -0.735525    6.198105   -0.071071
     71          1           0       -1.833397    7.157645    0.912811
     72          1           0       -2.236111    7.005069   -0.812341
     73          1           0        0.109975    1.636749   -3.481498
     74          1           0        1.188033    0.962700   -2.235737
     75          1           0        0.353192    2.451168   -1.864286
     76          1           0       -2.182832   -3.003241   -3.280491
     77          1           0        0.821038   -5.816820   -1.290073
     78          1           0        0.142589   -6.929786   -2.462026
     79          1           0       -0.832990   -6.492634   -1.127852
     80         12           0        4.872511    0.582080    0.187362
     81          6           0        3.298100   -2.426383    0.922786
     82          6           0        7.836091   -1.139745    0.027199
     83          6           0        6.491057    3.594219   -0.284045
     84          6           0        1.953095    2.341914    0.915768
     85          7           0        5.452999   -1.553469    0.353736
     86          6           0        4.655231   -2.618240    0.543623
     87          6           0        5.356399   -3.989139    0.400001
     88          6           0        6.880488   -3.543850    0.347687
     89          6           0        6.757957   -1.946593    0.276722
     90          6           0        7.621336   -4.103565    1.614112
     91          6           0        4.805275   -4.661912   -0.960105
     92          6           0        4.216976   -6.098347   -0.836990
     93          1           0        4.694794   -6.878532    0.440799
     94          7           0        6.869292    1.203427   -0.021061
     95          6           0        7.944550    0.299751   -0.147112
     96          6           0        9.121189    1.033651   -0.561646
     97          6           0        8.777034    2.390539   -0.607809
     98          6           0        7.287187    2.457215   -0.372264
     99          6           0       10.508572    0.376136   -0.566039
    100          6           0        9.703320    3.602802   -0.891192
    101          8           0        9.336811    4.792393   -0.925119
    102          6           0       11.177383    3.325310   -1.232907
    103          7           0        4.271903    2.658922    0.389795
    104          6           0        5.173651    3.717309    0.063766
    105          6           0        4.535048    5.084429    0.386235
    106          6           0        2.994464    4.667553    0.494839
    107          6           0        3.064718    3.119315    0.561414
    108          6           0        5.199924    5.676831    1.617792
    109          6           0        2.174370    5.133761   -0.781149
    110          6           0        2.560342    4.823826   -2.267606
    111          7           0        3.038974    0.121815    0.862186
    112          6           0        1.930450    0.927802    1.139114
    113          6           0        0.842800    0.099179    1.547204
    114          6           0        1.299649   -1.202028    1.440353
    115          6           0        2.679044   -1.158211    1.119902
    116          6           0       -0.514569    0.543921    2.052299
    117          6           0        0.919853   -2.550893    1.588499
    118          8           0       -0.114838   -2.965589    2.004344
    119          6           0        2.245068   -3.392116    1.370328
    120          6           0        2.567353   -4.010776    2.702461
    121          8           0        3.463243   -3.631885    3.427663
    122          8           0        1.677011   -4.986664    2.916821
    123          6           0        1.575333   -5.359054    4.306646
    124          1           0        8.770921   -1.687700   -0.106270
    125          1           0        7.050580    4.527129   -0.196072
    126          1           0        1.033424    2.879287    1.158540
    127          1           0        5.159087   -4.696993    1.204827
    128          1           0        7.418955   -3.856926   -0.547112
    129          1           0        8.297846   -3.401566    2.102165
    130          1           0        8.154101   -4.927489    1.140182
    131          1           0        6.856603   -4.539239    2.256690
    132          1           0        5.595537   -4.570577   -1.704958
    133          1           0        4.014006   -4.009308   -1.329839
    134          1           0        4.591299   -6.551971   -1.754068
    135          1           0        3.128812   -6.153034   -0.848522
    136          1           0       11.146668    0.975261    0.084055
    137          1           0       10.940029    0.451852   -1.565048
    138          1           0       10.428482   -0.660795   -0.241229
    139          1           0       11.662860    3.020842   -0.304776
    140          1           0       11.606451    4.295800   -1.481645
    141          1           0       11.234233    2.724026   -2.139949
    142          1           0        4.650403    5.663596   -0.530395
    143          1           0        2.526277    5.197016    1.323854
    144          1           0        6.234706    5.357014    1.741535
    145          1           0        4.652499    5.401294    2.518894
    146          1           0        5.264375    6.761789    1.537845
    147          1           0        2.014517    6.208524   -0.694356
    148          1           0        1.237833    4.587425   -0.668991
    149          1           0        3.226573    5.612335   -2.617878
    150          1           0        1.619463    4.844265   -2.818789
    151          1           0        2.942882    3.822163   -2.466245
    152          1           0       -1.055806    1.136444    1.314461
    153          1           0       -0.277431    1.168493    2.913322
    154          1           0       -1.241127   -0.252436    2.219625
    155          1           0        2.211299   -4.218995    0.660711
    156          1           0        0.585089   -5.706849    4.599915
    157          1           0        1.977942   -4.728699    5.099399
    158          1           0        2.186825   -6.222463    4.569653
 ---------------------------------------------------------------------

 SCF Done:  E(RwB97XD) =  -4070.59734830     A.U. after   20 cycles

 Excitation energies and oscillator strengths:

 Excited State   1:      Singlet-A      1.6239 eV  763.48 nm  f=0.8422  <S**2>=0.000
     309 -> 315        0.11447
     310 -> 316       -0.12755
     311 -> 313        0.44730
     311 -> 314       -0.23913
     312 -> 313       -0.26981
     312 -> 314       -0.37449
 This state for optimization and/or second-order correction.
 Total Energy, E(TD-HF/TD-DFT) =  -4070.53766945
 Copying the excited state density for this state as the 1-particle RhoCI density.

 Excited State   2:      Singlet-A      1.7013 eV  728.78 nm  f=0.0209  <S**2>=0.000
     309 -> 315       -0.14956
     310 -> 316       -0.12349
     311 -> 313        0.45317
     312 -> 314        0.50569

 Excited State   3:      Singlet-A      2.1727 eV  570.65 nm  f=0.0886  <S**2>=0.000
     309 -> 314        0.10138
     310 -> 313        0.61631
     310 -> 314       -0.15452
     311 -> 316        0.26221

 Excited State   4:      Singlet-A      2.2173 eV  559.17 nm  f=0.0138  <S**2>=0.000
     309 -> 313        0.15758
     309 -> 314        0.51805
     311 -> 315        0.11646
     312 -> 315        0.41078

 Excited State   5:      Singlet-A      2.5509 eV  486.05 nm  f=0.0006  <S**2>=0.000
     311 -> 313        0.19189
     312 -> 313        0.64095
     312 -> 314       -0.19458

 The electronic state is 1-A.
 Alpha  occ. eigenvalues --  -46.95844 -46.93864 -19.31381 -19.30822 -19.24603
 Alpha  occ. eigenvalues --  -19.24487 -19.24453 -19.23909 -19.23517 -19.23118
 Alpha  occ. eigenvalues --  -14.46933 -14.46587 -14.46303 -14.45537 -14.44058
 Alpha  occ. eigenvalues --  -14.43837 -14.43582 -14.43117 -10.43365 -10.42581
 Alpha  occ. eigenvalues --  -10.39731 -10.38997 -10.38593 -10.37924 -10.35538
 Alpha  occ. eigenvalues --  -10.35516 -10.35516 -10.35456 -10.35149 -10.34967
 Alpha  occ. eigenvalues --  -10.34638 -10.34564 -10.34334 -10.33807 -10.33746
 Alpha  occ. eigenvalues --  -10.33667 -10.33330 -10.33233 -10.33143 -10.33060
 Alpha  occ. eigenvalues --  -10.33047 -10.33011 -10.32988 -10.32810 -10.32671
 Alpha  occ. eigenvalues --  -10.32357 -10.32315 -10.32180 -10.32116 -10.32101
 Alpha  occ. eigenvalues --  -10.32052 -10.31944 -10.31923 -10.31752 -10.31715
 Alpha  occ. eigenvalues --  -10.31538 -10.31512 -10.31391 -10.31202 -10.31157
 Alpha  occ. eigenvalues --  -10.31143 -10.31082 -10.30884 -10.30808 -10.30600
 Alpha  occ. eigenvalues --  -10.30585 -10.30537 -10.30511 -10.30424 -10.30329
 Alpha  occ. eigenvalues --  -10.30189 -10.30140 -10.30113 -10.29993 -10.29800
 Alpha  occ. eigenvalues --  -10.29434 -10.29402 -10.29313 -10.29227 -10.29226
 Alpha  occ. eigenvalues --  -10.28990 -10.28960 -10.28841 -10.28823 -10.28676
 Alpha  occ. eigenvalues --  -10.28122  -3.21652  -3.19900  -1.95231  -1.94756
 Alpha  occ. eigenvalues --   -1.94619  -1.93491  -1.93003  -1.92891  -1.19793
 Alpha  occ. eigenvalues --   -1.18174  -1.14050  -1.13311  -1.10719  -1.10166
 Alpha  occ. eigenvalues --   -1.10031  -1.09116  -1.06202  -1.05622  -1.05121
 Alpha  occ. eigenvalues --   -1.04828  -1.04796  -1.04228  -1.03522  -1.02583
 Alpha  occ. eigenvalues --   -0.94171  -0.93211  -0.90895  -0.90586  -0.90171
 Alpha  occ. eigenvalues --   -0.89969  -0.89561  -0.89491  -0.89326  -0.89263
 Alpha  occ. eigenvalues --   -0.88506  -0.87942  -0.87433  -0.87376  -0.86336
 Alpha  occ. eigenvalues --   -0.85728  -0.85350  -0.84885  -0.84590  -0.84525
 Alpha  occ. eigenvalues --   -0.83829  -0.82673  -0.82656  -0.82486  -0.82353
 Alpha  occ. eigenvalues --   -0.81354  -0.80273  -0.79585  -0.79120  -0.78681
 Alpha  occ. eigenvalues --   -0.78452  -0.78164  -0.77453  -0.77341  -0.76945
 Alpha  occ. eigenvalues --   -0.76423  -0.74391  -0.74224  -0.73472  -0.72671
 Alpha  occ. eigenvalues --   -0.70863  -0.70625  -0.70104  -0.69914  -0.69485
 Alpha  occ. eigenvalues --   -0.69452  -0.68284  -0.67855  -0.67287  -0.67079
 Alpha  occ. eigenvalues --   -0.66901  -0.66489  -0.66371  -0.66014  -0.65940
 Alpha  occ. eigenvalues --   -0.65564  -0.64094  -0.63881  -0.62034  -0.61422
 Alpha  occ. eigenvalues --   -0.61097  -0.60821  -0.60509  -0.60407  -0.60268
 Alpha  occ. eigenvalues --   -0.59768  -0.59521  -0.59432  -0.59018  -0.58737
 Alpha  occ. eigenvalues --   -0.58078  -0.57668  -0.57495  -0.57154  -0.57087
 Alpha  occ. eigenvalues --   -0.56364  -0.56269  -0.56016  -0.55945  -0.55891
 Alpha  occ. eigenvalues --   -0.55591  -0.55505  -0.54941  -0.54803  -0.54729
 Alpha  occ. eigenvalues --   -0.54614  -0.54563  -0.54392  -0.54040  -0.53982
 Alpha  occ. eigenvalues --   -0.53903  -0.53554  -0.53300  -0.53266  -0.53165
 Alpha  occ. eigenvalues --   -0.52577  -0.52445  -0.52303  -0.52235  -0.52152
 Alpha  occ. eigenvalues --   -0.51913  -0.51560  -0.51319  -0.51184  -0.51036
 Alpha  occ. eigenvalues --   -0.50891  -0.50754  -0.50629  -0.50578  -0.50314
 Alpha  occ. eigenvalues --   -0.50169  -0.50047  -0.50014  -0.49832  -0.49781
 Alpha  occ. eigenvalues --   -0.49468  -0.49418  -0.49196  -0.48947  -0.48763
 Alpha  occ. eigenvalues --   -0.48603  -0.48494  -0.48185  -0.48120  -0.47998
 Alpha  occ. eigenvalues --   -0.47782  -0.47715  -0.47581  -0.47373  -0.47176
 Alpha  occ. eigenvalues --   -0.46971  -0.46688  -0.46586  -0.46449  -0.46360
 Alpha  occ. eigenvalues --   -0.46189  -0.46091  -0.46065  -0.46041  -0.45783
 Alpha  occ. eigenvalues --   -0.45723  -0.45425  -0.45250  -0.45219  -0.45132
 Alpha  occ. eigenvalues --   -0.45039  -0.44805  -0.44779  -0.44479  -0.44411
 Alpha  occ. eigenvalues --   -0.44332  -0.44268  -0.43982  -0.43844  -0.43818
 Alpha  occ. eigenvalues --   -0.43465  -0.43395  -0.43271  -0.43068  -0.42792
 Alpha  occ. eigenvalues --   -0.42770  -0.42431  -0.42168  -0.42102  -0.41794
 Alpha  occ. eigenvalues --   -0.41742  -0.41174  -0.40858  -0.40566  -0.40419
 Alpha  occ. eigenvalues --   -0.39923  -0.39285  -0.39245  -0.39202  -0.38974
 Alpha  occ. eigenvalues --   -0.38868  -0.38703  -0.38546  -0.38126  -0.38000
 Alpha  occ. eigenvalues --   -0.37668  -0.36697  -0.36177  -0.36042  -0.35801
 Alpha  occ. eigenvalues --   -0.35588  -0.35139  -0.34358  -0.34008  -0.33447
 Alpha  occ. eigenvalues --   -0.33199  -0.32701  -0.32336  -0.32278  -0.31880
 Alpha  occ. eigenvalues --   -0.31804  -0.31380  -0.31162  -0.26286  -0.25142
 Alpha  occ. eigenvalues --   -0.22276  -0.22092
 Alpha virt. eigenvalues --   -0.06322  -0.05947  -0.00693   0.01100   0.01971
 Alpha virt. eigenvalues --    0.03301   0.04391   0.04942   0.05169   0.06243
 Alpha virt. eigenvalues --    0.07203   0.07462   0.07767   0.08479   0.08863

 Mulliken charges:
               1
     1  Mg   0.938822
     2  C    0.050611
     3  C   -0.128498
     4  C   -0.076502
     5  C   -0.079772
     6  N   -0.336576
     7  C   -0.016901
     8  C   -0.079946
     9  C   -0.155529
    10  C    0.137007
    11  C    0.021967
    12  C    0.090959
    13  C   -0.136698
    14  H    0.010535
    15  N   -0.446499
    16  C    0.166050
    17  C   -0.152727
    18  C   -0.107839
    19  C    0.165729
    20  C    0.056472
    21  C    0.032598
    22  O   -0.217270
    23  C    0.006398
    24  N   -0.392523
    25  C    0.061805
    26  C   -0.104191
    27  C   -0.057409
    28  C    0.090237
    29  C    0.029572
    30  C   -0.032657
    31  C   -0.029279
    32  N   -0.414808
    33  C    0.083238
    34  C   -0.199063
    35  C   -0.004854
    36  C    0.104127
    37  C    0.090727
    38  C    0.122012
    39  O   -0.239307
    40  C   -0.140531
    41  C    0.274014
    42  O   -0.257218
    43  O   -0.342919
    44  C    0.134426
    45  H   -0.009481
    46  H    0.029353
    47  H   -0.012537
    48  H    0.016572
    49  H    0.025747
    50  H    0.050443
    51  H    0.035027
    52  H    0.035815
    53  H    0.015804
    54  H    0.082303
    55  H    0.050589
    56  H    0.042137
    57  H    0.052108
    58  H    0.037952
    59  H    0.072834
    60  H    0.062289
    61  H    0.066447
    62  H    0.055606
    63  H    0.043207
    64  H    0.031720
    65  H    0.040050
    66  H    0.046164
    67  H    0.038729
    68  H    0.022700
    69  H    0.028512
    70  H    0.040344
    71  H    0.029674
    72  H    0.042675
    73  H    0.059697
    74  H    0.061213
    75  H    0.020848
    76  H    0.088699
    77  H    0.062745
    78  H    0.051725
    79  H    0.063414
    80  Mg   0.964483
    81  C   -0.010751
    82  C   -0.066283
    83  C   -0.065607
    84  C   -0.116655
    85  N   -0.333161
    86  C    0.014513
    87  C   -0.076769
    88  C   -0.120023
    89  C    0.066226
    90  C    0.027534
    91  C   -0.002931
    92  C   -0.122210
    93  H    0.033439
    94  N   -0.460485
    95  C    0.131869
    96  C   -0.174449
    97  C   -0.091420
    98  C    0.137492
    99  C    0.086502
   100  C    0.050590
   101  O   -0.254279
   102  C   -0.015913
   103  N   -0.338954
   104  C    0.021605
   105  C   -0.060539
   106  C   -0.070181
   107  C    0.099469
   108  C    0.042825
   109  C   -0.080118
   110  C   -0.049139
   111  N   -0.490625
   112  C    0.148569
   113  C   -0.176985
   114  C   -0.002898
   115  C    0.149886
   116  C    0.086401
   117  C    0.098130
   118  O   -0.147918
   119  C   -0.096012
   120  C    0.242444
   121  O   -0.238864
   122  O   -0.307661
   123  C    0.142521
   124  H   -0.014113
   125  H    0.029250
   126  H   -0.002784
   127  H    0.038309
   128  H    0.038313
   129  H    0.051401
   130  H    0.031675
   131  H    0.048801
   132  H    0.033922
   133  H    0.055378
   134  H    0.057882
   135  H    0.053645
   136  H    0.043265
   137  H    0.038338
   138  H    0.040749
   139  H    0.061036
   140  H    0.043064
   141  H    0.063668
   142  H    0.034151
   143  H    0.027229
   144  H    0.046880
   145  H    0.034365
   146  H    0.035824
   147  H    0.045141
   148  H    0.024669
   149  H    0.049019
   150  H    0.035483
   151  H    0.048070
   152  H    0.042284
   153  H    0.049055
   154  H    0.057011
   155  H    0.052533
   156  H    0.057998
   157  H    0.053158
   158  H    0.022744
 Sum of Mulliken charges =  -0.00000

 Dipole moment (field-independent basis, Debye):
    X=             -5.2618    Y=             -2.6742    Z=             -0.4051  Tot=              5.9162
 Quadrupole moment (field-independent basis, Debye-Ang):
   XX=           -456.7457   YY=           -490.8501   ZZ=           -512.4640
   XY=            -14.6211   XZ=             -6.0074   YZ=              6.7339

 Normal termination of Gaussian 16 at Sun Sep 19 14:18:48 2021.
