 Gaussian 16, Revision A.03,
 Gaussian 16:  ES64L-G16RevA.03 25-Dec-2016

 --------------------------------
 #p wB97XD/Def2SVP td=(nstates=5)
 --------------------------------

 --------------------------------
 TDDFT excited states in gaussian
 --------------------------------
 Symbolic Z-matrix:
 Charge =  0 Multiplicity = 1

                         Standard orientation:
 ---------------------------------------------------------------------
 Center     Atomic      Atomic             Coordinates (Angstroms)
 Number     Number       Type             X           Y           Z
 ---------------------------------------------------------------------
      1         12           0        9.300230   -0.406699   -0.096320
      2          6           0        7.523356    2.493105   -1.259246
      3          6           0       11.635618    1.862130    1.306984
      4          6           0       11.254583   -3.080362    1.011986
      5          6           0        7.260002   -2.440243   -1.788204
      6          7           0        9.612571    1.991689   -0.199116
      7          6           0        8.701313    2.895860   -0.617911
      8          6           0        9.261931    4.350459   -0.422892
      9          6           0       10.665968    4.033063    0.205269
     10          6           0       10.635095    2.525505    0.546226
     11          6           0       11.848644    4.440421   -0.741254
     12          6           0        8.390632    5.220151    0.483057
     13          6           0        8.149308    6.619822    0.021228
     14          1           0        7.201762    7.513460    0.834533
     15          7           0       11.027087   -0.619987    1.151327
     16          6           0       11.820104    0.432402    1.596563
     17          6           0       12.889273   -0.120562    2.404088
     18          6           0       12.763273   -1.499593    2.431802
     19          6           0       11.681941   -1.807008    1.436008
     20          6           0       14.026980    0.674446    2.977406
     21          6           0       13.647351   -2.613845    3.127688
     22          8           0       13.478364   -3.808471    3.107070
     23          6           0       14.747366   -2.178488    4.071445
     24          7           0        9.383422   -2.399716   -0.444212
     25          6           0       10.226387   -3.345599    0.078382
     26          6           0       10.021860   -4.733944   -0.571633
     27          6           0        8.602575   -4.583649   -1.267631
     28          6           0        8.385593   -3.028598   -1.128378
     29          6           0       11.195071   -5.144345   -1.518049
     30          6           0        7.463674   -5.414295   -0.601629
     31          6           0        7.045617   -4.962985    0.795997
     32          7           0        7.755875   -0.125815   -1.293405
     33          6           0        6.911137   -1.090245   -1.910321
     34          6           0        5.849685   -0.432575   -2.669276
     35          6           0        6.028591    0.934884   -2.393321
     36          6           0        7.167213    1.088850   -1.558841
     37          6           0        4.818403   -1.096481   -3.457754
     38          6           0        5.449491    2.239984   -2.695075
     39          8           0        4.440895    2.514669   -3.323378
     40          6           0        6.450336    3.337326   -2.041849
     41          6           0        5.444326    4.136548   -1.210056
     42          8           0        4.866607    3.798174   -0.161309
     43          8           0        5.204245    5.283747   -1.820868
     44          6           0        4.467387    6.382876   -1.074625
     45          1           0       12.306482    2.570218    1.797289
     46          1           0       11.805777   -3.976870    1.306375
     47          1           0        6.589969   -3.165074   -2.254614
     48          1           0        9.219448    4.787475   -1.419979
     49          1           0       10.803629    4.540595    1.160969
     50          1           0       12.591797    5.113982   -0.314479
     51          1           0       11.533349    4.754621   -1.736405
     52          1           0       12.555512    3.649704   -0.993662
     53          1           0        9.097458    5.462960    1.276691
     54          1           0        7.518319    4.695074    0.873805
     55          1           0        7.853487    6.809401   -1.011864
     56          1           0        9.132744    7.079722    0.119043
     57          1           0       13.858517    1.745395    2.867269
     58          1           0       15.007048    0.457078    2.549923
     59          1           0       14.186778    0.562464    4.049924
     60          1           0       14.368069   -1.595698    4.910773
     61          1           0       15.407238   -1.634105    3.395858
     62          1           0       15.260852   -3.112594    4.299287
     63          1           0       10.094103   -5.423604    0.270086
     64          1           0        8.571686   -4.618954   -2.356846
     65          1           0       11.783814   -5.972179   -1.122948
     66          1           0       11.869522   -4.364517   -1.869985
     67          1           0       10.642937   -5.447187   -2.407916
     68          1           0        7.684983   -6.467508   -0.775014
     69          1           0        6.567230   -5.273660   -1.205302
     70          1           0        7.652480   -4.177132    1.244249
     71          1           0        7.150995   -5.844023    1.428571
     72          1           0        6.070809   -4.481844    0.866923
     73          1           0        4.118305   -0.427407   -3.958465
     74          1           0        4.290230   -1.734181   -2.749011
     75          1           0        5.322400   -1.741726   -4.178700
     76          1           0        6.816892    4.053314   -2.777420
     77          1           0        4.670252    7.300075   -1.627959
     78          1           0        4.861979    6.554114   -0.073549
     79          1           0        3.401845    6.185801   -0.951207
     80         12           0       -8.589986   -0.941991    0.258454
     81          6           0      -11.010422    1.533244    0.587265
     82          6           0       -6.164636    1.473098    0.425466
     83          6           0       -6.287465   -3.370071   -0.387345
     84          6           0      -11.278847   -3.231535   -0.143216
     85          7           0       -8.587078    1.242889    0.444591
     86          6           0       -9.703034    2.000049    0.685693
     87          6           0       -9.212970    3.430739    0.922238
     88          6           0       -7.736480    3.424903    0.568383
     89          6           0       -7.468537    1.925322    0.509747
     90          6           0       -7.253675    4.169613   -0.647261
     91          6           0       -9.548689    4.046078    2.363382
     92          6           0       -8.868797    5.412993    2.696458
     93          1           0       -9.627348    6.721828    2.353505
     94          7           0       -6.515527   -0.943768    0.199777
     95          6           0       -5.702867    0.140586    0.257279
     96          6           0       -4.358294   -0.342083    0.077773
     97          6           0       -4.405690   -1.746662   -0.163308
     98          6           0       -5.757544   -2.085356   -0.152100
     99          6           0       -3.198693    0.603414    0.142101
    100          6           0       -3.201424   -2.659316   -0.536763
    101          8           0       -3.359330   -3.748936   -1.057688
    102          6           0       -1.812174   -2.249036   -0.412152
    103          7           0       -8.772408   -2.882868   -0.167047
    104          6           0       -7.685767   -3.735731   -0.358264
    105          6           0       -8.115290   -5.195187   -0.587857
    106          6           0       -9.637607   -5.136678   -0.222706
    107          6           0       -9.900278   -3.642784   -0.127058
    108          6           0       -7.675897   -5.823712   -1.845154
    109          6           0      -10.184577   -5.979789    1.057963
    110          6           0      -11.264978   -7.051134    0.882452
    111          7           0      -10.783359   -0.889296    0.166945
    112          6           0      -11.686344   -1.898747   -0.015975
    113          6           0      -13.022724   -1.407824    0.019463
    114          6           0      -12.819839   -0.011425    0.340974
    115          6           0      -11.421459    0.252260    0.327989
    116          6           0      -14.228435   -2.255543   -0.127838
    117          6           0      -13.512765    1.204268    0.700915
    118          8           0      -14.677400    1.484790    0.905957
    119          6           0      -12.298050    2.293322    0.868934
    120          6           0      -12.558657    3.525489    0.081756
    121          8           0      -12.580986    3.558060   -1.129099
    122          8           0      -12.752931    4.603549    0.861425
    123          6           0      -12.771797    5.955277    0.181256
    124          1           0       -5.385616    2.231293    0.531647
    125          1           0       -5.529748   -4.127203   -0.598822
    126          1           0      -11.951338   -4.083984   -0.261136
    127          1           0       -9.803646    3.954973    0.171112
    128          1           0       -7.171870    3.893284    1.374182
    129          1           0       -7.050696    3.320488   -1.299138
    130          1           0       -6.398182    4.811029   -0.435064
    131          1           0       -8.053483    4.720753   -1.142352
    132          1           0       -9.169654    3.266875    3.024990
    133          1           0      -10.626339    4.160762    2.473981
    134          1           0       -7.921019    5.529221    2.172305
    135          1           0       -8.641131    5.420042    3.762385
    136          1           0       -3.393023    1.642081    0.411322
    137          1           0       -2.811246    0.657895   -0.874719
    138          1           0       -2.373848    0.227987    0.748053
    139          1           0       -1.490904   -1.283741   -0.802070
    140          1           0       -1.076194   -2.973801   -0.759974
    141          1           0       -1.669214   -2.272387    0.667977
    142          1           0       -7.572615   -5.634123    0.249809
    143          1           0      -10.051229   -5.447632   -1.181908
    144          1           0       -6.990859   -6.668037   -1.763501
    145          1           0       -7.188057   -5.052566   -2.441922
    146          1           0       -8.486797   -6.245153   -2.439099
    147          1           0      -10.584004   -5.260346    1.772524
    148          1           0       -9.449142   -6.521937    1.653574
    149          1           0      -12.263264   -6.753808    1.204637
    150          1           0      -10.993388   -8.040157    1.250378
    151          1           0      -11.422968   -7.177156   -0.188738
    152          1           0      -14.073402   -2.932458   -0.967655
    153          1           0      -15.143404   -1.672129   -0.227042
    154          1           0      -14.221084   -2.971716    0.694463
    155          1           0      -12.318931    2.586313    1.918111
    156          1           0      -13.290746    6.569544    0.916755
    157          1           0      -13.316677    5.864647   -0.758204
    158          1           0      -11.732677    6.271520    0.088852
 ---------------------------------------------------------------------

 SCF Done:  E(RwB97XD) =  -4070.59771488     A.U. after   17 cycles

 Excitation energies and oscillator strengths:

 Excited State   1:      Singlet-A      1.5858 eV  781.84 nm  f=0.5217  <S**2>=0.000
     309 -> 315       -0.18468
     311 -> 313        0.66744
     312 -> 314       -0.14724
     309 <- 315       -0.11969
 This state for optimization and/or second-order correction.
 Total Energy, E(TD-HF/TD-DFT) =  -4070.53943793
 Copying the excited state density for this state as the 1-particle RhoCI density.

 Excited State   2:      Singlet-A      1.6423 eV  754.93 nm  f=0.2790  <S**2>=0.000
     310 -> 316       -0.18084
     311 -> 313        0.14564
     312 -> 314        0.66753
     310 <- 316       -0.11502

 Excited State   3:      Singlet-A      2.1586 eV  574.37 nm  f=0.0443  <S**2>=0.000
     309 -> 313        0.60387
     310 -> 314        0.16193
     311 -> 315        0.31081

 Excited State   4:      Singlet-A      2.1643 eV  572.87 nm  f=0.1296  <S**2>=0.000
     309 -> 313       -0.15908
     310 -> 314        0.60915
     312 -> 316        0.29384

 Excited State   5:      Singlet-A      3.4008 eV  364.57 nm  f=0.0000  <S**2>=0.000
     312 -> 313        0.70658

 The electronic state is 1-A.
 Alpha  occ. eigenvalues --  -46.94803 -46.94017 -19.30402 -19.29471 -19.24691
 Alpha  occ. eigenvalues --  -19.24620 -19.23857 -19.23523 -19.23234 -19.23025
 Alpha  occ. eigenvalues --  -14.47239 -14.47130 -14.46410 -14.46311 -14.44905
 Alpha  occ. eigenvalues --  -14.44484 -14.43472 -14.42819 -10.42580 -10.41623
 Alpha  occ. eigenvalues --  -10.39727 -10.39635 -10.39295 -10.38481 -10.36257
 Alpha  occ. eigenvalues --  -10.35707 -10.35651 -10.35541 -10.35483 -10.35444
 Alpha  occ. eigenvalues --  -10.35325 -10.35308 -10.34916 -10.34908 -10.34880
 Alpha  occ. eigenvalues --  -10.34244 -10.34200 -10.34120 -10.33667 -10.33536
 Alpha  occ. eigenvalues --  -10.33418 -10.33147 -10.33079 -10.32919 -10.32832
 Alpha  occ. eigenvalues --  -10.32761 -10.32682 -10.32656 -10.32613 -10.32576
 Alpha  occ. eigenvalues --  -10.32561 -10.32407 -10.32229 -10.32005 -10.31981
 Alpha  occ. eigenvalues --  -10.31887 -10.31827 -10.31506 -10.31427 -10.31374
 Alpha  occ. eigenvalues --  -10.31297 -10.31128 -10.31067 -10.31003 -10.30986
 Alpha  occ. eigenvalues --  -10.30910 -10.30896 -10.30851 -10.30849 -10.30755
 Alpha  occ. eigenvalues --  -10.30750 -10.30695 -10.30512 -10.30246 -10.30214
 Alpha  occ. eigenvalues --  -10.30083 -10.30054 -10.29947 -10.29739 -10.29692
 Alpha  occ. eigenvalues --  -10.29648 -10.29373 -10.29366 -10.29264 -10.29176
 Alpha  occ. eigenvalues --  -10.29094  -3.20932  -3.20093  -1.94510  -1.94072
 Alpha  occ. eigenvalues --   -1.93905  -1.93705  -1.93219  -1.93070  -1.18389
 Alpha  occ. eigenvalues --   -1.17846  -1.13834  -1.12948  -1.12493  -1.11545
 Alpha  occ. eigenvalues --   -1.08752  -1.07739  -1.07027  -1.05950  -1.05920
 Alpha  occ. eigenvalues --   -1.05298  -1.05135  -1.04443  -1.04205  -1.03922
 Alpha  occ. eigenvalues --   -0.94195  -0.93014  -0.91280  -0.90862  -0.90762
 Alpha  occ. eigenvalues --   -0.90408  -0.90098  -0.90071  -0.89486  -0.89285
 Alpha  occ. eigenvalues --   -0.89062  -0.88678  -0.88576  -0.88422  -0.86342
 Alpha  occ. eigenvalues --   -0.86220  -0.85636  -0.85424  -0.84453  -0.84274
 Alpha  occ. eigenvalues --   -0.84177  -0.83594  -0.83179  -0.83149  -0.82513
 Alpha  occ. eigenvalues --   -0.82311  -0.80528  -0.80276  -0.79523  -0.79387
 Alpha  occ. eigenvalues --   -0.79068  -0.78988  -0.78086  -0.77652  -0.77232
 Alpha  occ. eigenvalues --   -0.76883  -0.74761  -0.74559  -0.73796  -0.73592
 Alpha  occ. eigenvalues --   -0.72127  -0.71105  -0.70910  -0.70676  -0.70026
 Alpha  occ. eigenvalues --   -0.69685  -0.68702  -0.68431  -0.67603  -0.67342
 Alpha  occ. eigenvalues --   -0.67228  -0.67184  -0.66783  -0.66409  -0.66262
 Alpha  occ. eigenvalues --   -0.66000  -0.64003  -0.63250  -0.62285  -0.61768
 Alpha  occ. eigenvalues --   -0.61500  -0.61475  -0.61101  -0.60750  -0.60619
 Alpha  occ. eigenvalues --   -0.59889  -0.59756  -0.59544  -0.59043  -0.58414
 Alpha  occ. eigenvalues --   -0.58121  -0.57815  -0.57622  -0.57496  -0.57217
 Alpha  occ. eigenvalues --   -0.57110  -0.56743  -0.56534  -0.56302  -0.56100
 Alpha  occ. eigenvalues --   -0.55580  -0.55438  -0.55329  -0.55048  -0.54882
 Alpha  occ. eigenvalues --   -0.54843  -0.54637  -0.54500  -0.54326  -0.54217
 Alpha  occ. eigenvalues --   -0.54066  -0.53830  -0.53653  -0.53102  -0.53045
 Alpha  occ. eigenvalues --   -0.53035  -0.52714  -0.52583  -0.52228  -0.52206
 Alpha  occ. eigenvalues --   -0.51990  -0.51902  -0.51733  -0.51661  -0.51383
 Alpha  occ. eigenvalues --   -0.51350  -0.51161  -0.51100  -0.51054  -0.50861
 Alpha  occ. eigenvalues --   -0.50778  -0.50691  -0.50546  -0.50351  -0.50234
 Alpha  occ. eigenvalues --   -0.49931  -0.49623  -0.49525  -0.49462  -0.49182
 Alpha  occ. eigenvalues --   -0.48843  -0.48833  -0.48752  -0.48535  -0.48487
 Alpha  occ. eigenvalues --   -0.48305  -0.48303  -0.48288  -0.47980  -0.47923
 Alpha  occ. eigenvalues --   -0.47807  -0.47608  -0.47429  -0.47019  -0.46878
 Alpha  occ. eigenvalues --   -0.46822  -0.46550  -0.46506  -0.46229  -0.46130
 Alpha  occ. eigenvalues --   -0.46075  -0.45994  -0.45770  -0.45724  -0.45649
 Alpha  occ. eigenvalues --   -0.45460  -0.45243  -0.45157  -0.45079  -0.44997
 Alpha  occ. eigenvalues --   -0.44660  -0.44593  -0.44434  -0.44228  -0.43945
 Alpha  occ. eigenvalues --   -0.43729  -0.43548  -0.43508  -0.43290  -0.43033
 Alpha  occ. eigenvalues --   -0.43023  -0.42643  -0.42419  -0.42277  -0.42084
 Alpha  occ. eigenvalues --   -0.41943  -0.41635  -0.41266  -0.41248  -0.41010
 Alpha  occ. eigenvalues --   -0.40690  -0.40511  -0.40156  -0.39728  -0.39574
 Alpha  occ. eigenvalues --   -0.39023  -0.38893  -0.38685  -0.38258  -0.38085
 Alpha  occ. eigenvalues --   -0.37899  -0.37856  -0.36080  -0.36014  -0.35836
 Alpha  occ. eigenvalues --   -0.35524  -0.34961  -0.34792  -0.33781  -0.33159
 Alpha  occ. eigenvalues --   -0.33017  -0.33012  -0.32966  -0.32686  -0.32336
 Alpha  occ. eigenvalues --   -0.32032  -0.31671  -0.31012  -0.26203  -0.25920
 Alpha  occ. eigenvalues --   -0.22933  -0.22720
 Alpha virt. eigenvalues --   -0.07243  -0.06943  -0.00298   0.00241   0.02519
 Alpha virt. eigenvalues --    0.02896   0.04304   0.05051   0.06314   0.06674
 Alpha virt. eigenvalues --    0.07412   0.07522   0.07770   0.08117   0.08289

 Mulliken charges:
               1
     1  Mg   0.987997
     2  C    0.030304
     3  C   -0.071621
     4  C   -0.057152
     5  C   -0.105121
     6  N   -0.311560
     7  C   -0.008713
     8  C   -0.088324
     9  C   -0.083078
    10  C    0.047831
    11  C    0.015967
    12  C    0.051359
    13  C   -0.150292
    14  H    0.031227
    15  N   -0.450397
    16  C    0.180847
    17  C   -0.160903
    18  C   -0.081654
    19  C    0.134333
    20  C    0.055338
    21  C    0.057241
    22  O   -0.215682
    23  C   -0.009783
    24  N   -0.398598
    25  C    0.036715
    26  C   -0.083247
    27  C   -0.076505
    28  C    0.060577
    29  C    0.027188
    30  C   -0.006125
    31  C   -0.051298
    32  N   -0.527169
    33  C    0.158311
    34  C   -0.164242
    35  C   -0.042313
    36  C    0.161994
    37  C    0.081427
    38  C    0.128057
    39  O   -0.199806
    40  C   -0.129668
    41  C    0.252145
    42  O   -0.288198
    43  O   -0.341347
    44  C    0.147993
    45  H   -0.001159
    46  H    0.023310
    47  H   -0.005835
    48  H    0.039292
    49  H    0.035293
    50  H    0.033354
    51  H    0.038521
    52  H    0.025910
    53  H    0.023569
    54  H    0.068557
    55  H    0.048360
    56  H    0.037977
    57  H    0.022475
    58  H    0.056134
    59  H    0.038051
    60  H    0.076625
    61  H    0.035308
    62  H    0.053569
    63  H    0.041027
    64  H    0.043364
    65  H    0.048591
    66  H    0.047321
    67  H    0.024634
    68  H    0.040036
    69  H    0.022495
    70  H    0.040399
    71  H    0.045833
    72  H    0.041630
    73  H    0.064839
    74  H    0.050639
    75  H    0.045441
    76  H    0.067900
    77  H    0.058317
    78  H    0.052535
    79  H    0.071634
    80  Mg   0.969768
    81  C    0.027164
    82  C   -0.088059
    83  C   -0.072253
    84  C   -0.105853
    85  N   -0.331545
    86  C   -0.007224
    87  C   -0.044035
    88  C   -0.151940
    89  C    0.059803
    90  C    0.050752
    91  C    0.000338
    92  C   -0.115374
    93  H    0.028548
    94  N   -0.488414
    95  C    0.172335
    96  C   -0.165886
    97  C   -0.057821
    98  C    0.126362
    99  C    0.052491
   100  C    0.071688
   101  O   -0.234711
   102  C   -0.004880
   103  N   -0.422923
   104  C    0.061168
   105  C   -0.086855
   106  C   -0.053387
   107  C    0.048166
   108  C    0.043138
   109  C   -0.002563
   110  C   -0.068953
   111  N   -0.373675
   112  C    0.159652
   113  C   -0.167182
   114  C   -0.076440
   115  C    0.112814
   116  C    0.102543
   117  C    0.145096
   118  O   -0.193859
   119  C   -0.138498
   120  C    0.241161
   121  O   -0.254444
   122  O   -0.372502
   123  C    0.133590
   124  H   -0.015179
   125  H    0.028347
   126  H    0.001137
   127  H    0.035136
   128  H    0.022086
   129  H    0.039526
   130  H    0.044119
   131  H    0.038246
   132  H    0.034480
   133  H    0.060657
   134  H    0.043969
   135  H    0.058934
   136  H    0.040566
   137  H    0.052264
   138  H    0.049254
   139  H    0.060193
   140  H    0.048684
   141  H    0.049911
   142  H    0.038180
   143  H    0.031537
   144  H    0.040131
   145  H    0.046938
   146  H    0.027636
   147  H    0.036091
   148  H    0.035181
   149  H    0.039268
   150  H    0.045374
   151  H    0.018376
   152  H    0.034493
   153  H    0.072346
   154  H    0.043930
   155  H    0.067112
   156  H    0.062358
   157  H    0.081829
   158  H    0.059592
 Sum of Mulliken charges =  -0.00000

 Dipole moment (field-independent basis, Debye):
    X=              9.6429    Y=              0.6359    Z=              2.2108  Tot=              9.9135
 Quadrupole moment (field-independent basis, Debye-Ang):
   XX=           -547.2036   YY=           -447.7536   ZZ=           -519.9946
   XY=             55.0627   XZ=            -14.2459   YZ=             17.4018

 Normal termination of Gaussian 16 at Sun Sep 19 10:49:23 2021.
