 Gaussian 16, Revision A.03,
 Gaussian 16:  ES64L-G16RevA.03 25-Dec-2016

 --------------------------------
 #p wB97XD/Def2SVP td=(nstates=5)
 --------------------------------

 --------------------------------
 TDDFT excited states in gaussian
 --------------------------------
 Symbolic Z-matrix:
 Charge =  0 Multiplicity = 1

                         Standard orientation:
 ---------------------------------------------------------------------
 Center     Atomic      Atomic             Coordinates (Angstroms)
 Number     Number       Type             X           Y           Z
 ---------------------------------------------------------------------
      1         12           0       25.312439   -0.596492    0.376978
      2          6           0       26.660185    1.963694   -1.658944
      3          6           0       24.036553    1.829872    2.473772
      4          6           0       24.286396   -3.063865    2.460467
      5          6           0       26.808368   -3.022146   -1.664542
      6          7           0       25.487751    1.610599    0.371661
      7          6           0       25.886685    2.458116   -0.659167
      8          6           0       25.569285    3.971697   -0.318954
      9          6           0       24.993090    3.860101    1.117730
     10          6           0       24.865251    2.344764    1.391247
     11          6           0       25.771169    4.572004    2.286884
     12          6           0       24.732891    4.781473   -1.392457
     13          6           0       25.418149    5.988723   -1.957554
     14          1           0       24.494483    7.235917   -2.253929
     15          7           0       24.334112   -0.562237    2.168820
     16          6           0       23.818006    0.512651    2.863800
     17          6           0       23.193907    0.041099    4.090110
     18          6           0       23.237006   -1.381199    4.134933
     19          6           0       23.962777   -1.747409    2.863375
     20          6           0       22.446727    0.952959    5.084042
     21          6           0       22.666054   -2.350469    5.164996
     22          8           0       22.693452   -3.558027    5.044884
     23          6           0       21.873831   -1.906649    6.462451
     24          7           0       25.608380   -2.760353    0.437438
     25          6           0       25.087967   -3.529186    1.385040
     26          6           0       25.390891   -5.050759    1.141798
     27          6           0       26.039478   -5.040808   -0.298850
     28          6           0       26.148436   -3.508367   -0.561597
     29          6           0       26.214282   -5.674758    2.305457
     30          6           0       25.221838   -5.832836   -1.299894
     31          6           0       26.057736   -6.693039   -2.245965
     32          7           0       26.615128   -0.640435   -1.247949
     33          6           0       27.063384   -1.682560   -2.036743
     34          6           0       27.924605   -1.122765   -3.032453
     35          6           0       27.782746    0.285950   -2.976558
     36          6           0       26.962905    0.566759   -1.848116
     37          6           0       28.737217   -1.884412   -4.009661
     38          6           0       28.120028    1.550164   -3.653832
     39          8           0       28.883633    1.824631   -4.574958
     40          6           0       27.291417    2.745794   -2.746346
     41          6           0       28.223675    3.718042   -2.267261
     42          8           0       28.614156    3.793867   -1.122470
     43          8           0       28.516272    4.639373   -3.247315
     44          6           0       29.525329    5.636942   -2.812159
     45          1           0       23.511665    2.558631    3.095251
     46          1           0       24.023056   -3.894251    3.118134
     47          1           0       27.163638   -3.841529   -2.293948
     48          1           0       26.549419    4.413449   -0.142510
     49          1           0       23.981622    4.264391    1.158619
     50          1           0       25.016082    5.014376    2.937442
     51          1           0       26.432577    5.321905    1.853655
     52          1           0       26.385008    3.903656    2.891041
     53          1           0       23.792283    5.036274   -0.903964
     54          1           0       24.557510    4.103587   -2.227983
     55          1           0       25.888523    5.732718   -2.907837
     56          1           0       26.180063    6.217681   -1.212994
     57          1           0       21.401415    0.656360    5.005345
     58          1           0       22.464543    1.976062    4.707735
     59          1           0       22.747116    0.865277    6.128897
     60          1           0       21.028381   -1.295208    6.145246
     61          1           0       22.529321   -1.546009    7.255703
     62          1           0       21.598771   -2.844695    6.943715
     63          1           0       24.494043   -5.662748    1.047823
     64          1           0       27.053546   -5.419437   -0.169249
     65          1           0       27.071893   -6.194435    1.877265
     66          1           0       25.620362   -6.307768    2.965227
     67          1           0       26.595265   -4.882973    2.948377
     68          1           0       24.571034   -5.194265   -1.896308
     69          1           0       24.481293   -6.495246   -0.848983
     70          1           0       27.119723   -6.462319   -2.161360
     71          1           0       25.736374   -6.434186   -3.255228
     72          1           0       25.838125   -7.756182   -2.146730
     73          1           0       28.693721   -2.972293   -3.958412
     74          1           0       29.716357   -1.404239   -4.026246
     75          1           0       28.169857   -1.766952   -4.933230
     76          1           0       26.554116    3.228695   -3.388301
     77          1           0       30.451851    5.130958   -2.539901
     78          1           0       29.055347    6.209943   -2.012897
     79          1           0       29.806062    6.330047   -3.604230
     80         12           0      -25.420527   -0.702430   -0.341413
     81          6           0      -26.251515    2.508811    1.007209
     82          6           0      -25.064723    0.742297   -3.436583
     83          6           0      -25.085429   -3.737293   -1.785412
     84          6           0      -26.755248   -2.106336    2.606285
     85          7           0      -25.628008    1.382298   -1.088164
     86          6           0      -25.901907    2.561716   -0.377864
     87          6           0      -25.793753    3.737671   -1.314411
     88          6           0      -25.936890    3.051459   -2.738032
     89          6           0      -25.569100    1.576667   -2.400448
     90          6           0      -27.427293    3.214770   -3.204816
     91          6           0      -24.528240    4.634978   -1.076393
     92          6           0      -24.884425    6.034945   -1.126524
     93          1           0      -23.766495    7.042257   -0.551823
     94          7           0      -24.944003   -1.301028   -2.333957
     95          6           0      -24.805502   -0.556927   -3.437781
     96          6           0      -24.378869   -1.390426   -4.519481
     97          6           0      -24.390340   -2.699997   -4.087319
     98          6           0      -24.779832   -2.649695   -2.602832
     99          6           0      -24.188967   -0.839747   -5.968547
    100          6           0      -23.984513   -3.978315   -4.849300
    101          8           0      -24.097838   -5.046174   -4.302680
    102          6           0      -23.367121   -3.895014   -6.225377
    103          7           0      -26.129390   -2.633752    0.252365
    104          6           0      -25.721027   -3.732813   -0.495237
    105          6           0      -25.910264   -4.998604    0.275729
    106          6           0      -26.429098   -4.480415    1.704810
    107          6           0      -26.383149   -2.978022    1.554814
    108          6           0      -26.789564   -5.982692   -0.419016
    109          6           0      -25.632353   -4.997895    3.024829
    110          6           0      -26.381727   -5.783775    4.026913
    111          7           0      -26.282974   -0.008041    1.487093
    112          6           0      -26.767347   -0.726707    2.556736
    113          6           0      -27.193534    0.270180    3.632571
    114          6           0      -26.903273    1.548385    3.114716
    115          6           0      -26.399799    1.326280    1.785148
    116          6           0      -27.830774   -0.117175    4.973994
    117          6           0      -27.083008    2.941152    3.392863
    118          8           0      -27.526923    3.513468    4.413745
    119          6           0      -26.832320    3.628253    1.988111
    120          6           0      -25.934291    4.865655    2.289255
    121          8           0      -24.708658    4.829525    2.075333
    122          8           0      -26.704175    5.905165    2.694796
    123          6           0      -25.805909    7.012141    3.172104
    124          1           0      -24.733308    1.212837   -4.364993
    125          1           0      -24.965164   -4.730545   -2.224480
    126          1           0      -27.091166   -2.442531    3.589304
    127          1           0      -26.707643    4.313546   -1.170317
    128          1           0      -25.284403    3.514767   -3.477253
    129          1           0      -28.123602    2.563645   -2.676918
    130          1           0      -27.475301    3.061841   -4.282129
    131          1           0      -27.735503    4.246740   -3.035446
    132          1           0      -23.897615    4.509705   -1.956897
    133          1           0      -23.980573    4.340388   -0.180880
    134          1           0      -25.705090    6.256551   -0.444036
    135          1           0      -25.103944    6.278370   -2.166362
    136          1           0      -23.167580   -1.136029   -6.207310
    137          1           0      -24.251243    0.244531   -6.059848
    138          1           0      -24.950261   -1.258888   -6.626328
    139          1           0      -23.223714   -4.892277   -6.641459
    140          1           0      -22.444862   -3.404146   -5.914743
    141          1           0      -24.015855   -3.281437   -6.850426
    142          1           0      -24.891366   -5.377005    0.360046
    143          1           0      -27.458579   -4.824020    1.802704
    144          1           0      -26.113930   -6.782826   -0.718684
    145          1           0      -27.193895   -5.604614   -1.357869
    146          1           0      -27.627356   -6.361093    0.167110
    147          1           0      -25.378626   -4.058140    3.515246
    148          1           0      -24.710960   -5.471586    2.688714
    149          1           0      -26.429414   -5.261476    4.982086
    150          1           0      -25.650061   -6.585031    4.124836
    151          1           0      -27.316188   -6.194434    3.642066
    152          1           0      -28.906910   -0.066774    4.812005
    153          1           0      -27.551703    0.560742    5.780566
    154          1           0      -27.473221   -1.105512    5.262963
    155          1           0      -27.835594    3.910482    1.671847
    156          1           0      -25.335271    6.836451    4.139299
    157          1           0      -26.276665    7.993594    3.218832
    158          1           0      -25.053610    7.131282    2.392132
 ---------------------------------------------------------------------

 SCF Done:  E(RwB97XD) =  -4070.57744030     A.U. after   20 cycles

 Excitation energies and oscillator strengths:

 Excited State   1:      Singlet-A      1.6768 eV  739.41 nm  f=0.3518  <S**2>=0.000
     309 -> 315       -0.19187
     312 -> 314        0.68018
     309 <- 315       -0.11547
 This state for optimization and/or second-order correction.
 Total Energy, E(TD-HF/TD-DFT) =  -4070.51581891
 Copying the excited state density for this state as the 1-particle RhoCI density.

 Excited State   2:      Singlet-A      1.7609 eV  704.09 nm  f=0.3730  <S**2>=0.000
     310 -> 316       -0.17859
     311 -> 313        0.68336
     310 <- 316       -0.10772

 Excited State   3:      Singlet-A      2.2096 eV  561.13 nm  f=0.1120  <S**2>=0.000
     310 -> 313        0.63741
     311 -> 316        0.28424

 Excited State   4:      Singlet-A      2.2164 eV  559.40 nm  f=0.0063  <S**2>=0.000
     309 -> 314        0.55056
     312 -> 315        0.43362

 Excited State   5:      Singlet-A      3.4492 eV  359.46 nm  f=0.0261  <S**2>=0.000
     303 -> 313       -0.29758
     308 -> 313        0.60863

 The electronic state is 1-A.
 Alpha  occ. eigenvalues --  -46.95778 -46.94584 -19.31373 -19.29491 -19.24970
 Alpha  occ. eigenvalues --  -19.24712 -19.24547 -19.24364 -19.24086 -19.23784
 Alpha  occ. eigenvalues --  -14.46906 -14.46888 -14.46494 -14.46344 -14.45023
 Alpha  occ. eigenvalues --  -14.43988 -14.43731 -14.43282 -10.43577 -10.42077
 Alpha  occ. eigenvalues --  -10.40461 -10.39974 -10.39677 -10.38904 -10.36674
 Alpha  occ. eigenvalues --  -10.36179 -10.35454 -10.35409 -10.35367 -10.35362
 Alpha  occ. eigenvalues --  -10.35292 -10.35287 -10.34966 -10.34950 -10.34468
 Alpha  occ. eigenvalues --  -10.34449 -10.34154 -10.33753 -10.33131 -10.33086
 Alpha  occ. eigenvalues --  -10.33063 -10.33016 -10.32981 -10.32784 -10.32672
 Alpha  occ. eigenvalues --  -10.32609 -10.32595 -10.32393 -10.32235 -10.32185
 Alpha  occ. eigenvalues --  -10.32096 -10.32057 -10.32054 -10.32020 -10.31978
 Alpha  occ. eigenvalues --  -10.31915 -10.31862 -10.31673 -10.31647 -10.31442
 Alpha  occ. eigenvalues --  -10.31403 -10.31403 -10.31174 -10.31049 -10.30890
 Alpha  occ. eigenvalues --  -10.30846 -10.30699 -10.30662 -10.30600 -10.30511
 Alpha  occ. eigenvalues --  -10.30391 -10.30360 -10.30309 -10.30136 -10.30128
 Alpha  occ. eigenvalues --  -10.29884 -10.29796 -10.29788 -10.29691 -10.29226
 Alpha  occ. eigenvalues --  -10.29090 -10.29019 -10.28930 -10.28923 -10.28850
 Alpha  occ. eigenvalues --  -10.28820  -3.21580  -3.20550  -1.95160  -1.94685
 Alpha  occ. eigenvalues --   -1.94546  -1.94149  -1.93666  -1.93527  -1.18219
 Alpha  occ. eigenvalues --   -1.17961  -1.13996  -1.13802  -1.11442  -1.10054
 Alpha  occ. eigenvalues --   -1.09562  -1.09310  -1.06138  -1.06089  -1.05074
 Alpha  occ. eigenvalues --   -1.04693  -1.04549  -1.03970  -1.03432  -1.02947
 Alpha  occ. eigenvalues --   -0.93761  -0.93172  -0.90993  -0.90863  -0.90606
 Alpha  occ. eigenvalues --   -0.90300  -0.90048  -0.90017  -0.89504  -0.89267
 Alpha  occ. eigenvalues --   -0.89166  -0.88829  -0.87479  -0.87384  -0.86289
 Alpha  occ. eigenvalues --   -0.86285  -0.85672  -0.85507  -0.84561  -0.84472
 Alpha  occ. eigenvalues --   -0.84421  -0.83004  -0.82667  -0.82636  -0.82385
 Alpha  occ. eigenvalues --   -0.82061  -0.80457  -0.80217  -0.79472  -0.78836
 Alpha  occ. eigenvalues --   -0.78449  -0.78360  -0.77662  -0.77390  -0.76883
 Alpha  occ. eigenvalues --   -0.76685  -0.74218  -0.74157  -0.73419  -0.73295
 Alpha  occ. eigenvalues --   -0.71100  -0.70807  -0.70746  -0.69787  -0.69435
 Alpha  occ. eigenvalues --   -0.69418  -0.69152  -0.68322  -0.67535  -0.67020
 Alpha  occ. eigenvalues --   -0.66897  -0.66749  -0.66609  -0.66435  -0.66354
 Alpha  occ. eigenvalues --   -0.66291  -0.64044  -0.63130  -0.62095  -0.61962
 Alpha  occ. eigenvalues --   -0.61161  -0.61076  -0.60776  -0.60440  -0.60219
 Alpha  occ. eigenvalues --   -0.59948  -0.59755  -0.59390  -0.59036  -0.59013
 Alpha  occ. eigenvalues --   -0.58001  -0.57952  -0.57670  -0.57455  -0.57042
 Alpha  occ. eigenvalues --   -0.56721  -0.56260  -0.56136  -0.55964  -0.55911
 Alpha  occ. eigenvalues --   -0.55622  -0.55482  -0.55241  -0.55173  -0.54956
 Alpha  occ. eigenvalues --   -0.54877  -0.54622  -0.54554  -0.54502  -0.54399
 Alpha  occ. eigenvalues --   -0.54054  -0.53857  -0.53618  -0.53321  -0.53254
 Alpha  occ. eigenvalues --   -0.53047  -0.52782  -0.52508  -0.52490  -0.52309
 Alpha  occ. eigenvalues --   -0.52176  -0.52083  -0.52051  -0.51526  -0.51475
 Alpha  occ. eigenvalues --   -0.51458  -0.51360  -0.51050  -0.50879  -0.50638
 Alpha  occ. eigenvalues --   -0.50568  -0.50561  -0.50161  -0.49967  -0.49958
 Alpha  occ. eigenvalues --   -0.49918  -0.49783  -0.49680  -0.49479  -0.49362
 Alpha  occ. eigenvalues --   -0.48697  -0.48533  -0.48468  -0.48337  -0.48150
 Alpha  occ. eigenvalues --   -0.48128  -0.48003  -0.47921  -0.47762  -0.47470
 Alpha  occ. eigenvalues --   -0.47294  -0.47104  -0.46756  -0.46662  -0.46528
 Alpha  occ. eigenvalues --   -0.46455  -0.46418  -0.46293  -0.46024  -0.45966
 Alpha  occ. eigenvalues --   -0.45880  -0.45744  -0.45482  -0.45396  -0.45202
 Alpha  occ. eigenvalues --   -0.45197  -0.45161  -0.45000  -0.44986  -0.44778
 Alpha  occ. eigenvalues --   -0.44304  -0.44279  -0.44197  -0.43961  -0.43896
 Alpha  occ. eigenvalues --   -0.43837  -0.43409  -0.43398  -0.43138  -0.43031
 Alpha  occ. eigenvalues --   -0.42695  -0.42467  -0.42207  -0.42120  -0.41941
 Alpha  occ. eigenvalues --   -0.41711  -0.41569  -0.41315  -0.40766  -0.40605
 Alpha  occ. eigenvalues --   -0.40453  -0.39781  -0.39656  -0.39231  -0.39210
 Alpha  occ. eigenvalues --   -0.39176  -0.38985  -0.38900  -0.38229  -0.38082
 Alpha  occ. eigenvalues --   -0.37842  -0.36783  -0.36169  -0.36049  -0.35832
 Alpha  occ. eigenvalues --   -0.35786  -0.35336  -0.35202  -0.33946  -0.33919
 Alpha  occ. eigenvalues --   -0.33499  -0.33391  -0.32886  -0.32642  -0.32244
 Alpha  occ. eigenvalues --   -0.32185  -0.31471  -0.30755  -0.26212  -0.26023
 Alpha  occ. eigenvalues --   -0.23158  -0.22023
 Alpha virt. eigenvalues --   -0.06841  -0.05901  -0.00615   0.00147   0.02071
 Alpha virt. eigenvalues --    0.02089   0.04208   0.04459   0.05059   0.06014
 Alpha virt. eigenvalues --    0.06917   0.07259   0.07764   0.07908   0.08210

 Mulliken charges:
               1
     1  Mg   0.955580
     2  C    0.013557
     3  C   -0.100415
     4  C   -0.065580
     5  C   -0.066977
     6  N   -0.380793
     7  C   -0.011614
     8  C   -0.052092
     9  C   -0.156862
    10  C    0.113087
    11  C    0.022936
    12  C    0.049879
    13  C   -0.135526
    14  H    0.029624
    15  N   -0.510061
    16  C    0.184447
    17  C   -0.168053
    18  C   -0.051407
    19  C    0.184803
    20  C    0.065785
    21  C    0.037394
    22  O   -0.218199
    23  C   -0.018986
    24  N   -0.317975
    25  C    0.037612
    26  C   -0.121202
    27  C   -0.060575
    28  C    0.021306
    29  C    0.018085
    30  C    0.000735
    31  C   -0.057014
    32  N   -0.464004
    33  C    0.166421
    34  C   -0.208622
    35  C   -0.042167
    36  C    0.161390
    37  C    0.091186
    38  C    0.152365
    39  O   -0.199084
    40  C   -0.162889
    41  C    0.269655
    42  O   -0.250544
    43  O   -0.372367
    44  C    0.150495
    45  H   -0.008605
    46  H    0.020409
    47  H   -0.018285
    48  H    0.051698
    49  H    0.032782
    50  H    0.036895
    51  H    0.043464
    52  H    0.050795
    53  H    0.038830
    54  H    0.034400
    55  H    0.066060
    56  H    0.050644
    57  H    0.052566
    58  H    0.034082
    59  H    0.066440
    60  H    0.061584
    61  H    0.055636
    62  H    0.047375
    63  H    0.040340
    64  H    0.034397
    65  H    0.035217
    66  H    0.050597
    67  H    0.041486
    68  H    0.030937
    69  H    0.027951
    70  H    0.041064
    71  H    0.031080
    72  H    0.041227
    73  H    0.019057
    74  H    0.070175
    75  H    0.044822
    76  H    0.079915
    77  H    0.060074
    78  H    0.049471
    79  H    0.052085
    80  Mg   0.943183
    81  C    0.041634
    82  C   -0.129112
    83  C   -0.076191
    84  C   -0.077272
    85  N   -0.336203
    86  C   -0.017839
    87  C   -0.079352
    88  C   -0.155406
    89  C    0.135978
    90  C    0.022059
    91  C    0.093465
    92  C   -0.136469
    93  H    0.009020
    94  N   -0.446374
    95  C    0.165718
    96  C   -0.153236
    97  C   -0.107881
    98  C    0.165104
    99  C    0.056577
   100  C    0.032399
   101  O   -0.217398
   102  C    0.006410
   103  N   -0.392477
   104  C    0.060474
   105  C   -0.103416
   106  C   -0.058535
   107  C    0.088866
   108  C    0.029685
   109  C   -0.034562
   110  C   -0.028609
   111  N   -0.416781
   112  C    0.095672
   113  C   -0.195799
   114  C   -0.011695
   115  C    0.105193
   116  C    0.075071
   117  C    0.122611
   118  O   -0.234912
   119  C   -0.139099
   120  C    0.281240
   121  O   -0.275159
   122  O   -0.340448
   123  C    0.131734
   124  H   -0.010073
   125  H    0.029196
   126  H   -0.008265
   127  H    0.017206
   128  H    0.025382
   129  H    0.050745
   130  H    0.035138
   131  H    0.035645
   132  H    0.016162
   133  H    0.073606
   134  H    0.051825
   135  H    0.043262
   136  H    0.051704
   137  H    0.037608
   138  H    0.072686
   139  H    0.062073
   140  H    0.066192
   141  H    0.055547
   142  H    0.043033
   143  H    0.031509
   144  H    0.039716
   145  H    0.045870
   146  H    0.038579
   147  H    0.026804
   148  H    0.028180
   149  H    0.044937
   150  H    0.030305
   151  H    0.041857
   152  H    0.063117
   153  H    0.057592
   154  H    0.033411
   155  H    0.090035
   156  H    0.070048
   157  H    0.052436
   158  H    0.059067
 Sum of Mulliken charges =  -0.00000

 Dipole moment (field-independent basis, Debye):
    X=             -2.9869    Y=             -1.0984    Z=             -1.0476  Tot=              3.3504
 Quadrupole moment (field-independent basis, Debye-Ang):
   XX=           -754.2609   YY=           -480.2661   ZZ=           -497.8270
   XY=             28.8033   XZ=            203.2909   YZ=             -2.6815

 Normal termination of Gaussian 16 at Mon Sep 20 13:58:47 2021.
