 Gaussian 16, Revision A.03,
 Gaussian 16:  ES64L-G16RevA.03 25-Dec-2016

 --------------------------------
 #p wB97XD/Def2SVP td=(nstates=5)
 --------------------------------

 --------------------------------
 TDDFT excited states in gaussian
 --------------------------------
 Symbolic Z-matrix:
 Charge =  0 Multiplicity = 1

                         Standard orientation:
 ---------------------------------------------------------------------
 Center     Atomic      Atomic             Coordinates (Angstroms)
 Number     Number       Type             X           Y           Z
 ---------------------------------------------------------------------
      1         12           0      -15.029299    0.253386   -0.107331
      2          6           0      -11.905345    1.437020   -0.984458
      3          6           0      -14.933863   -1.777668   -2.885106
      4          6           0      -17.831306   -1.351093    1.064680
      5          6           0      -14.998601    2.231461    2.710021
      6          7           0      -13.519666   -0.269875   -1.618234
      7          6           0      -12.336530    0.418794   -1.799920
      8          6           0      -11.574839   -0.073003   -3.027835
      9          6           0      -12.709907   -0.844992   -3.798405
     10          6           0      -13.749382   -1.010811   -2.699503
     11          6           0      -13.239852   -0.202491   -5.159499
     12          6           0      -10.274032   -0.893888   -2.755818
     13          6           0       -9.072750   -0.520873   -3.598639
     14          1           0       -8.714934   -1.608203   -4.599881
     15          7           0      -16.167099   -1.331214   -0.823194
     16          6           0      -15.990147   -2.001221   -1.967514
     17          6           0      -17.061185   -2.960523   -2.174486
     18          6           0      -17.944506   -2.931296   -1.108254
     19          6           0      -17.323342   -1.884344   -0.188263
     20          6           0      -17.097098   -3.955552   -3.430152
     21          6           0      -19.280025   -3.736440   -0.964646
     22          8           0      -19.579606   -4.576468   -1.859752
     23          6           0      -20.169168   -3.577956    0.208779
     24          7           0      -16.163873    0.242204    1.819120
     25          6           0      -17.325663   -0.351694    1.967133
     26          6           0      -18.122453    0.197392    3.132064
     27          6           0      -17.239197    1.310237    3.791620
     28          6           0      -16.073246    1.353614    2.691736
     29          6           0      -19.649247    0.484394    2.968550
     30          6           0      -16.672014    1.121817    5.228515
     31          6           0      -16.214094    2.420815    5.858834
     32          7           0      -13.692989    1.588322    0.730728
     33          6           0      -13.847678    2.410771    1.870601
     34          6           0      -12.716069    3.295142    1.932285
     35          6           0      -11.912194    2.990118    0.806913
     36          6           0      -12.555303    1.930370    0.173412
     37          6           0      -12.552049    4.493946    2.854672
     38          6           0      -10.759868    3.378238    0.158361
     39          8           0       -9.858247    4.136108    0.392408
     40          6           0      -10.600501    2.264713   -1.002437
     41          6           0       -9.547514    1.306186   -0.448367
     42          8           0       -9.748523    0.422996    0.362898
     43          8           0       -8.341566    1.657850   -1.032993
     44          6           0       -7.167564    0.932798   -0.557956
     45          1           0      -15.056692   -2.292564   -3.840054
     46          1           0      -18.727989   -1.893774    1.370119
     47          1           0      -14.918241    3.006910    3.474644
     48          1           0      -11.331813    0.801107   -3.631268
     49          1           0      -12.360428   -1.871227   -3.917280
     50          1           0      -14.236101   -0.638568   -5.232335
     51          1           0      -12.743406   -0.577124   -6.054993
     52          1           0      -13.256238    0.885806   -5.216555
     53          1           0      -10.579467   -1.917949   -2.971506
     54          1           0       -9.984142   -1.029899   -1.714118
     55          1           0       -8.243820   -0.335471   -2.915176
     56          1           0       -9.238049    0.383654   -4.184299
     57          1           0      -16.241923   -3.885167   -4.103652
     58          1           0      -18.001533   -3.796462   -4.018290
     59          1           0      -17.021169   -5.004405   -3.146739
     60          1           0      -20.503855   -2.543159    0.274232
     61          1           0      -19.728339   -4.008247    1.108108
     62          1           0      -21.092582   -4.068723   -0.096205
     63          1           0      -18.181900   -0.449894    4.007286
     64          1           0      -17.637831    2.311587    3.627162
     65          1           0      -19.943359    0.006082    2.033286
     66          1           0      -19.911593    1.539480    3.054552
     67          1           0      -20.276074    0.018775    3.729204
     68          1           0      -15.886668    0.370744    5.144609
     69          1           0      -17.482845    0.638885    5.773789
     70          1           0      -16.369345    2.334835    6.934580
     71          1           0      -16.745537    3.313616    5.527200
     72          1           0      -15.133033    2.506182    5.748447
     73          1           0      -11.714464    5.140744    2.593357
     74          1           0      -12.455009    4.115465    3.871411
     75          1           0      -13.443631    5.121076    2.850382
     76          1           0      -10.400499    2.725175   -1.970436
     77          1           0       -6.989826    1.176420    0.489628
     78          1           0       -6.291699    1.130553   -1.174952
     79          1           0       -7.371416   -0.137453   -0.575650
     80         12           0       14.354629   -1.041605   -0.095667
     81          6           0       14.639829    2.427031   -0.721907
     82          6           0       10.972717   -0.746779   -0.548239
     83          6           0       14.021132   -4.104615    1.118651
     84          6           0       17.737788   -1.057947    0.801790
     85          7           0       12.947354    0.690870   -0.421639
     86          6           0       13.335049    1.990913   -0.756782
     87          6           0       12.125719    2.770697   -1.329233
     88          6           0       10.951576    1.728413   -1.242796
     89          6           0       11.634016    0.426363   -0.739383
     90          6           0        9.671122    2.181524   -0.563361
     91          6           0       12.297019    3.366829   -2.735125
     92          6           0       12.018872    4.893275   -2.810503
     93          1           0       10.967631    5.314078   -3.813394
     94          7           0       12.703239   -2.273238    0.149701
     95          6           0       11.384064   -1.990271   -0.050623
     96          6           0       10.643152   -3.218905    0.108405
     97          6           0       11.518225   -4.195844    0.750654
     98          6           0       12.793534   -3.497610    0.698808
     99          6           0        9.044516   -3.303110   -0.110232
    100          6           0       11.228953   -5.401971    1.536023
    101          8           0       12.017180   -6.158414    2.027699
    102          6           0        9.751958   -5.713278    1.758722
    103          7           0       15.687038   -2.315917    1.032318
    104          6           0       15.307925   -3.566686    1.359502
    105          6           0       16.513463   -4.399592    1.801391
    106          6           0       17.704548   -3.537632    1.352982
    107          6           0       17.034758   -2.228796    0.998444
    108          6           0       16.504492   -4.647479    3.379396
    109          6           0       18.353274   -4.207340    0.036861
    110          6           0       17.521495   -4.072225   -1.267790
    111          7           0       15.980734    0.312970   -0.065016
    112          6           0       17.261390    0.150428    0.304719
    113          6           0       17.942604    1.404390    0.125677
    114          6           0       16.978034    2.291112   -0.314730
    115          6           0       15.756379    1.614113   -0.363920
    116          6           0       19.397814    1.748367    0.380281
    117          6           0       16.822029    3.706386   -0.661084
    118          8           0       17.475636    4.711182   -0.648961
    119          6           0       15.317654    3.840529   -1.016412
    120          6           0       14.780838    4.869519   -0.091548
    121          8           0       14.905920    4.768052    1.103029
    122          8           0       14.223806    5.959704   -0.740497
    123          6           0       13.934602    7.163970    0.107944
    124          1           0        9.939470   -0.685279   -0.896547
    125          1           0       13.989643   -5.154475    1.418714
    126          1           0       18.827908   -1.018213    0.852505
    127          1           0       11.859824    3.563023   -0.629196
    128          1           0       10.578099    1.562017   -2.253395
    129          1           0        9.836732    3.079176    0.030532
    130          1           0        9.208705    1.414756    0.058712
    131          1           0        9.002070    2.487371   -1.367285
    132          1           0       11.659551    2.986870   -3.533495
    133          1           0       13.305331    3.189558   -3.108581
    134          1           0       12.942414    5.463026   -2.912728
    135          1           0       11.599929    5.196234   -1.851762
    136          1           0        8.840259   -4.171923   -0.735868
    137          1           0        8.585313   -2.468471   -0.638608
    138          1           0        8.397097   -3.338612    0.765915
    139          1           0        9.375474   -5.871999    0.747922
    140          1           0        9.346246   -4.812435    2.218051
    141          1           0        9.558152   -6.628924    2.318268
    142          1           0       16.604065   -5.349624    1.273696
    143          1           0       18.495133   -3.280434    2.058261
    144          1           0       17.014476   -5.595603    3.551936
    145          1           0       15.544242   -4.730761    3.889523
    146          1           0       17.105574   -3.829804    3.776849
    147          1           0       18.598834   -5.259953    0.176232
    148          1           0       19.240805   -3.646289   -0.256057
    149          1           0       17.872314   -4.666957   -2.110524
    150          1           0       17.562975   -3.026964   -1.574491
    151          1           0       16.488906   -4.325607   -1.025463
    152          1           0       20.104743    1.201999   -0.243673
    153          1           0       19.551157    1.452950    1.417891
    154          1           0       19.589476    2.820779    0.344686
    155          1           0       15.337480    4.238549   -2.030793
    156          1           0       12.945884    7.405457   -0.282209
    157          1           0       14.616283    7.993136   -0.080607
    158          1           0       13.915245    7.079665    1.194219
 ---------------------------------------------------------------------

 SCF Done:  E(RwB97XD) =  -4070.62102581     A.U. after   20 cycles

 Excitation energies and oscillator strengths:

 Excited State   1:      Singlet-A      1.6442 eV  754.09 nm  f=0.4065  <S**2>=0.000
     310 -> 316       -0.18144
     312 -> 313        0.68505
     310 <- 316       -0.11693
 This state for optimization and/or second-order correction.
 Total Energy, E(TD-HF/TD-DFT) =  -4070.56060413
 Copying the excited state density for this state as the 1-particle RhoCI density.

 Excited State   2:      Singlet-A      1.8716 eV  662.47 nm  f=0.3730  <S**2>=0.000
     309 -> 315        0.14191
     311 -> 314        0.68597

 Excited State   3:      Singlet-A      2.1358 eV  580.51 nm  f=0.1354  <S**2>=0.000
     310 -> 313        0.65465
     312 -> 316        0.25212

 Excited State   4:      Singlet-A      2.2257 eV  557.06 nm  f=0.1260  <S**2>=0.000
     309 -> 314        0.64385
     311 -> 315       -0.24655
     311 -> 317        0.10785

 Excited State   5:      Singlet-A      3.3975 eV  364.93 nm  f=0.0013  <S**2>=0.000
     304 -> 313        0.14071
     305 -> 313        0.57526
     306 -> 313        0.34501

 The electronic state is 1-A.
 Alpha  occ. eigenvalues --  -46.95835 -46.95799 -19.30319 -19.29752 -19.25386
 Alpha  occ. eigenvalues --  -19.24790 -19.24612 -19.24161 -19.23362 -19.22701
 Alpha  occ. eigenvalues --  -14.46962 -14.46677 -14.46677 -14.46471 -14.45264
 Alpha  occ. eigenvalues --  -14.44316 -14.43778 -14.43057 -10.42949 -10.42589
 Alpha  occ. eigenvalues --  -10.41142 -10.39137 -10.38263 -10.37390 -10.37342
 Alpha  occ. eigenvalues --  -10.36572 -10.35879 -10.35531 -10.35510 -10.35298
 Alpha  occ. eigenvalues --  -10.34924 -10.34752 -10.34723 -10.34717 -10.34393
 Alpha  occ. eigenvalues --  -10.34216 -10.34128 -10.33933 -10.33821 -10.33769
 Alpha  occ. eigenvalues --  -10.33432 -10.33323 -10.33147 -10.32777 -10.32545
 Alpha  occ. eigenvalues --  -10.32454 -10.32346 -10.32310 -10.32256 -10.32216
 Alpha  occ. eigenvalues --  -10.32157 -10.32041 -10.32017 -10.31970 -10.31900
 Alpha  occ. eigenvalues --  -10.31867 -10.31622 -10.31489 -10.31398 -10.31312
 Alpha  occ. eigenvalues --  -10.31235 -10.31153 -10.31110 -10.31083 -10.31034
 Alpha  occ. eigenvalues --  -10.30990 -10.30959 -10.30861 -10.30828 -10.30823
 Alpha  occ. eigenvalues --  -10.30805 -10.30632 -10.30540 -10.30524 -10.30421
 Alpha  occ. eigenvalues --  -10.30310 -10.30036 -10.29943 -10.29785 -10.29744
 Alpha  occ. eigenvalues --  -10.29667 -10.29425 -10.29127 -10.29058 -10.28877
 Alpha  occ. eigenvalues --  -10.27040  -3.21699  -3.21694  -1.95266  -1.95263
 Alpha  occ. eigenvalues --   -1.94832  -1.94818  -1.94665  -1.94659  -1.17795
 Alpha  occ. eigenvalues --   -1.17616  -1.13879  -1.13230  -1.11985  -1.11482
 Alpha  occ. eigenvalues --   -1.10093  -1.09775  -1.07163  -1.06655  -1.06288
 Alpha  occ. eigenvalues --   -1.05917  -1.05823  -1.05327  -1.04588  -1.03959
 Alpha  occ. eigenvalues --   -0.94300  -0.93518  -0.91071  -0.90731  -0.90621
 Alpha  occ. eigenvalues --   -0.90408  -0.90108  -0.89997  -0.89629  -0.89048
 Alpha  occ. eigenvalues --   -0.88745  -0.88468  -0.88227  -0.87761  -0.86450
 Alpha  occ. eigenvalues --   -0.86289  -0.85585  -0.85350  -0.85177  -0.84347
 Alpha  occ. eigenvalues --   -0.84044  -0.83101  -0.82772  -0.82667  -0.82210
 Alpha  occ. eigenvalues --   -0.82066  -0.80279  -0.79634  -0.79307  -0.79142
 Alpha  occ. eigenvalues --   -0.78695  -0.78657  -0.78029  -0.77314  -0.77138
 Alpha  occ. eigenvalues --   -0.77109  -0.75056  -0.74399  -0.73725  -0.73700
 Alpha  occ. eigenvalues --   -0.71704  -0.71246  -0.71158  -0.71146  -0.70012
 Alpha  occ. eigenvalues --   -0.69899  -0.69421  -0.69187  -0.67600  -0.67436
 Alpha  occ. eigenvalues --   -0.67372  -0.67244  -0.67096  -0.66747  -0.66406
 Alpha  occ. eigenvalues --   -0.66082  -0.64236  -0.63725  -0.62372  -0.62076
 Alpha  occ. eigenvalues --   -0.61647  -0.61473  -0.61239  -0.61082  -0.60684
 Alpha  occ. eigenvalues --   -0.60514  -0.60053  -0.59813  -0.59494  -0.59376
 Alpha  occ. eigenvalues --   -0.58507  -0.57935  -0.57454  -0.57293  -0.57123
 Alpha  occ. eigenvalues --   -0.57021  -0.56544  -0.56133  -0.56063  -0.55955
 Alpha  occ. eigenvalues --   -0.55715  -0.55331  -0.55310  -0.55161  -0.54881
 Alpha  occ. eigenvalues --   -0.54742  -0.54557  -0.54293  -0.54018  -0.53990
 Alpha  occ. eigenvalues --   -0.53782  -0.53535  -0.53424  -0.53170  -0.53017
 Alpha  occ. eigenvalues --   -0.52725  -0.52628  -0.52542  -0.52179  -0.52008
 Alpha  occ. eigenvalues --   -0.51951  -0.51789  -0.51694  -0.51454  -0.51389
 Alpha  occ. eigenvalues --   -0.51245  -0.51189  -0.51028  -0.50930  -0.50664
 Alpha  occ. eigenvalues --   -0.50454  -0.50291  -0.50163  -0.50151  -0.49823
 Alpha  occ. eigenvalues --   -0.49561  -0.49486  -0.49362  -0.49329  -0.49207
 Alpha  occ. eigenvalues --   -0.48914  -0.48551  -0.48318  -0.48168  -0.48081
 Alpha  occ. eigenvalues --   -0.48021  -0.47999  -0.47964  -0.47766  -0.47447
 Alpha  occ. eigenvalues --   -0.47192  -0.47173  -0.47154  -0.47012  -0.46993
 Alpha  occ. eigenvalues --   -0.46842  -0.46652  -0.46429  -0.46299  -0.45947
 Alpha  occ. eigenvalues --   -0.45900  -0.45557  -0.45554  -0.45349  -0.45310
 Alpha  occ. eigenvalues --   -0.45238  -0.45128  -0.44944  -0.44810  -0.44792
 Alpha  occ. eigenvalues --   -0.44500  -0.44490  -0.44347  -0.44252  -0.44136
 Alpha  occ. eigenvalues --   -0.44027  -0.43979  -0.43899  -0.43556  -0.43318
 Alpha  occ. eigenvalues --   -0.43259  -0.42748  -0.42695  -0.42372  -0.42186
 Alpha  occ. eigenvalues --   -0.42120  -0.41815  -0.41591  -0.41266  -0.40944
 Alpha  occ. eigenvalues --   -0.40939  -0.40174  -0.40047  -0.39965  -0.39758
 Alpha  occ. eigenvalues --   -0.39327  -0.39101  -0.38641  -0.38373  -0.38303
 Alpha  occ. eigenvalues --   -0.38163  -0.37327  -0.36434  -0.36355  -0.36201
 Alpha  occ. eigenvalues --   -0.35988  -0.35600  -0.35378  -0.34516  -0.34169
 Alpha  occ. eigenvalues --   -0.33782  -0.33200  -0.33110  -0.32513  -0.32329
 Alpha  occ. eigenvalues --   -0.32171  -0.31650  -0.31202  -0.26094  -0.26057
 Alpha  occ. eigenvalues --   -0.23394  -0.23347
 Alpha virt. eigenvalues --   -0.07487  -0.06779   0.00110   0.00528   0.02138
 Alpha virt. eigenvalues --    0.02642   0.04050   0.04625   0.04845   0.04890
 Alpha virt. eigenvalues --    0.07570   0.07607   0.07962   0.08131   0.08857

 Mulliken charges:
               1
     1  Mg   0.966702
     2  C   -0.041365
     3  C   -0.128819
     4  C   -0.108958
     5  C   -0.042017
     6  N   -0.333070
     7  C   -0.011691
     8  C   -0.074643
     9  C   -0.075928
    10  C    0.063529
    11  C    0.034893
    12  C    0.028269
    13  C   -0.107038
    14  H    0.024606
    15  N   -0.466046
    16  C    0.186005
    17  C   -0.153013
    18  C   -0.065434
    19  C    0.142262
    20  C    0.072263
    21  C    0.052345
    22  O   -0.253934
    23  C    0.003717
    24  N   -0.330962
    25  C    0.128433
    26  C   -0.083495
    27  C   -0.090948
    28  C    0.027354
    29  C    0.020497
    30  C    0.009810
    31  C   -0.034573
    32  N   -0.438660
    33  C    0.046281
    34  C   -0.148303
    35  C    0.002745
    36  C    0.157944
    37  C    0.059536
    38  C    0.057963
    39  O   -0.195268
    40  C   -0.117722
    41  C    0.296934
    42  O   -0.238834
    43  O   -0.364183
    44  C    0.141320
    45  H   -0.003525
    46  H   -0.019433
    47  H   -0.016844
    48  H    0.023247
    49  H    0.032741
    50  H    0.025094
    51  H    0.044630
    52  H    0.053888
    53  H    0.020278
    54  H    0.052735
    55  H    0.048091
    56  H    0.048678
    57  H    0.019547
    58  H    0.064704
    59  H    0.059491
    60  H    0.061875
    61  H    0.091288
    62  H    0.055127
    63  H    0.038456
    64  H    0.031610
    65  H    0.030258
    66  H    0.041653
    67  H    0.029224
    68  H    0.042096
    69  H    0.025882
    70  H    0.032534
    71  H    0.043103
    72  H    0.051676
    73  H    0.058532
    74  H    0.038101
    75  H    0.040809
    76  H    0.054764
    77  H    0.058160
    78  H    0.060668
    79  H    0.042355
    80  Mg   0.945810
    81  C   -0.040707
    82  C   -0.093320
    83  C   -0.065229
    84  C   -0.068632
    85  N   -0.371918
    86  C    0.009101
    87  C   -0.037829
    88  C   -0.103055
    89  C    0.075444
    90  C    0.021397
    91  C    0.015400
    92  C   -0.142123
    93  H    0.025854
    94  N   -0.445118
    95  C    0.174502
    96  C   -0.128442
    97  C   -0.081824
    98  C    0.149709
    99  C    0.018162
   100  C    0.023329
   101  O   -0.210442
   102  C   -0.005805
   103  N   -0.331082
   104  C    0.048495
   105  C   -0.089205
   106  C   -0.066745
   107  C    0.055874
   108  C    0.021721
   109  C   -0.041425
   110  C   -0.066466
   111  N   -0.411855
   112  C    0.080684
   113  C   -0.175944
   114  C   -0.085159
   115  C    0.178093
   116  C    0.073479
   117  C    0.147667
   118  O   -0.174271
   119  C   -0.066715
   120  C    0.252451
   121  O   -0.231222
   122  O   -0.382121
   123  C    0.126201
   124  H   -0.009915
   125  H    0.025824
   126  H   -0.003969
   127  H    0.041035
   128  H    0.033966
   129  H    0.030365
   130  H    0.043413
   131  H    0.031499
   132  H    0.042751
   133  H    0.032910
   134  H    0.067801
   135  H    0.036491
   136  H    0.048909
   137  H    0.027113
   138  H    0.053924
   139  H    0.041702
   140  H    0.056583
   141  H    0.049634
   142  H    0.042120
   143  H    0.039900
   144  H    0.039751
   145  H    0.057690
   146  H    0.036729
   147  H    0.045178
   148  H    0.027599
   149  H    0.048263
   150  H    0.041057
   151  H    0.039417
   152  H    0.051801
   153  H    0.041761
   154  H    0.060819
   155  H    0.062956
   156  H    0.053108
   157  H    0.061532
   158  H    0.073568
 Sum of Mulliken charges =  -0.00000

 Dipole moment (field-independent basis, Debye):
    X=             -6.3473    Y=             -1.8737    Z=             -2.3349  Tot=              7.0180
 Quadrupole moment (field-independent basis, Debye-Ang):
   XX=           -407.8008   YY=           -542.0236   ZZ=           -490.4409
   XY=            -53.0942   XZ=            -57.7963   YZ=              4.3922

 Normal termination of Gaussian 16 at Sun Sep 19 12:27:26 2021.
