 Gaussian 16, Revision A.03,
 Gaussian 16:  ES64L-G16RevA.03 25-Dec-2016

 --------------------------------
 #p wB97XD/Def2SVP td=(nstates=5)
 --------------------------------

 --------------------------------
 TDDFT excited states in gaussian
 --------------------------------
 Symbolic Z-matrix:
 Charge =  0 Multiplicity = 1

                         Standard orientation:
 ---------------------------------------------------------------------
 Center     Atomic      Atomic             Coordinates (Angstroms)
 Number     Number       Type             X           Y           Z
 ---------------------------------------------------------------------
      1         12           0       -4.399126   -0.500555    0.969639
      2          6           0       -5.302815    2.753369    0.035416
      3          6           0       -1.397922    0.827518    2.298169
      4          6           0       -3.338184   -3.668717    1.575142
      5          6           0       -6.971937   -1.705204   -0.992626
      6          7           0       -3.595229    1.543355    1.266453
      7          6           0       -4.270575    2.722879    0.939915
      8          6           0       -3.616133    3.922180    1.715833
      9          6           0       -2.361736    3.281892    2.321517
     10          6           0       -2.418351    1.772764    1.897515
     11          6           0       -1.084029    3.983630    1.787414
     12          6           0       -4.635683    4.476902    2.703153
     13          6           0       -4.534376    5.944283    3.086194
     14          1           0       -3.243020    6.709009    2.717430
     15          7           0       -2.639810   -1.354038    1.823933
     16          6           0       -1.514769   -0.639744    2.277954
     17          6           0       -0.488960   -1.551137    2.753854
     18          6           0       -1.017919   -2.896524    2.636521
     19          6           0       -2.374884   -2.678358    1.973899
     20          6           0        0.810140   -1.109124    3.439568
     21          6           0       -0.429161   -4.234178    3.041839
     22          8           0       -1.062871   -5.266402    2.866830
     23          6           0        0.818285   -4.247808    3.838992
     24          7           0       -5.135155   -2.421053    0.407420
     25          6           0       -4.565418   -3.570424    0.865410
     26          6           0       -5.456698   -4.782611    0.488249
     27          6           0       -6.677681   -4.156860   -0.291231
     28          6           0       -6.335496   -2.646165   -0.219393
     29          6           0       -4.650775   -5.804930   -0.333011
     30          6           0       -8.065708   -4.413262    0.353558
     31          6           0       -8.773756   -5.529226   -0.408418
     32          7           0       -5.826517    0.269201   -0.352358
     33          6           0       -6.766089   -0.303491   -1.143061
     34          6           0       -7.325011    0.762870   -2.009230
     35          6           0       -6.880054    1.959638   -1.528904
     36          6           0       -5.928633    1.593015   -0.543011
     37          6           0       -8.371662    0.458274   -3.067755
     38          6           0       -6.965552    3.423526   -1.616461
     39          8           0       -7.627666    4.115856   -2.380088
     40          6           0       -6.018991    3.945037   -0.552589
     41          6           0       -5.168228    4.933491   -1.233974
     42          8           0       -4.196296    4.771495   -1.984201
     43          8           0       -5.685322    6.182814   -0.958548
     44          6           0       -5.035783    7.309843   -1.591820
     45          1           0       -0.523994    1.281802    2.769210
     46          1           0       -2.972904   -4.644748    1.901417
     47          1           0       -7.703648   -2.169402   -1.657250
     48          1           0       -3.393892    4.593234    0.885255
     49          1           0       -2.377536    3.542681    3.379697
     50          1           0       -0.469988    3.376132    1.122366
     51          1           0       -0.402485    4.051415    2.634881
     52          1           0       -1.312566    4.907451    1.256331
     53          1           0       -4.568823    3.805092    3.559439
     54          1           0       -5.636753    4.278138    2.322280
     55          1           0       -4.723852    6.037562    4.154685
     56          1           0       -5.399308    6.356262    2.565136
     57          1           0        0.985288   -0.033698    3.404311
     58          1           0        1.663644   -1.594016    2.963862
     59          1           0        0.815802   -1.501171    4.455921
     60          1           0        0.615956   -3.788317    4.806801
     61          1           0        1.660916   -3.876583    3.255718
     62          1           0        1.113451   -5.261144    4.111432
     63          1           0       -5.737338   -5.283164    1.414675
     64          1           0       -6.565874   -4.506698   -1.318326
     65          1           0       -5.044138   -6.059838   -1.316651
     66          1           0       -4.773271   -6.675077    0.311569
     67          1           0       -3.631229   -5.498452   -0.565198
     68          1           0       -8.740152   -3.584414    0.137793
     69          1           0       -8.018841   -4.662184    1.413889
     70          1           0       -9.141295   -6.184436    0.381191
     71          1           0       -8.105330   -6.186250   -0.964331
     72          1           0       -9.591923   -5.209915   -1.054577
     73          1           0       -8.505790   -0.598417   -3.300535
     74          1           0       -8.181365    0.976516   -4.006805
     75          1           0       -9.351811    0.697568   -2.653762
     76          1           0       -6.622987    4.396153    0.234004
     77          1           0       -4.964510    7.091699   -2.657696
     78          1           0       -4.033636    7.506149   -1.210052
     79          1           0       -5.803117    8.082440   -1.627047
     80         12           0        3.889754   -0.828312   -0.976647
     81          6           0        6.303863    1.772062   -0.366454
     82          6           0        1.488904    1.594047   -0.828525
     83          6           0        1.630239   -3.293352   -1.240526
     84          6           0        6.388175   -3.101586   -0.600783
     85          7           0        3.933807    1.530056   -0.670355
     86          6           0        5.053569    2.289886   -0.493649
     87          6           0        4.632609    3.709165   -0.555110
     88          6           0        3.079153    3.676286   -0.563000
     89          6           0        2.726306    2.166047   -0.647571
     90          6           0        2.476759    4.314038    0.729227
     91          6           0        5.212768    4.519958   -1.686828
     92          6           0        5.025819    6.028593   -1.690501
     93          1           0        6.228385    6.846245   -1.912335
     94          7           0        1.879669   -0.833673   -1.137451
     95          6           0        1.027493    0.289556   -0.950534
     96          6           0       -0.343199   -0.172528   -1.239146
     97          6           0       -0.280219   -1.563371   -1.261278
     98          6           0        1.133956   -1.963428   -1.146298
     99          6           0       -1.507850    0.795039   -1.269110
    100          6           0       -1.408850   -2.597195   -1.464561
    101          8           0       -1.286401   -3.816739   -1.244473
    102          6           0       -2.693057   -2.088240   -1.979460
    103          7           0        3.960348   -2.943051   -0.866152
    104          6           0        2.947099   -3.772250   -1.010599
    105          6           0        3.351204   -5.267664   -0.894398
    106          6           0        4.876321   -5.152946   -0.944983
    107          6           0        5.091500   -3.660249   -0.843622
    108          6           0        2.831205   -5.902835    0.439217
    109          6           0        5.567492   -5.751517   -2.149297
    110          6           0        6.855818   -6.549219   -1.880036
    111          7           0        5.919045   -0.687529   -0.663872
    112          6           0        6.809393   -1.732244   -0.545052
    113          6           0        8.209625   -1.237163   -0.382250
    114          6           0        7.964102    0.118383   -0.295707
    115          6           0        6.600901    0.415432   -0.412921
    116          6           0        9.487781   -2.008531   -0.461665
    117          6           0        8.653237    1.387638   -0.115265
    118          8           0        9.860523    1.575627   -0.016153
    119          6           0        7.614355    2.531805   -0.153428
    120          6           0        7.854176    3.341437    1.013838
    121          8           0        7.536044    3.071923    2.197171
    122          8           0        8.340449    4.560346    0.650157
    123          6           0        8.389936    5.612438    1.641799
    124          1           0        0.718341    2.366376   -0.869540
    125          1           0        0.894781   -4.096326   -1.160021
    126          1           0        7.057409   -3.896729   -0.266195
    127          1           0        4.984292    4.103704    0.397278
    128          1           0        2.656061    4.214532   -1.411343
    129          1           0        1.704424    5.083738    0.716619
    130          1           0        3.337503    4.757078    1.229912
    131          1           0        2.152623    3.601597    1.488296
    132          1           0        4.760492    4.246220   -2.640190
    133          1           0        6.227190    4.207758   -1.933429
    134          1           0        4.618928    6.368088   -0.739164
    135          1           0        4.483739    6.245234   -2.610632
    136          1           0       -2.383396    0.459467   -0.713703
    137          1           0       -1.844421    1.053247   -2.272974
    138          1           0       -1.318150    1.756346   -0.790977
    139          1           0       -2.494294   -1.491588   -2.869854
    140          1           0       -3.033982   -1.455013   -1.161118
    141          1           0       -3.258809   -2.960218   -2.305535
    142          1           0        2.940417   -5.760107   -1.776455
    143          1           0        5.416494   -5.562508   -0.091896
    144          1           0        3.651254   -6.146598    1.113995
    145          1           0        2.320540   -6.847996    0.254771
    146          1           0        2.195324   -5.141086    0.890578
    147          1           0        5.790266   -4.998110   -2.904174
    148          1           0        4.763565   -6.250114   -2.689810
    149          1           0        6.937861   -7.287313   -2.677306
    150          1           0        6.912660   -6.939988   -0.863610
    151          1           0        7.605604   -5.761747   -1.953302
    152          1           0       10.000366   -1.929318   -1.420535
    153          1           0        9.237400   -3.011166   -0.116235
    154          1           0       10.132355   -1.716692    0.368394
    155          1           0        7.940698    3.162792   -0.980093
    156          1           0        7.918409    5.363629    2.592886
    157          1           0        8.013211    6.547768    1.228775
    158          1           0        9.414217    5.876550    1.906148
 ---------------------------------------------------------------------

 SCF Done:  E(RwB97XD) =  -4070.64149247     A.U. after   20 cycles

 Excitation energies and oscillator strengths:

 Excited State   1:      Singlet-A      1.6126 eV  768.85 nm  f=0.5855  <S**2>=0.000
     310 -> 316       -0.13231
     311 -> 313        0.64515
     312 -> 313        0.10881
     312 -> 314        0.20600
 This state for optimization and/or second-order correction.
 Total Energy, E(TD-HF/TD-DFT) =  -4070.58223083
 Copying the excited state density for this state as the 1-particle RhoCI density.

 Excited State   2:      Singlet-A      1.6926 eV  732.50 nm  f=0.2315  <S**2>=0.000
     309 -> 315       -0.16413
     311 -> 313       -0.19620
     311 -> 314       -0.10393
     312 -> 314        0.63926

 Excited State   3:      Singlet-A      2.1229 eV  584.04 nm  f=0.0764  <S**2>=0.000
     309 -> 313       -0.32798
     310 -> 313        0.52717
     311 -> 316        0.25751
     312 -> 313       -0.17748

 Excited State   4:      Singlet-A      2.2679 eV  546.69 nm  f=0.0575  <S**2>=0.000
     309 -> 314        0.50269
     310 -> 314        0.33723
     312 -> 315        0.33256

 Excited State   5:      Singlet-A      2.3915 eV  518.44 nm  f=0.0075  <S**2>=0.000
     310 -> 313        0.14606
     311 -> 313       -0.12066
     312 -> 313        0.65968

 The electronic state is 1-A.
 Alpha  occ. eigenvalues --  -46.95847 -46.94831 -19.30459 -19.30064 -19.25187
 Alpha  occ. eigenvalues --  -19.24544 -19.24247 -19.23977 -19.23887 -19.23612
 Alpha  occ. eigenvalues --  -14.47106 -14.46539 -14.46463 -14.45727 -14.45095
 Alpha  occ. eigenvalues --  -14.44336 -14.44162 -14.44048 -10.43629 -10.43053
 Alpha  occ. eigenvalues --  -10.39629 -10.39441 -10.39014 -10.38430 -10.36403
 Alpha  occ. eigenvalues --  -10.35622 -10.35413 -10.35304 -10.35053 -10.35027
 Alpha  occ. eigenvalues --  -10.34944 -10.34832 -10.34631 -10.34533 -10.34516
 Alpha  occ. eigenvalues --  -10.34437 -10.34320 -10.34152 -10.34013 -10.33879
 Alpha  occ. eigenvalues --  -10.33452 -10.33286 -10.32951 -10.32766 -10.32718
 Alpha  occ. eigenvalues --  -10.32504 -10.32497 -10.32373 -10.32276 -10.32221
 Alpha  occ. eigenvalues --  -10.32210 -10.32089 -10.32021 -10.32013 -10.32001
 Alpha  occ. eigenvalues --  -10.31988 -10.31813 -10.31698 -10.31637 -10.31481
 Alpha  occ. eigenvalues --  -10.31481 -10.31266 -10.31211 -10.31127 -10.31006
 Alpha  occ. eigenvalues --  -10.30968 -10.30914 -10.30717 -10.30474 -10.30464
 Alpha  occ. eigenvalues --  -10.30351 -10.30221 -10.30187 -10.30041 -10.30008
 Alpha  occ. eigenvalues --  -10.29978 -10.29825 -10.29804 -10.29768 -10.29766
 Alpha  occ. eigenvalues --  -10.29651 -10.29516 -10.28962 -10.28809 -10.28580
 Alpha  occ. eigenvalues --  -10.28550  -3.21742  -3.20874  -1.95364  -1.94814
 Alpha  occ. eigenvalues --   -1.94730  -1.94477  -1.93992  -1.93853  -1.18364
 Alpha  occ. eigenvalues --   -1.18351  -1.12648  -1.12453  -1.11664  -1.11083
 Alpha  occ. eigenvalues --   -1.09477  -1.08219  -1.07768  -1.06560  -1.06550
 Alpha  occ. eigenvalues --   -1.05072  -1.05008  -1.04953  -1.04170  -1.03952
 Alpha  occ. eigenvalues --   -0.95602  -0.95125  -0.91953  -0.91480  -0.91179
 Alpha  occ. eigenvalues --   -0.90666  -0.90331  -0.89957  -0.89365  -0.89208
 Alpha  occ. eigenvalues --   -0.88950  -0.88866  -0.88486  -0.87739  -0.86595
 Alpha  occ. eigenvalues --   -0.86479  -0.85962  -0.85839  -0.84845  -0.84811
 Alpha  occ. eigenvalues --   -0.84340  -0.84216  -0.83144  -0.83056  -0.82804
 Alpha  occ. eigenvalues --   -0.82183  -0.80301  -0.80135  -0.79514  -0.79350
 Alpha  occ. eigenvalues --   -0.79321  -0.79004  -0.78526  -0.78019  -0.77161
 Alpha  occ. eigenvalues --   -0.76559  -0.74901  -0.74703  -0.73942  -0.73143
 Alpha  occ. eigenvalues --   -0.71470  -0.71332  -0.71153  -0.70491  -0.70026
 Alpha  occ. eigenvalues --   -0.70010  -0.69239  -0.68379  -0.68333  -0.67362
 Alpha  occ. eigenvalues --   -0.67297  -0.67189  -0.67083  -0.66839  -0.66509
 Alpha  occ. eigenvalues --   -0.66103  -0.64551  -0.64412  -0.62264  -0.62235
 Alpha  occ. eigenvalues --   -0.61947  -0.61783  -0.61427  -0.61318  -0.61041
 Alpha  occ. eigenvalues --   -0.60696  -0.60521  -0.60363  -0.59786  -0.59558
 Alpha  occ. eigenvalues --   -0.58317  -0.58042  -0.57893  -0.57704  -0.57411
 Alpha  occ. eigenvalues --   -0.57261  -0.56931  -0.56404  -0.56033  -0.55938
 Alpha  occ. eigenvalues --   -0.55739  -0.55630  -0.55480  -0.55409  -0.55294
 Alpha  occ. eigenvalues --   -0.55090  -0.54986  -0.54901  -0.54790  -0.54170
 Alpha  occ. eigenvalues --   -0.53912  -0.53834  -0.53748  -0.53603  -0.53502
 Alpha  occ. eigenvalues --   -0.53033  -0.52872  -0.52677  -0.52359  -0.52276
 Alpha  occ. eigenvalues --   -0.52218  -0.51878  -0.51815  -0.51610  -0.51555
 Alpha  occ. eigenvalues --   -0.51285  -0.51250  -0.51129  -0.50923  -0.50831
 Alpha  occ. eigenvalues --   -0.50522  -0.50306  -0.50246  -0.50084  -0.49945
 Alpha  occ. eigenvalues --   -0.49793  -0.49587  -0.49456  -0.49325  -0.49254
 Alpha  occ. eigenvalues --   -0.48995  -0.48796  -0.48709  -0.48575  -0.48400
 Alpha  occ. eigenvalues --   -0.48202  -0.48125  -0.47943  -0.47740  -0.47428
 Alpha  occ. eigenvalues --   -0.47293  -0.47162  -0.47048  -0.46953  -0.46727
 Alpha  occ. eigenvalues --   -0.46534  -0.46467  -0.46329  -0.46198  -0.45843
 Alpha  occ. eigenvalues --   -0.45815  -0.45653  -0.45531  -0.45489  -0.45293
 Alpha  occ. eigenvalues --   -0.45132  -0.45023  -0.44976  -0.44890  -0.44712
 Alpha  occ. eigenvalues --   -0.44501  -0.44477  -0.44312  -0.44025  -0.43782
 Alpha  occ. eigenvalues --   -0.43723  -0.43690  -0.43663  -0.43561  -0.43376
 Alpha  occ. eigenvalues --   -0.43277  -0.43004  -0.42931  -0.42681  -0.42398
 Alpha  occ. eigenvalues --   -0.42126  -0.42018  -0.41817  -0.41137  -0.40699
 Alpha  occ. eigenvalues --   -0.40366  -0.40160  -0.40003  -0.39768  -0.39712
 Alpha  occ. eigenvalues --   -0.39196  -0.38768  -0.38713  -0.38013  -0.37972
 Alpha  occ. eigenvalues --   -0.37867  -0.37704  -0.36709  -0.36335  -0.35886
 Alpha  occ. eigenvalues --   -0.35520  -0.35246  -0.35031  -0.33819  -0.33644
 Alpha  occ. eigenvalues --   -0.33517  -0.33488  -0.32852  -0.32615  -0.32546
 Alpha  occ. eigenvalues --   -0.32464  -0.32388  -0.32261  -0.26035  -0.25891
 Alpha  occ. eigenvalues --   -0.22964  -0.22639
 Alpha virt. eigenvalues --   -0.07167  -0.06407   0.00094   0.00258   0.01999
 Alpha virt. eigenvalues --    0.02908   0.03806   0.04675   0.05318   0.06098
 Alpha virt. eigenvalues --    0.06618   0.07018   0.07459   0.07624   0.07916

 Mulliken charges:
               1
     1  Mg   0.880584
     2  C   -0.015198
     3  C   -0.066633
     4  C   -0.033002
     5  C   -0.072696
     6  N   -0.375016
     7  C   -0.084822
     8  C   -0.017125
     9  C   -0.118767
    10  C    0.092981
    11  C    0.005497
    12  C    0.005212
    13  C   -0.087154
    14  H    0.042876
    15  N   -0.443567
    16  C    0.158946
    17  C   -0.163268
    18  C   -0.076240
    19  C    0.089027
    20  C    0.079521
    21  C    0.065452
    22  O   -0.228662
    23  C   -0.018774
    24  N   -0.373329
    25  C    0.088930
    26  C   -0.108259
    27  C   -0.060327
    28  C    0.053238
    29  C   -0.001209
    30  C    0.010134
    31  C   -0.064427
    32  N   -0.398861
    33  C    0.111358
    34  C   -0.211091
    35  C   -0.013598
    36  C    0.132175
    37  C    0.070504
    38  C    0.117973
    39  O   -0.197157
    40  C   -0.031521
    41  C    0.261664
    42  O   -0.265450
    43  O   -0.367909
    44  C    0.150804
    45  H   -0.001852
    46  H    0.024947
    47  H   -0.005123
    48  H    0.031853
    49  H    0.042251
    50  H    0.012035
    51  H    0.033325
    52  H    0.049550
    53  H    0.020869
    54  H    0.027327
    55  H    0.051892
    56  H    0.057139
    57  H    0.047344
    58  H    0.048427
    59  H    0.049733
    60  H    0.069761
    61  H    0.058599
    62  H    0.044190
    63  H    0.041468
    64  H    0.039421
    65  H    0.025251
    66  H    0.038771
    67  H    0.071484
    68  H    0.035041
    69  H    0.041144
    70  H    0.024764
    71  H    0.027510
    72  H    0.046599
    73  H    0.017915
    74  H    0.058950
    75  H    0.050031
    76  H    0.082853
    77  H    0.044650
    78  H    0.058246
    79  H    0.054501
    80  Mg   0.964785
    81  C    0.003533
    82  C   -0.079437
    83  C   -0.061651
    84  C   -0.109481
    85  N   -0.330505
    86  C   -0.065662
    87  C    0.017142
    88  C   -0.120883
    89  C    0.057570
    90  C    0.011784
    91  C    0.011577
    92  C   -0.120105
    93  H    0.035063
    94  N   -0.516651
    95  C    0.184231
    96  C   -0.118742
    97  C   -0.082075
    98  C    0.164696
    99  C    0.078334
   100  C    0.061245
   101  O   -0.252045
   102  C    0.022423
   103  N   -0.326349
   104  C   -0.020070
   105  C   -0.058457
   106  C   -0.104115
   107  C    0.034981
   108  C    0.034823
   109  C    0.005578
   110  C   -0.035295
   111  N   -0.421222
   112  C    0.131516
   113  C   -0.210895
   114  C   -0.008930
   115  C    0.150719
   116  C    0.109498
   117  C    0.072484
   118  O   -0.210168
   119  C   -0.031761
   120  C    0.264769
   121  O   -0.285486
   122  O   -0.351080
   123  C    0.135143
   124  H    0.000117
   125  H    0.032732
   126  H    0.002280
   127  H    0.032273
   128  H    0.041033
   129  H    0.046713
   130  H    0.016526
   131  H    0.028935
   132  H    0.015680
   133  H    0.025838
   134  H    0.055477
   135  H    0.058080
   136  H    0.038372
   137  H    0.059660
   138  H    0.034508
   139  H    0.058881
   140  H    0.067785
   141  H    0.058646
   142  H    0.044855
   143  H    0.026625
   144  H    0.031353
   145  H    0.053131
   146  H    0.049598
   147  H    0.023583
   148  H    0.008971
   149  H    0.052339
   150  H    0.037900
   151  H    0.041314
   152  H    0.077208
   153  H    0.016218
   154  H    0.048401
   155  H    0.080976
   156  H    0.065809
   157  H    0.047528
   158  H    0.046145
 Sum of Mulliken charges =  -0.00000

 Dipole moment (field-independent basis, Debye):
    X=             -2.4539    Y=             -0.6772    Z=              2.1068  Tot=              3.3043
 Quadrupole moment (field-independent basis, Debye-Ang):
   XX=           -559.3413   YY=           -476.4917   ZZ=           -503.9183
   XY=              0.4356   XZ=            -26.5085   YZ=             17.9675

 Normal termination of Gaussian 16 at Mon Sep 20 00:40:41 2021.
