 Gaussian 16, Revision A.03,
 Gaussian 16:  ES64L-G16RevA.03 25-Dec-2016

 --------------------------------
 #p wB97XD/Def2SVP td=(nstates=5)
 --------------------------------

 --------------------------------
 TDDFT excited states in gaussian
 --------------------------------
 Symbolic Z-matrix:
 Charge =  0 Multiplicity = 1

                         Standard orientation:
 ---------------------------------------------------------------------
 Center     Atomic      Atomic             Coordinates (Angstroms)
 Number     Number       Type             X           Y           Z
 ---------------------------------------------------------------------
      1         12           0       -0.688059    0.226376    0.214410
      2          6           0        2.744305    0.120796    0.321865
      3          6           0       -0.689072   -3.331052    0.148596
      4          6           0       -4.005607    0.159564   -0.432956
      5          6           0       -0.665372    3.569290   -0.059546
      6          7           0        0.867574   -1.415554    0.229283
      7          6           0        2.214360   -1.171922    0.263522
      8          6           0        3.006461   -2.476163    0.379592
      9          6           0        1.851703   -3.549281    0.116314
     10          6           0        0.595700   -2.729250    0.162878
     11          6           0        2.050236   -4.402126   -1.190184
     12          6           0        3.709875   -2.675025    1.799254
     13          6           0        5.123467   -3.185343    1.943209
     14          1           0        5.527989   -4.380760    1.155871
     15          7           0       -2.196489   -1.363630   -0.054848
     16          6           0       -2.028517   -2.691439    0.130633
     17          6           0       -3.275451   -3.380332    0.124913
     18          6           0       -4.282950   -2.374031   -0.012728
     19          6           0       -3.483737   -1.134140   -0.245681
     20          6           0       -3.269573   -4.872387    0.212997
     21          6           0       -5.786392   -2.545226   -0.147951
     22          8           0       -6.523176   -1.634985   -0.539985
     23          6           0       -6.437628   -3.876539    0.183297
     24          7           0       -2.146056    1.672478   -0.350408
     25          6           0       -3.475569    1.402938   -0.432641
     26          6           0       -4.282673    2.695325   -0.543773
     27          6           0       -3.193549    3.793402   -0.240768
     28          6           0       -1.919150    2.973178   -0.204764
     29          6           0       -5.171286    2.988390   -1.788632
     30          6           0       -3.436751    4.707956    1.031574
     31          6           0       -2.845007    4.329232    2.372749
     32          7           0        0.705723    1.579349    0.043005
     33          6           0        0.635039    2.948868    0.079090
     34          6           0        1.902302    3.580490    0.013341
     35          6           0        2.778177    2.509001    0.156950
     36          6           0        2.002141    1.321981    0.193556
     37          6           0        2.339028    5.038042   -0.055619
     38          6           0        4.117534    2.118606    0.233433
     39          8           0        5.110831    2.818455    0.160480
     40          6           0        4.215856    0.493703    0.327011
     41          6           0        4.971293    0.024860   -0.828130
     42          8           0        4.617186    0.116658   -2.020257
     43          8           0        6.180258   -0.505863   -0.504730
     44          6           0        7.166816   -0.722051   -1.569024
     45          1           0       -0.568139   -4.413597    0.220604
     46          1           0       -5.094430    0.186265   -0.356854
     47          1           0       -0.631171    4.623239    0.221541
     48          1           0        3.820216   -2.449067   -0.346218
     49          1           0        1.827420   -4.307188    0.899495
     50          1           0        2.104307   -5.449531   -0.895320
     51          1           0        2.938712   -3.979499   -1.659649
     52          1           0        1.202461   -4.408861   -1.875934
     53          1           0        3.029250   -3.383294    2.272025
     54          1           0        3.548491   -1.808377    2.439459
     55          1           0        5.371337   -3.302582    2.998134
     56          1           0        5.755167   -2.406415    1.517741
     57          1           0       -4.044729   -5.109960    0.940638
     58          1           0       -2.331135   -5.231607    0.636096
     59          1           0       -3.449530   -5.412043   -0.717407
     60          1           0       -6.048312   -4.348974    1.085634
     61          1           0       -6.490839   -4.491892   -0.715864
     62          1           0       -7.467397   -3.613262    0.426768
     63          1           0       -5.036478    2.578986    0.235203
     64          1           0       -3.167417    4.580348   -0.993579
     65          1           0       -4.731771    3.786593   -2.386620
     66          1           0       -6.132711    3.326215   -1.402162
     67          1           0       -5.240055    2.045043   -2.329245
     68          1           0       -4.516355    4.776615    1.158040
     69          1           0       -3.062217    5.713485    0.838577
     70          1           0       -3.599259    4.316233    3.159891
     71          1           0       -2.033396    4.984085    2.692631
     72          1           0       -2.440824    3.327921    2.223934
     73          1           0        1.455523    5.676385   -0.016780
     74          1           0        2.903538    5.198887   -0.974420
     75          1           0        2.986106    5.244778    0.796355
     76          1           0        4.830131    0.392229    1.222171
     77          1           0        8.198824   -0.750610   -1.219117
     78          1           0        7.061031   -0.083077   -2.445222
     79          1           0        7.030243   -1.761743   -1.866897
 ---------------------------------------------------------------------

 SCF Done:  E(RwB97XD) =  -2035.32714281     A.U. after   20 cycles

 Excitation energies and oscillator strengths:

 Excited State   1:      Singlet-A      1.6605 eV  746.66 nm  f=0.4146  <S**2>=0.000
     155 ->158         0.18414
     156 ->157         0.68431
     155 <-158         0.11635
 This state for optimization and/or second-order correction.
 Total Energy, E(TD-HF/TD-DFT) =  -2035.26611955
 Copying the excited state density for this state as the 1-particle RhoCI density.

 Excited State   2:      Singlet-A      2.1344 eV  580.88 nm  f=0.1707  <S**2>=0.000
     155 ->157         0.66027
     156 ->158        -0.24159

 Excited State   3:      Singlet-A      3.4420 eV  360.21 nm  f=0.0031  <S**2>=0.000
     153 ->159        -0.16865
     154 ->157         0.65334

 Excited State   4:      Singlet-A      3.4812 eV  356.15 nm  f=0.0022  <S**2>=0.000
     153 ->157         0.59067
     153 ->159         0.17701
     153 ->160        -0.16297
     154 ->159        -0.16868
     156 ->158         0.11878

 Excited State   5:      Singlet-A      3.6333 eV  341.24 nm  f=0.0088  <S**2>=0.000
     151 ->157         0.42266
     151 ->158         0.12072
     151 ->159        -0.27236
     151 ->160        -0.15367
     152 ->157         0.35883

 The electronic state is 1-A.
 Alpha  occ. eigenvalues --  -46.95446 -19.30282 -19.23933 -19.23653 -19.23481
 Alpha  occ. eigenvalues --  -14.46714 -14.46121 -14.44166 -14.44095 -10.42781
 Alpha  occ. eigenvalues --  -10.39362 -10.38538 -10.35362 -10.35086 -10.34901
 Alpha  occ. eigenvalues --  -10.34407 -10.34152 -10.34130 -10.34123 -10.33892
 Alpha  occ. eigenvalues --  -10.32997 -10.32534 -10.32529 -10.32529 -10.32320
 Alpha  occ. eigenvalues --  -10.32118 -10.32094 -10.32049 -10.31785 -10.31603
 Alpha  occ. eigenvalues --  -10.31550 -10.31359 -10.30864 -10.30815 -10.30652
 Alpha  occ. eigenvalues --  -10.30293 -10.30156 -10.30065 -10.29930 -10.29569
 Alpha  occ. eigenvalues --  -10.29244 -10.28842 -10.28642  -3.21499  -1.95072
 Alpha  occ. eigenvalues --   -1.94584  -1.94513  -1.18030  -1.12127  -1.11697
 Alpha  occ. eigenvalues --   -1.08025  -1.07404  -1.06699  -1.06165  -1.05511
 Alpha  occ. eigenvalues --   -0.94591  -0.90954  -0.90111  -0.90062  -0.89728
 Alpha  occ. eigenvalues --   -0.89372  -0.88373  -0.86220  -0.85660  -0.84569
 Alpha  occ. eigenvalues --   -0.83777  -0.83114  -0.82282  -0.80359  -0.79408
 Alpha  occ. eigenvalues --   -0.79036  -0.78165  -0.77433  -0.75537  -0.73527
 Alpha  occ. eigenvalues --   -0.71550  -0.71215  -0.70097  -0.69128  -0.67560
 Alpha  occ. eigenvalues --   -0.67110  -0.66729  -0.66208  -0.64238  -0.62206
 Alpha  occ. eigenvalues --   -0.61808  -0.61065  -0.60275  -0.59882  -0.59280
 Alpha  occ. eigenvalues --   -0.58240  -0.57333  -0.57001  -0.56779  -0.55992
 Alpha  occ. eigenvalues --   -0.55229  -0.55094  -0.54747  -0.54486  -0.54172
 Alpha  occ. eigenvalues --   -0.54019  -0.53401  -0.52687  -0.52528  -0.52195
 Alpha  occ. eigenvalues --   -0.51802  -0.51464  -0.51165  -0.51010  -0.50732
 Alpha  occ. eigenvalues --   -0.50674  -0.50504  -0.50170  -0.49778  -0.49503
 Alpha  occ. eigenvalues --   -0.49097  -0.48800  -0.48427  -0.48096  -0.47887
 Alpha  occ. eigenvalues --   -0.47804  -0.47235  -0.46956  -0.46457  -0.45861
 Alpha  occ. eigenvalues --   -0.45833  -0.45556  -0.45292  -0.45170  -0.44928
 Alpha  occ. eigenvalues --   -0.44187  -0.43909  -0.43793  -0.43456  -0.43232
 Alpha  occ. eigenvalues --   -0.43034  -0.42495  -0.41925  -0.41757  -0.41456
 Alpha  occ. eigenvalues --   -0.40411  -0.40151  -0.39276  -0.38661  -0.38044
 Alpha  occ. eigenvalues --   -0.37678  -0.36549  -0.35421  -0.35082  -0.33538
 Alpha  occ. eigenvalues --   -0.33249  -0.33033  -0.32451  -0.32257  -0.25748
 Alpha  occ. eigenvalues --   -0.23275
 Alpha virt. eigenvalues --   -0.07461   0.00726   0.02311   0.04557   0.04939
 Alpha virt. eigenvalues --    0.06872   0.08554   0.09601   0.10036   0.10657
 Alpha virt. eigenvalues --    0.11373   0.11982   0.12811   0.13504   0.13976

 Mulliken charges:
               1
     1  Mg   0.974751
     2  C   -0.004474
     3  C   -0.064882
     4  C   -0.065409
     5  C   -0.074899
     6  N   -0.330712
     7  C    0.000516
     8  C   -0.084329
     9  C   -0.117782
    10  C    0.051537
    11  C    0.025248
    12  C    0.010878
    13  C   -0.102343
    14  H    0.032754
    15  N   -0.356517
    16  C    0.129078
    17  C   -0.163777
    18  C   -0.075531
    19  C    0.099975
    20  C    0.082202
    21  C    0.043335
    22  O   -0.246919
    23  C   -0.017107
    24  N   -0.351575
    25  C    0.050160
    26  C   -0.080534
    27  C   -0.041566
    28  C    0.061562
    29  C    0.035310
    30  C   -0.057973
    31  C   -0.043046
    32  N   -0.478885
    33  C    0.099446
    34  C   -0.189121
    35  C    0.040978
    36  C    0.138453
    37  C    0.096905
    38  C    0.037742
    39  O   -0.207915
    40  C   -0.055931
    41  C    0.260118
    42  O   -0.281275
    43  O   -0.359709
    44  C    0.146644
    45  H   -0.010890
    46  H    0.017291
    47  H   -0.000421
    48  H    0.049013
    49  H    0.042629
    50  H    0.031654
    51  H    0.050430
    52  H    0.040577
    53  H    0.012377
    54  H    0.032283
    55  H    0.056006
    56  H    0.054307
    57  H    0.030618
    58  H    0.036826
    59  H    0.063566
    60  H    0.053825
    61  H    0.071504
    62  H    0.050426
    63  H    0.036330
    64  H    0.036891
    65  H    0.036520
    66  H    0.040343
    67  H    0.051424
    68  H    0.029687
    69  H    0.029346
    70  H    0.038451
    71  H    0.037284
    72  H    0.035895
    73  H    0.026403
    74  H    0.066834
    75  H    0.060968
    76  H    0.060676
    77  H    0.053411
    78  H    0.075492
    79  H    0.036642
 Sum of Mulliken charges =  -0.00000

 Dipole moment (field-independent basis, Debye):
    X=             -1.2696    Y=             -2.8801    Z=              3.2657  Tot=              4.5356
 Quadrupole moment (field-independent basis, Debye-Ang):
   XX=           -267.0291   YY=           -223.4417   ZZ=           -257.7531
   XY=            -17.8536   XZ=             -4.7293   YZ=              0.6154

 Normal termination of Gaussian 16 at Mon Sep 20 21:12:07 2021.
