 Gaussian 16, Revision A.03,
 Gaussian 16:  ES64L-G16RevA.03 25-Dec-2016

 --------------------------------
 #p wB97XD/Def2SVP td=(nstates=5)
 --------------------------------

 --------------------------------
 TDDFT excited states in gaussian
 --------------------------------
 Symbolic Z-matrix:
 Charge =  0 Multiplicity = 1

                         Standard orientation:
 ---------------------------------------------------------------------
 Center     Atomic      Atomic             Coordinates (Angstroms)
 Number     Number       Type             X           Y           Z
 ---------------------------------------------------------------------
      1         12           0       25.232255   -0.486676    0.021886
      2          6           0       23.610560    2.597345    0.632882
      3          6           0       25.202038    0.289356   -3.167165
      4          6           0       25.739153   -3.710005   -0.512184
      5          6           0       24.462804   -1.277317    3.399933
      6          7           0       24.602669    1.405618   -1.052506
      7          6           0       24.080905    2.507639   -0.652998
      8          6           0       24.110099    3.568041   -1.772903
      9          6           0       24.175443    2.675098   -3.114511
     10          6           0       24.623471    1.321208   -2.422100
     11          6           0       22.833703    2.535496   -3.936965
     12          6           0       25.442286    4.478370   -1.665833
     13          6           0       25.412945    5.980388   -2.097353
     14          1           0       24.379128    6.360485   -3.220564
     15          7           0       25.650424   -1.533652   -1.603509
     16          6           0       25.640962   -0.974673   -2.872604
     17          6           0       26.022531   -2.043883   -3.861263
     18          6           0       26.216637   -3.232524   -3.040701
     19          6           0       25.880083   -2.940903   -1.644587
     20          6           0       26.077676   -1.755718   -5.349663
     21          6           0       26.691360   -4.591468   -3.506165
     22          8           0       26.800746   -5.586861   -2.776762
     23          6           0       27.092261   -4.756553   -4.915955
     24          7           0       25.216129   -2.291910    1.338328
     25          6           0       25.419418   -3.483818    0.806901
     26          6           0       25.674644   -4.557619    1.955929
     27          6           0       25.207735   -3.698535    3.252485
     28          6           0       24.981632   -2.321758    2.633590
     29          6           0       24.926795   -5.913686    1.733688
     30          6           0       26.179631   -3.627801    4.475785
     31          6           0       25.747912   -4.335167    5.734628
     32          7           0       24.430894    0.505819    1.795107
     33          6           0       24.202872    0.012545    3.064389
     34          6           0       23.522132    0.966455    3.836283
     35          6           0       23.234515    1.980947    2.903614
     36          6           0       23.757150    1.680125    1.668112
     37          6           0       23.129462    0.881647    5.224743
     38          6           0       22.656533    3.267284    2.844905
     39          8           0       22.162510    4.076232    3.676606
     40          6           0       22.637346    3.605589    1.286635
     41          6           0       22.997664    5.028570    1.063833
     42          8           0       24.062085    5.587236    1.320784
     43          8           0       21.902051    5.635861    0.372879
     44          6           0       22.024195    7.062561    0.047321
     45          1           0       25.296545    0.648014   -4.194657
     46          1           0       25.969454   -4.760738   -0.696813
     47          1           0       24.301914   -1.500741    4.457279
     48          1           0       23.113544    4.006165   -1.821408
     49          1           0       24.842462    3.170158   -3.819441
     50          1           0       21.970381    2.883454   -3.370188
     51          1           0       22.609798    1.493890   -4.166571
     52          1           0       22.970974    3.144557   -4.830374
     53          1           0       26.279510    4.002930   -2.177064
     54          1           0       25.788557    4.443805   -0.632685
     55          1           0       26.371836    6.351429   -2.460658
     56          1           0       24.987639    6.534744   -1.259827
     57          1           0       26.970614   -2.173129   -5.816379
     58          1           0       26.035006   -0.691757   -5.582717
     59          1           0       25.143035   -2.072651   -5.811715
     60          1           0       26.273347   -4.503870   -5.590069
     61          1           0       27.407619   -5.785002   -5.092114
     62          1           0       27.954166   -4.169446   -5.233022
     63          1           0       26.733347   -4.768815    2.105973
     64          1           0       24.193735   -3.949199    3.567515
     65          1           0       24.270782   -5.847432    0.865540
     66          1           0       24.477861   -6.058307    2.716568
     67          1           0       25.692503   -6.685432    1.666413
     68          1           0       26.298114   -2.575046    4.733190
     69          1           0       27.163012   -3.992446    4.178297
     70          1           0       24.870614   -4.896411    5.415726
     71          1           0       25.422647   -3.575473    6.446326
     72          1           0       26.487242   -5.041242    6.110683
     73          1           0       24.022224    0.606724    5.785799
     74          1           0       22.502210    0.031510    5.493085
     75          1           0       22.766700    1.852505    5.562803
     76          1           0       21.632198    3.411225    0.911108
     77          1           0       21.101172    7.437774   -0.395433
     78          1           0       22.733946    7.169160   -0.773249
     79          1           0       22.201659    7.624403    0.963742
     80         12           0      -24.106790   -0.825229    0.099344
     81          6           0      -25.278695    2.560000    0.480997
     82          6           0      -22.631653    0.046012   -2.767834
     83          6           0      -23.845645   -4.095350   -0.585389
     84          6           0      -26.105697   -1.635507    2.865582
     85          7           0      -24.030847    1.046302   -1.006738
     86          6           0      -24.397069    2.340413   -0.599249
     87          6           0      -23.807187    3.435826   -1.567064
     88          6           0      -23.032706    2.577511   -2.612550
     89          6           0      -23.187827    1.129852   -2.075322
     90          6           0      -23.457979    2.692870   -4.054367
     91          6           0      -22.927330    4.553310   -0.788401
     92          6           0      -23.327974    6.008178   -1.062250
     93          1           0      -22.165607    6.891752   -1.650092
     94          7           0      -23.213730   -1.882115   -1.407750
     95          6           0      -22.662424   -1.368749   -2.512151
     96          6           0      -22.155477   -2.417409   -3.398951
     97          6           0      -22.609097   -3.634125   -2.781884
     98          6           0      -23.276233   -3.247082   -1.534401
     99          6           0      -21.411831   -2.142652   -4.634964
    100          6           0      -22.472435   -5.043330   -3.439368
    101          8           0      -22.809654   -6.062186   -2.859923
    102          6           0      -21.899614   -5.247221   -4.805632
    103          7           0      -24.848777   -2.540033    0.996758
    104          6           0      -24.484245   -3.816030    0.580666
    105          6           0      -25.049111   -4.904889    1.550973
    106          6           0      -25.458609   -4.063311    2.816827
    107          6           0      -25.424962   -2.651707    2.231502
    108          6           0      -26.112847   -5.903127    0.988483
    109          6           0      -24.482102   -4.202676    4.016697
    110          6           0      -25.052748   -4.268694    5.410871
    111          7           0      -25.470348    0.205263    1.393048
    112          6           0      -26.191530   -0.263491    2.454241
    113          6           0      -26.851015    0.922680    3.156314
    114          6           0      -26.478665    2.040960    2.450244
    115          6           0      -25.698990    1.550077    1.347335
    116          6           0      -27.635405    0.778974    4.440653
    117          6           0      -26.584834    3.482757    2.314421
    118          8           0      -27.226685    4.213816    3.097417
    119          6           0      -25.850838    3.904816    0.906216
    120          6           0      -26.784327    4.433640   -0.162656
    121          8           0      -27.781752    3.777050   -0.521667
    122          8           0      -26.494486    5.750457   -0.522375
    123          6           0      -27.607848    6.393792   -1.210201
    124          1           0      -22.036681    0.277526   -3.653524
    125          1           0      -23.658773   -5.136889   -0.853831
    126          1           0      -26.604959   -1.946541    3.786117
    127          1           0      -24.707237    3.906595   -1.962034
    128          1           0      -22.039898    3.027671   -2.653557
    129          1           0      -24.315918    3.349831   -4.197979
    130          1           0      -23.856095    1.689252   -4.199988
    131          1           0      -22.663988    3.048990   -4.711458
    132          1           0      -21.914006    4.334504   -1.123995
    133          1           0      -22.920402    4.319153    0.275796
    134          1           0      -23.740380    6.396855   -0.131149
    135          1           0      -24.124648    6.025093   -1.807073
    136          1           0      -21.762335   -2.543710   -5.585450
    137          1           0      -20.508467   -2.744707   -4.544030
    138          1           0      -21.011396   -1.132867   -4.727532
    139          1           0      -20.877342   -4.872618   -4.741036
    140          1           0      -22.444016   -4.578057   -5.472514
    141          1           0      -22.016000   -6.309424   -5.017088
    142          1           0      -24.171615   -5.499362    1.805453
    143          1           0      -26.492641   -4.227355    3.119176
    144          1           0      -26.142863   -5.684955   -0.078797
    145          1           0      -27.083384   -5.848474    1.480781
    146          1           0      -25.749580   -6.931554    0.985444
    147          1           0      -23.928185   -3.277603    3.858121
    148          1           0      -23.764449   -5.018813    3.930605
    149          1           0      -24.485479   -5.047226    5.921098
    150          1           0      -26.099939   -4.572187    5.431500
    151          1           0      -24.751450   -3.341669    5.899289
    152          1           0      -27.649019   -0.281758    4.690519
    153          1           0      -28.670606    1.051498    4.236466
    154          1           0      -27.214291    1.435724    5.201596
    155          1           0      -25.048764    4.606053    1.136549
    156          1           0      -28.107154    7.183837   -0.651006
    157          1           0      -28.377776    5.703322   -1.554825
    158          1           0      -27.186796    6.843968   -2.108810
 ---------------------------------------------------------------------

 SCF Done:  E(RwB97XD) =  -4070.56368675     A.U. after   19 cycles

 Excitation energies and oscillator strengths:

 Excited State   1:      Singlet-A      1.6412 eV  755.44 nm  f=0.4131  <S**2>=0.000
     310 -> 316       -0.17864
     312 -> 314        0.68586
     310 <- 316       -0.11673
 This state for optimization and/or second-order correction.
 Total Energy, E(TD-HF/TD-DFT) =  -4070.50337306
 Copying the excited state density for this state as the 1-particle RhoCI density.

 Excited State   2:      Singlet-A      1.7434 eV  711.16 nm  f=0.3646  <S**2>=0.000
     309 -> 315        0.21778
     311 -> 313        0.67306
     309 <- 315        0.11925

 Excited State   3:      Singlet-A      2.1695 eV  571.49 nm  f=0.0784  <S**2>=0.000
     309 -> 313        0.62751
     311 -> 315       -0.30973

 Excited State   4:      Singlet-A      2.2310 eV  555.73 nm  f=0.0894  <S**2>=0.000
     310 -> 314        0.62832
     312 -> 316        0.31484

 Excited State   5:      Singlet-A      3.3077 eV  374.84 nm  f=0.0361  <S**2>=0.000
     306 -> 313       -0.13260
     308 -> 313        0.60457
     311 -> 315        0.28170

 The electronic state is 1-A.
 Alpha  occ. eigenvalues --  -46.95755 -46.94743 -19.31938 -19.29210 -19.25822
 Alpha  occ. eigenvalues --  -19.25176 -19.25069 -19.24056 -19.23559 -19.23529
 Alpha  occ. eigenvalues --  -14.47187 -14.46744 -14.46316 -14.46251 -14.44636
 Alpha  occ. eigenvalues --  -14.44307 -14.43935 -14.43209 -10.44722 -10.43187
 Alpha  occ. eigenvalues --  -10.40612 -10.39113 -10.38860 -10.38553 -10.35671
 Alpha  occ. eigenvalues --  -10.35608 -10.35486 -10.35051 -10.34961 -10.34861
 Alpha  occ. eigenvalues --  -10.34829 -10.34739 -10.34727 -10.34659 -10.34465
 Alpha  occ. eigenvalues --  -10.34360 -10.34309 -10.34117 -10.34041 -10.33768
 Alpha  occ. eigenvalues --  -10.33482 -10.33341 -10.33187 -10.33062 -10.33017
 Alpha  occ. eigenvalues --  -10.32783 -10.32749 -10.32647 -10.32585 -10.32538
 Alpha  occ. eigenvalues --  -10.32411 -10.32387 -10.32341 -10.32181 -10.31992
 Alpha  occ. eigenvalues --  -10.31910 -10.31741 -10.31683 -10.31681 -10.31604
 Alpha  occ. eigenvalues --  -10.31504 -10.31492 -10.31418 -10.31294 -10.31266
 Alpha  occ. eigenvalues --  -10.31034 -10.31012 -10.30998 -10.30551 -10.30432
 Alpha  occ. eigenvalues --  -10.30265 -10.30192 -10.30092 -10.30052 -10.29997
 Alpha  occ. eigenvalues --  -10.29840 -10.29823 -10.29822 -10.29713 -10.29694
 Alpha  occ. eigenvalues --  -10.29364 -10.29342 -10.29243 -10.29239 -10.29205
 Alpha  occ. eigenvalues --  -10.28698  -3.21667  -3.20817  -1.95258  -1.94799
 Alpha  occ. eigenvalues --   -1.94614  -1.94389  -1.93927  -1.93818  -1.18533
 Alpha  occ. eigenvalues --   -1.16138  -1.12287  -1.11658  -1.11345  -1.10174
 Alpha  occ. eigenvalues --   -1.09536  -1.08961  -1.07820  -1.07242  -1.05928
 Alpha  occ. eigenvalues --   -1.05580  -1.05332  -1.04637  -1.03913  -1.03538
 Alpha  occ. eigenvalues --   -0.94981  -0.94639  -0.91452  -0.90996  -0.90607
 Alpha  occ. eigenvalues --   -0.90546  -0.89923  -0.89828  -0.89511  -0.89295
 Alpha  occ. eigenvalues --   -0.89289  -0.89139  -0.88883  -0.88080  -0.86244
 Alpha  occ. eigenvalues --   -0.86196  -0.85897  -0.85558  -0.84673  -0.84620
 Alpha  occ. eigenvalues --   -0.83981  -0.83836  -0.83476  -0.83166  -0.82660
 Alpha  occ. eigenvalues --   -0.82197  -0.80967  -0.80384  -0.79678  -0.79539
 Alpha  occ. eigenvalues --   -0.78919  -0.78878  -0.78146  -0.77856  -0.77198
 Alpha  occ. eigenvalues --   -0.76654  -0.75250  -0.74460  -0.74275  -0.72952
 Alpha  occ. eigenvalues --   -0.71015  -0.70969  -0.70532  -0.70336  -0.69920
 Alpha  occ. eigenvalues --   -0.69839  -0.69234  -0.68681  -0.67917  -0.67608
 Alpha  occ. eigenvalues --   -0.67583  -0.67266  -0.66944  -0.66902  -0.66624
 Alpha  occ. eigenvalues --   -0.66363  -0.64598  -0.63287  -0.62573  -0.62255
 Alpha  occ. eigenvalues --   -0.62151  -0.61754  -0.61327  -0.60891  -0.60505
 Alpha  occ. eigenvalues --   -0.60380  -0.60346  -0.59750  -0.59324  -0.59321
 Alpha  occ. eigenvalues --   -0.58993  -0.58253  -0.57784  -0.57437  -0.57410
 Alpha  occ. eigenvalues --   -0.57057  -0.56856  -0.56337  -0.55768  -0.55708
 Alpha  occ. eigenvalues --   -0.55500  -0.55448  -0.55143  -0.55117  -0.54912
 Alpha  occ. eigenvalues --   -0.54583  -0.54543  -0.54429  -0.54361  -0.54213
 Alpha  occ. eigenvalues --   -0.53763  -0.53549  -0.53486  -0.53449  -0.53185
 Alpha  occ. eigenvalues --   -0.53111  -0.53065  -0.52872  -0.52778  -0.52534
 Alpha  occ. eigenvalues --   -0.52292  -0.52186  -0.51862  -0.51563  -0.51524
 Alpha  occ. eigenvalues --   -0.51342  -0.51137  -0.51071  -0.50767  -0.50730
 Alpha  occ. eigenvalues --   -0.50645  -0.50573  -0.50338  -0.50263  -0.50081
 Alpha  occ. eigenvalues --   -0.49984  -0.49870  -0.49755  -0.49591  -0.49273
 Alpha  occ. eigenvalues --   -0.49186  -0.49032  -0.48930  -0.48754  -0.48688
 Alpha  occ. eigenvalues --   -0.48429  -0.48274  -0.48082  -0.47959  -0.47892
 Alpha  occ. eigenvalues --   -0.47601  -0.47551  -0.47324  -0.47320  -0.46898
 Alpha  occ. eigenvalues --   -0.46505  -0.46322  -0.46217  -0.46076  -0.45950
 Alpha  occ. eigenvalues --   -0.45928  -0.45878  -0.45721  -0.45557  -0.45525
 Alpha  occ. eigenvalues --   -0.45268  -0.45153  -0.44957  -0.44946  -0.44819
 Alpha  occ. eigenvalues --   -0.44600  -0.44582  -0.43917  -0.43727  -0.43644
 Alpha  occ. eigenvalues --   -0.43636  -0.43603  -0.43142  -0.43035  -0.42976
 Alpha  occ. eigenvalues --   -0.42687  -0.42684  -0.42561  -0.42459  -0.42263
 Alpha  occ. eigenvalues --   -0.42095  -0.42004  -0.41428  -0.41030  -0.40981
 Alpha  occ. eigenvalues --   -0.40448  -0.40208  -0.39936  -0.39748  -0.39489
 Alpha  occ. eigenvalues --   -0.39436  -0.39433  -0.38502  -0.38423  -0.38125
 Alpha  occ. eigenvalues --   -0.38037  -0.37639  -0.37086  -0.36610  -0.36436
 Alpha  occ. eigenvalues --   -0.35923  -0.35664  -0.35162  -0.34042  -0.33710
 Alpha  occ. eigenvalues --   -0.33512  -0.33253  -0.32645  -0.32611  -0.32577
 Alpha  occ. eigenvalues --   -0.32338  -0.31939  -0.31495  -0.26119  -0.26098
 Alpha  occ. eigenvalues --   -0.23520  -0.22580
 Alpha virt. eigenvalues --   -0.06993  -0.06767  -0.00762   0.00592   0.01790
 Alpha virt. eigenvalues --    0.01974   0.04284   0.04329   0.04883   0.05114
 Alpha virt. eigenvalues --    0.05406   0.06715   0.06999   0.07834   0.08012

 Mulliken charges:
               1
     1  Mg   0.950727
     2  C   -0.001448
     3  C   -0.092575
     4  C   -0.057201
     5  C   -0.097652
     6  N   -0.289339
     7  C   -0.079987
     8  C   -0.021983
     9  C   -0.152180
    10  C    0.044798
    11  C    0.020213
    12  C    0.019115
    13  C   -0.121873
    14  H   -0.003191
    15  N   -0.573428
    16  C    0.230542
    17  C   -0.157419
    18  C   -0.064094
    19  C    0.176551
    20  C    0.067690
    21  C    0.057092
    22  O   -0.243262
    23  C   -0.029518
    24  N   -0.281753
    25  C    0.040637
    26  C   -0.118740
    27  C   -0.082449
    28  C    0.022699
    29  C    0.039320
    30  C   -0.018060
    31  C   -0.035002
    32  N   -0.421116
    33  C    0.154853
    34  C   -0.152142
    35  C   -0.029633
    36  C    0.146276
    37  C    0.092588
    38  C    0.133299
    39  O   -0.250645
    40  C   -0.095522
    41  C    0.289020
    42  O   -0.246537
    43  O   -0.409292
    44  C    0.146586
    45  H   -0.006521
    46  H    0.019250
    47  H   -0.015414
    48  H    0.024968
    49  H    0.044113
    50  H    0.036935
    51  H    0.039603
    52  H    0.044107
    53  H    0.028300
    54  H    0.057716
    55  H    0.065772
    56  H    0.078833
    57  H    0.055785
    58  H    0.031536
    59  H    0.060649
    60  H    0.053886
    61  H    0.050877
    62  H    0.060078
    63  H    0.047728
    64  H    0.033915
    65  H    0.061741
    66  H    0.028993
    67  H    0.039273
    68  H    0.034196
    69  H    0.025078
    70  H    0.022681
    71  H    0.040437
    72  H    0.046574
    73  H    0.029876
    74  H    0.045538
    75  H    0.071943
    76  H    0.082458
    77  H    0.044112
    78  H    0.042308
    79  H    0.066713
    80  Mg   0.975950
    81  C   -0.099735
    82  C   -0.080733
    83  C   -0.088210
    84  C   -0.101439
    85  N   -0.370288
    86  C   -0.011345
    87  C   -0.072477
    88  C   -0.107093
    89  C    0.104539
    90  C    0.024235
    91  C    0.006826
    92  C   -0.108971
    93  H    0.027751
    94  N   -0.454591
    95  C    0.113989
    96  C   -0.149528
    97  C   -0.076213
    98  C    0.118114
    99  C    0.069215
   100  C    0.031446
   101  O   -0.238354
   102  C    0.012025
   103  N   -0.401017
   104  C    0.093411
   105  C   -0.058223
   106  C   -0.103724
   107  C    0.063951
   108  C    0.035211
   109  C   -0.016666
   110  C   -0.026201
   111  N   -0.388623
   112  C    0.149157
   113  C   -0.228847
   114  C    0.015722
   115  C    0.154273
   116  C    0.098513
   117  C    0.146822
   118  O   -0.221190
   119  C   -0.037459
   120  C    0.292928
   121  O   -0.256313
   122  O   -0.367206
   123  C    0.121097
   124  H   -0.014053
   125  H    0.016143
   126  H   -0.003777
   127  H    0.041643
   128  H    0.034186
   129  H    0.028903
   130  H    0.041571
   131  H    0.042982
   132  H    0.031988
   133  H    0.037931
   134  H    0.064377
   135  H    0.054526
   136  H    0.046854
   137  H    0.028317
   138  H    0.042630
   139  H    0.049363
   140  H    0.051983
   141  H    0.067712
   142  H    0.030976
   143  H    0.029187
   144  H    0.038572
   145  H    0.045336
   146  H    0.035502
   147  H    0.029357
   148  H    0.034952
   149  H    0.028934
   150  H    0.041846
   151  H    0.043822
   152  H    0.023023
   153  H    0.059026
   154  H    0.067103
   155  H    0.058216
   156  H    0.063454
   157  H    0.072064
   158  H    0.044621
 Sum of Mulliken charges =  -0.00000

 Dipole moment (field-independent basis, Debye):
    X=              4.7213    Y=             -1.4756    Z=             -5.4244  Tot=              7.3411
 Quadrupole moment (field-independent basis, Debye-Ang):
   XX=           -618.0558   YY=           -536.4352   ZZ=           -467.8255
   XY=            -42.9006   XZ=            -67.3703   YZ=            -62.2911

 Normal termination of Gaussian 16 at Sun Sep 19 00:49:15 2021.
