 Gaussian 16, Revision A.03,
 Gaussian 16:  ES64L-G16RevA.03 25-Dec-2016

 --------------------------------
 #p wB97XD/Def2SVP td=(nstates=5)
 --------------------------------

 --------------------------------
 TDDFT excited states in gaussian
 --------------------------------
 Symbolic Z-matrix:
 Charge =  0 Multiplicity = 1

                         Standard orientation:
 ---------------------------------------------------------------------
 Center     Atomic      Atomic             Coordinates (Angstroms)
 Number     Number       Type             X           Y           Z
 ---------------------------------------------------------------------
      1         12           0        9.744050   -0.078062    0.803676
      2          6           0        9.189145    1.736391   -2.237088
      3          6           0        6.646806    1.205019    1.934984
      4          6           0        9.829825   -2.317539    3.301209
      5          6           0       12.358137   -1.708638   -0.752328
      6          7           0        8.082001    1.332100   -0.038212
      7          6           0        8.137032    1.868543   -1.294149
      8          6           0        6.787033    2.470013   -1.651338
      9          6           0        6.155263    2.511942   -0.197208
     10          6           0        6.969658    1.634553    0.675125
     11          6           0        5.997576    3.916659    0.475956
     12          6           0        6.097686    1.619093   -2.765732
     13          6           0        5.407410    2.340313   -3.995423
     14          1           0        3.895492    2.170205   -4.228953
     15          7           0        8.591321   -0.386733    2.446315
     16          6           0        7.357609    0.238193    2.767876
     17          6           0        6.863773   -0.240202    4.045929
     18          6           0        7.806010   -1.279529    4.428746
     19          6           0        8.795166   -1.340176    3.369015
     20          6           0        5.579259    0.215862    4.601083
     21          6           0        7.685054   -2.070569    5.742892
     22          8           0        6.653142   -1.843772    6.439733
     23          6           0        8.708828   -3.099894    6.266977
     24          7           0       10.753788   -1.991326    1.160322
     25          6           0       10.748922   -2.612950    2.323887
     26          6           0       11.697723   -3.765425    2.250292
     27          6           0       12.524892   -3.494058    0.965272
     28          6           0       11.781196   -2.352184    0.343646
     29          6           0       12.627220   -4.108622    3.491878
     30          6           0       12.676334   -4.751996   -0.036521
     31          6           0       14.088169   -5.341852   -0.273671
     32          7           0       10.732577    0.095165   -0.971468
     33          6           0       11.759212   -0.615175   -1.468484
     34          6           0       12.125285   -0.166580   -2.761788
     35          6           0       11.159565    0.792687   -3.075237
     36          6           0       10.287545    0.897966   -1.962241
     37          6           0       13.240811   -0.559720   -3.644564
     38          6           0       10.762895    1.649330   -4.149891
     39          8           0       11.243875    1.741400   -5.257017
     40          6           0        9.338646    2.312494   -3.622039
     41          6           0        9.453995    3.775164   -3.582722
     42          8           0       10.425888    4.408827   -3.152126
     43          8           0        8.272113    4.277885   -4.083666
     44          6           0        8.159975    5.734243   -4.144890
     45          1           0        5.702157    1.569151    2.341782
     46          1           0        9.847756   -3.131986    4.027916
     47          1           0       13.305876   -2.026481   -1.192318
     48          1           0        6.978063    3.509993   -1.917255
     49          1           0        5.236468    1.968566   -0.420904
     50          1           0        6.533224    3.882851    1.425739
     51          1           0        4.968460    4.185349    0.713315
     52          1           0        6.453508    4.749919   -0.059616
     53          1           0        5.342407    1.118461   -2.160318
     54          1           0        6.702501    0.823850   -3.200914
     55          1           0        5.964161    1.992436   -4.865352
     56          1           0        5.698252    3.390184   -3.976444
     57          1           0        4.837576    0.067138    3.815946
     58          1           0        5.612000    1.290474    4.779428
     59          1           0        5.272994   -0.178589    5.570308
     60          1           0        8.635180   -3.992397    5.645374
     61          1           0        8.570034   -3.083732    7.347484
     62          1           0        9.661709   -2.603672    6.079839
     63          1           0       11.088009   -4.661405    2.140574
     64          1           0       13.431206   -3.049268    1.376391
     65          1           0       12.792366   -5.183532    3.414270
     66          1           0       12.108560   -3.812379    4.403519
     67          1           0       13.561937   -3.570111    3.334670
     68          1           0       12.243337   -4.388284   -0.968217
     69          1           0       11.964944   -5.512020    0.286310
     70          1           0       14.320171   -5.470012   -1.330114
     71          1           0       14.152895   -6.302017    0.238870
     72          1           0       14.887708   -4.765246    0.191851
     73          1           0       13.430758    0.188805   -4.413152
     74          1           0       12.794652   -1.472294   -4.040276
     75          1           0       14.033866   -0.971046   -3.020213
     76          1           0        8.489106    1.922499   -4.181509
     77          1           0        9.015402    6.184246   -4.649230
     78          1           0        8.053258    6.138290   -3.137105
     79          1           0        7.272767    5.990663   -4.723914
     80         12           0       -9.901480   -0.747354   -0.120676
     81          6           0       -8.231461    1.973759    1.435213
     82          6           0       -6.687768   -1.819741   -1.137563
     83          6           0      -11.317064   -3.090404   -1.895663
     84          6           0      -12.945269    0.686174    0.760763
     85          7           0       -7.663837    0.013692    0.118726
     86          6           0       -7.307084    1.091548    0.891414
     87          6           0       -5.803484    1.244838    1.046394
     88          6           0       -5.338129    0.066775    0.087303
     89          6           0       -6.629753   -0.661280   -0.315587
     90          6           0       -4.448953    0.594160   -1.034946
     91          6           0       -5.381730    1.043740    2.518538
     92          6           0       -4.195175    1.911103    3.088001
     93          1           0       -3.213242    2.553566    2.080101
     94          7           0       -9.118037   -2.307232   -1.294039
     95          6           0       -7.783668   -2.515443   -1.644202
     96          6           0       -7.717797   -3.711661   -2.498624
     97          6           0       -9.074341   -4.150419   -2.643475
     98          6           0       -9.876596   -3.174726   -1.880960
     99          6           0       -6.500966   -4.195647   -3.084769
    100          6           0       -9.607325   -5.346156   -3.426353
    101          8           0      -10.827434   -5.544167   -3.539820
    102          6           0       -8.690590   -6.395369   -3.920384
    103          7           0      -11.859925   -1.086901   -0.598725
    104          6           0      -12.199769   -2.189985   -1.270741
    105          6           0      -13.746604   -2.263661   -1.484631
    106          6           0      -14.249136   -1.178862   -0.479838
    107          6           0      -12.997934   -0.461133   -0.081011
    108          6           0      -14.202531   -2.087759   -2.977831
    109          6           0      -14.856223   -1.987182    0.729822
    110          6           0      -13.972301   -2.323298    1.980053
    111          7           0      -10.516535    0.897868    0.964892
    112          6           0      -11.820406    1.357983    1.223581
    113          6           0      -11.721924    2.641352    1.962254
    114          6           0      -10.359646    2.915054    1.998386
    115          6           0       -9.642179    1.877110    1.442408
    116          6           0      -12.907105    3.450334    2.188789
    117          6           0       -9.426044    3.981142    2.353196
    118          8           0       -9.685225    5.086488    2.815512
    119          6           0       -7.972510    3.427014    1.976366
    120          6           0       -7.291094    4.321470    1.009230
    121          8           0       -7.290439    4.201746   -0.212567
    122          8           0       -6.617859    5.334433    1.717990
    123          6           0       -5.909049    6.392374    1.034124
    124          1           0       -5.744557   -2.351192   -1.283022
    125          1           0      -11.854812   -3.860280   -2.453630
    126          1           0      -13.955928    1.011288    1.015202
    127          1           0       -5.441918    2.213429    0.700170
    128          1           0       -4.653084   -0.542050    0.676709
    129          1           0       -3.473599    0.115031   -1.112337
    130          1           0       -4.256601    1.667077   -1.031922
    131          1           0       -4.941335    0.322136   -1.969521
    132          1           0       -5.131271    0.000535    2.710762
    133          1           0       -6.323920    1.261190    3.022822
    134          1           0       -3.530899    1.293134    3.691190
    135          1           0       -4.650934    2.548576    3.845623
    136          1           0       -6.435235   -5.251181   -2.820105
    137          1           0       -5.673173   -3.516780   -2.882113
    138          1           0       -6.710887   -4.009128   -4.138449
    139          1           0       -8.084978   -6.079844   -4.770497
    140          1           0       -9.273013   -7.246217   -4.273340
    141          1           0       -7.960477   -6.590260   -3.135386
    142          1           0      -13.892158   -3.299429   -1.177786
    143          1           0      -15.042092   -0.564880   -0.907601
    144          1           0      -14.356779   -3.063828   -3.438020
    145          1           0      -13.459632   -1.451414   -3.457648
    146          1           0      -15.147186   -1.545704   -2.937508
    147          1           0      -15.429532   -2.831064    0.345523
    148          1           0      -15.501274   -1.251523    1.211176
    149          1           0      -14.222565   -3.362936    2.189292
    150          1           0      -14.231678   -1.730538    2.858189
    151          1           0      -12.893841   -2.279028    1.832091
    152          1           0      -13.453004    3.534303    1.249950
    153          1           0      -12.553014    4.443978    2.465231
    154          1           0      -13.448625    3.112615    3.072003
    155          1           0       -7.441528    3.456526    2.928337
    156          1           0       -6.495506    7.303945    0.921812
    157          1           0       -5.374536    6.014234    0.162553
    158          1           0       -5.071049    6.543583    1.715160
 ---------------------------------------------------------------------

 SCF Done:  E(RwB97XD) =  -4070.59026310     A.U. after   17 cycles

 Excitation energies and oscillator strengths:

 Excited State   1:      Singlet-A      1.6376 eV  757.13 nm  f=0.3845  <S**2>=0.000
     309 -> 315        0.19097
     311 -> 313        0.68322
     309 <- 315        0.12122
 This state for optimization and/or second-order correction.
 Total Energy, E(TD-HF/TD-DFT) =  -4070.53008415
 Copying the excited state density for this state as the 1-particle RhoCI density.

 Excited State   2:      Singlet-A      1.6998 eV  729.39 nm  f=0.3730  <S**2>=0.000
     310 -> 316        0.19452
     312 -> 314        0.67890
     310 <- 316        0.11676

 Excited State   3:      Singlet-A      2.1987 eV  563.91 nm  f=0.1335  <S**2>=0.000
     309 -> 313        0.63784
     311 -> 315       -0.29178

 Excited State   4:      Singlet-A      2.2203 eV  558.40 nm  f=0.0692  <S**2>=0.000
     310 -> 314        0.62058
     312 -> 316       -0.32273

 Excited State   5:      Singlet-A      3.3779 eV  367.04 nm  f=0.0000  <S**2>=0.000
     312 -> 313        0.70680

 The electronic state is 1-A.
 Alpha  occ. eigenvalues --  -46.95379 -46.94841 -19.31622 -19.29252 -19.25641
 Alpha  occ. eigenvalues --  -19.24939 -19.24834 -19.24344 -19.23819 -19.23318
 Alpha  occ. eigenvalues --  -14.46746 -14.46685 -14.46103 -14.45845 -14.44691
 Alpha  occ. eigenvalues --  -14.44558 -14.44291 -14.43523 -10.44069 -10.43349
 Alpha  occ. eigenvalues --  -10.39624 -10.39383 -10.39383 -10.39299 -10.36301
 Alpha  occ. eigenvalues --  -10.35356 -10.35065 -10.34943 -10.34921 -10.34805
 Alpha  occ. eigenvalues --  -10.34759 -10.34541 -10.34531 -10.34521 -10.34463
 Alpha  occ. eigenvalues --  -10.34457 -10.34446 -10.34216 -10.33912 -10.33237
 Alpha  occ. eigenvalues --  -10.33236 -10.33235 -10.33165 -10.33124 -10.32929
 Alpha  occ. eigenvalues --  -10.32916 -10.32854 -10.32390 -10.32214 -10.32174
 Alpha  occ. eigenvalues --  -10.31998 -10.31823 -10.31766 -10.31745 -10.31705
 Alpha  occ. eigenvalues --  -10.31699 -10.31668 -10.31604 -10.31585 -10.31465
 Alpha  occ. eigenvalues --  -10.31427 -10.31419 -10.31368 -10.31367 -10.31314
 Alpha  occ. eigenvalues --  -10.31242 -10.31195 -10.31072 -10.30783 -10.30773
 Alpha  occ. eigenvalues --  -10.30686 -10.30612 -10.30422 -10.30407 -10.30403
 Alpha  occ. eigenvalues --  -10.30304 -10.30246 -10.30007 -10.29614 -10.29376
 Alpha  occ. eigenvalues --  -10.29242 -10.29137 -10.29089 -10.28918 -10.28751
 Alpha  occ. eigenvalues --  -10.28687  -3.21377  -3.20830  -1.94956  -1.94489
 Alpha  occ. eigenvalues --   -1.94425  -1.94360  -1.93964  -1.93788  -1.18845
 Alpha  occ. eigenvalues --   -1.16837  -1.13212  -1.11877  -1.11457  -1.10488
 Alpha  occ. eigenvalues --   -1.09591  -1.09462  -1.07603  -1.06889  -1.06809
 Alpha  occ. eigenvalues --   -1.06099  -1.05894  -1.05083  -1.04529  -1.03369
 Alpha  occ. eigenvalues --   -0.95295  -0.93940  -0.91874  -0.91374  -0.90545
 Alpha  occ. eigenvalues --   -0.90341  -0.90246  -0.90144  -0.90023  -0.89554
 Alpha  occ. eigenvalues --   -0.89310  -0.88642  -0.88112  -0.88100  -0.86720
 Alpha  occ. eigenvalues --   -0.86072  -0.85889  -0.85214  -0.84733  -0.84587
 Alpha  occ. eigenvalues --   -0.84061  -0.83868  -0.83460  -0.82765  -0.82581
 Alpha  occ. eigenvalues --   -0.82422  -0.80964  -0.80320  -0.79717  -0.79016
 Alpha  occ. eigenvalues --   -0.78966  -0.78786  -0.78351  -0.77719  -0.77422
 Alpha  occ. eigenvalues --   -0.76743  -0.75335  -0.74330  -0.74102  -0.73292
 Alpha  occ. eigenvalues --   -0.71852  -0.71513  -0.71134  -0.70879  -0.70584
 Alpha  occ. eigenvalues --   -0.69841  -0.68882  -0.68748  -0.68197  -0.67757
 Alpha  occ. eigenvalues --   -0.67252  -0.66944  -0.66918  -0.66642  -0.66429
 Alpha  occ. eigenvalues --   -0.66187  -0.65079  -0.63541  -0.62368  -0.62276
 Alpha  occ. eigenvalues --   -0.62065  -0.61640  -0.61323  -0.61056  -0.61033
 Alpha  occ. eigenvalues --   -0.60536  -0.60029  -0.59847  -0.59726  -0.59154
 Alpha  occ. eigenvalues --   -0.58308  -0.58280  -0.58027  -0.57722  -0.57472
 Alpha  occ. eigenvalues --   -0.57221  -0.56983  -0.56601  -0.56180  -0.55943
 Alpha  occ. eigenvalues --   -0.55806  -0.55772  -0.55419  -0.55299  -0.55114
 Alpha  occ. eigenvalues --   -0.55023  -0.54727  -0.54707  -0.54189  -0.54186
 Alpha  occ. eigenvalues --   -0.53763  -0.53717  -0.53494  -0.53454  -0.53305
 Alpha  occ. eigenvalues --   -0.53235  -0.52767  -0.52670  -0.52502  -0.52371
 Alpha  occ. eigenvalues --   -0.52131  -0.52024  -0.51899  -0.51721  -0.51661
 Alpha  occ. eigenvalues --   -0.51546  -0.51484  -0.50909  -0.50855  -0.50844
 Alpha  occ. eigenvalues --   -0.50529  -0.50457  -0.50328  -0.50030  -0.49987
 Alpha  occ. eigenvalues --   -0.49775  -0.49739  -0.49683  -0.49554  -0.49525
 Alpha  occ. eigenvalues --   -0.49315  -0.49119  -0.48873  -0.48714  -0.48623
 Alpha  occ. eigenvalues --   -0.48521  -0.48213  -0.48033  -0.48032  -0.47946
 Alpha  occ. eigenvalues --   -0.47684  -0.47509  -0.47289  -0.47100  -0.46952
 Alpha  occ. eigenvalues --   -0.46619  -0.46499  -0.46219  -0.46154  -0.45991
 Alpha  occ. eigenvalues --   -0.45830  -0.45811  -0.45703  -0.45670  -0.45557
 Alpha  occ. eigenvalues --   -0.45383  -0.45337  -0.45294  -0.45144  -0.45041
 Alpha  occ. eigenvalues --   -0.44921  -0.44905  -0.44444  -0.44368  -0.43867
 Alpha  occ. eigenvalues --   -0.43687  -0.43622  -0.43349  -0.43273  -0.43225
 Alpha  occ. eigenvalues --   -0.42930  -0.42887  -0.42626  -0.42389  -0.42267
 Alpha  occ. eigenvalues --   -0.42212  -0.41755  -0.41297  -0.41013  -0.40787
 Alpha  occ. eigenvalues --   -0.40522  -0.40361  -0.39888  -0.39732  -0.39714
 Alpha  occ. eigenvalues --   -0.39364  -0.39111  -0.38688  -0.38624  -0.38150
 Alpha  occ. eigenvalues --   -0.37890  -0.37643  -0.37265  -0.36240  -0.36136
 Alpha  occ. eigenvalues --   -0.36018  -0.35528  -0.35428  -0.33691  -0.33276
 Alpha  occ. eigenvalues --   -0.33192  -0.33150  -0.32791  -0.32458  -0.32390
 Alpha  occ. eigenvalues --   -0.32374  -0.31691  -0.31474  -0.26220  -0.25814
 Alpha  occ. eigenvalues --   -0.23251  -0.22592
 Alpha virt. eigenvalues --   -0.07428  -0.06488   0.00042   0.00203   0.02251
 Alpha virt. eigenvalues --    0.02292   0.04277   0.04366   0.05356   0.06282
 Alpha virt. eigenvalues --    0.06377   0.07060   0.07408   0.07635   0.08297

 Mulliken charges:
               1
     1  Mg   0.980461
     2  C   -0.123990
     3  C   -0.080859
     4  C   -0.101654
     5  C   -0.096280
     6  N   -0.314539
     7  C   -0.024869
     8  C   -0.047663
     9  C   -0.085446
    10  C    0.061031
    11  C    0.030275
    12  C   -0.009296
    13  C   -0.101061
    14  H    0.049570
    15  N   -0.481175
    16  C    0.127586
    17  C   -0.142927
    18  C   -0.097996
    19  C    0.230191
    20  C    0.077275
    21  C    0.025772
    22  O   -0.277898
    23  C    0.020199
    24  N   -0.346969
    25  C    0.018964
    26  C   -0.090725
    27  C   -0.108968
    28  C    0.094282
    29  C    0.033674
    30  C    0.010040
    31  C   -0.047625
    32  N   -0.436811
    33  C    0.106358
    34  C   -0.206019
    35  C   -0.066853
    36  C    0.192976
    37  C    0.118157
    38  C    0.144293
    39  O   -0.188134
    40  C   -0.050610
    41  C    0.292262
    42  O   -0.254179
    43  O   -0.371312
    44  C    0.136512
    45  H   -0.000535
    46  H   -0.036472
    47  H    0.003202
    48  H    0.018821
    49  H    0.028773
    50  H    0.037437
    51  H    0.044974
    52  H    0.037385
    53  H    0.030377
    54  H    0.053665
    55  H    0.048322
    56  H    0.042842
    57  H    0.046837
    58  H    0.033522
    59  H    0.069298
    60  H    0.083795
    61  H    0.065272
    62  H    0.043526
    63  H    0.038293
    64  H    0.032878
    65  H    0.040739
    66  H    0.041179
    67  H    0.032025
    68  H    0.033498
    69  H    0.025468
    70  H    0.046753
    71  H    0.035686
    72  H    0.033449
    73  H    0.081186
    74  H    0.046781
    75  H    0.030102
    76  H    0.059443
    77  H    0.065910
    78  H    0.052798
    79  H    0.056749
    80  Mg   0.959288
    81  C    0.014240
    82  C   -0.116113
    83  C   -0.071809
    84  C   -0.091832
    85  N   -0.268524
    86  C   -0.050163
    87  C   -0.080374
    88  C   -0.081204
    89  C    0.061427
    90  C    0.017974
    91  C   -0.000975
    92  C   -0.100881
    93  H    0.040493
    94  N   -0.420362
    95  C    0.160548
    96  C   -0.187185
    97  C   -0.089509
    98  C    0.146055
    99  C    0.087540
   100  C    0.060869
   101  O   -0.251494
   102  C   -0.004438
   103  N   -0.411632
   104  C    0.041889
   105  C   -0.106335
   106  C   -0.056936
   107  C    0.053278
   108  C    0.041964
   109  C   -0.057128
   110  C   -0.040333
   111  N   -0.481963
   112  C    0.164237
   113  C   -0.192718
   114  C   -0.021519
   115  C    0.159979
   116  C    0.078015
   117  C    0.119477
   118  O   -0.196999
   119  C   -0.104458
   120  C    0.295722
   121  O   -0.245667
   122  O   -0.393047
   123  C    0.148992
   124  H    0.010847
   125  H    0.016648
   126  H   -0.005021
   127  H    0.045651
   128  H    0.029075
   129  H    0.024902
   130  H    0.044832
   131  H    0.027113
   132  H    0.031292
   133  H    0.034586
   134  H    0.044710
   135  H    0.052420
   136  H    0.062437
   137  H    0.037614
   138  H    0.061495
   139  H    0.050532
   140  H    0.063488
   141  H    0.049911
   142  H    0.039372
   143  H    0.036130
   144  H    0.056288
   145  H    0.049462
   146  H    0.029646
   147  H    0.044683
   148  H    0.027445
   149  H    0.033485
   150  H    0.043590
   151  H    0.047360
   152  H    0.057784
   153  H    0.044321
   154  H    0.045919
   155  H    0.075075
   156  H    0.071745
   157  H    0.047012
   158  H    0.039761
 Sum of Mulliken charges =  -0.00000

 Dipole moment (field-independent basis, Debye):
    X=              3.3582    Y=             -4.9579    Z=              0.0060  Tot=              5.9882
 Quadrupole moment (field-independent basis, Debye-Ang):
   XX=           -515.1802   YY=           -498.2339   ZZ=           -548.3781
   XY=            -17.6060   XZ=             27.4036   YZ=             -2.7620

 Normal termination of Gaussian 16 at Sun Sep 19 03:07:00 2021.
