 Gaussian 16, Revision A.03,
 Gaussian 16:  ES64L-G16RevA.03 25-Dec-2016

 --------------------------------
 #p wB97XD/Def2SVP td=(nstates=5)
 --------------------------------

 --------------------------------
 TDDFT excited states in gaussian
 --------------------------------
 Symbolic Z-matrix:
 Charge =  0 Multiplicity = 1

                         Standard orientation:
 ---------------------------------------------------------------------
 Center     Atomic      Atomic             Coordinates (Angstroms)
 Number     Number       Type             X           Y           Z
 ---------------------------------------------------------------------
      1         12           0       11.491022    0.275864    0.524582
      2          6           0        9.414280   -2.415839    0.622974
      3          6           0       14.155445   -1.910569   -0.268417
      4          6           0       13.197787    2.916305   -0.602011
      5          6           0        8.630594    2.463815    0.795599
      6          7           0       11.705442   -1.871862    0.254647
      7          6           0       10.802612   -2.793823    0.314697
      8          6           0       11.397736   -4.246717    0.322393
      9          6           0       12.959808   -4.036794    0.328166
     10          6           0       13.006182   -2.483419    0.122893
     11          6           0       13.726861   -4.670115    1.489790
     12          6           0       10.807093   -5.165372   -0.904035
     13          6           0       10.251540   -4.468560   -2.135528
     14          1           0       10.103256   -5.224392   -3.455982
     15          7           0       13.411975    0.459583   -0.326592
     16          6           0       14.367907   -0.511165   -0.506123
     17          6           0       15.501281    0.049115   -1.103568
     18          6           0       15.258081    1.467820   -1.263503
     19          6           0       13.877698    1.680436   -0.754007
     20          6           0       16.763297   -0.770522   -1.300848
     21          6           0       16.272834    2.456658   -1.865412
     22          8           0       17.376470    2.002001   -2.241804
     23          6           0       16.066902    3.865538   -2.038895
     24          7           0       10.925525    2.433282   -0.013166
     25          6           0       11.901416    3.261970   -0.254332
     26          6           0       11.452219    4.750882   -0.242576
     27          6           0        9.996984    4.620382    0.257665
     28          6           0        9.765106    3.061683    0.398860
     29          6           0       12.256744    5.631938    0.643532
     30          6           0        8.941608    5.343906   -0.704705
     31          6           0        8.236623    6.636566   -0.120639
     32          7           0        9.451159    0.147684    0.793425
     33          6           0        8.408796    1.073828    0.924323
     34          6           0        7.135539    0.327227    1.168822
     35          6           0        7.510679   -1.014406    1.010101
     36          6           0        8.911552   -1.086548    0.750789
     37          6           0        5.805766    0.842893    1.433229
     38          6           0        6.950125   -2.286868    0.980454
     39          8           0        5.803162   -2.723740    1.155538
     40          6           0        8.153517   -3.259495    0.824459
     41          6           0        8.136241   -4.241587    2.019900
     42          8           0        8.144058   -5.460145    1.979889
     43          8           0        8.114615   -3.585817    3.231839
     44          6           0        8.057494   -4.405799    4.447822
     45          1           0       14.898242   -2.658573   -0.552813
     46          1           0       13.752755    3.834718   -0.803441
     47          1           0        7.807140    3.135710    1.046028
     48          1           0       11.188471   -4.653604    1.312072
     49          1           0       13.428476   -4.413818   -0.581377
     50          1           0       14.165585   -3.887715    2.108734
     51          1           0       14.549236   -5.299015    1.146823
     52          1           0       13.154546   -5.351849    2.118977
     53          1           0       10.078180   -5.778779   -0.373869
     54          1           0       11.533933   -5.818424   -1.387554
     55          1           0       10.938544   -3.633827   -2.272156
     56          1           0        9.301412   -4.041026   -1.814756
     57          1           0       17.703977   -0.432124   -0.865665
     58          1           0       16.887112   -0.965198   -2.366410
     59          1           0       16.608425   -1.762807   -0.877629
     60          1           0       15.895168    4.468646   -1.147518
     61          1           0       15.132796    4.049129   -2.568829
     62          1           0       16.814960    4.342718   -2.671221
     63          1           0       11.475014    5.310964   -1.177305
     64          1           0        9.861504    4.965807    1.282638
     65          1           0       12.956051    6.290138    0.128169
     66          1           0       12.963944    5.044331    1.230019
     67          1           0       11.600283    6.232026    1.273443
     68          1           0        8.114709    4.653011   -0.874543
     69          1           0        9.365467    5.724079   -1.633190
     70          1           0        8.247498    7.427991   -0.869007
     71          1           0        8.861147    7.021166    0.685784
     72          1           0        7.202993    6.335859    0.051484
     73          1           0        5.981399    1.778852    1.964061
     74          1           0        5.248950    0.159776    2.075641
     75          1           0        5.299816    0.886872    0.469225
     76          1           0        7.997874   -4.015333    0.055009
     77          1           0        7.621355   -3.804337    5.245623
     78          1           0        8.996031   -4.755773    4.877360
     79          1           0        7.523758   -5.347867    4.318987
     80         12           0      -10.699830    0.727409    0.295858
     81          6           0      -12.135489   -2.329895   -0.513348
     82          6           0       -7.817189   -0.225768   -1.531816
     83          6           0       -9.786293    3.932256    0.053866
     84          6           0      -13.861547    1.758601    1.465840
     85          7           0      -10.190799   -1.003438   -1.219776
     86          6           0      -10.860905   -2.199215   -1.122779
     87          6           0      -10.166745   -3.281176   -1.888990
     88          6           0       -8.683244   -2.697372   -1.992805
     89          6           0       -8.864901   -1.191146   -1.590229
     90          6           0       -7.569688   -3.437032   -1.093043
     91          6           0      -10.958806   -3.607591   -3.257761
     92          6           0      -10.764060   -4.945667   -3.765542
     93          1           0      -10.251471   -4.986451   -5.220772
     94          7           0       -8.976342    1.712420   -0.435745
     95          6           0       -7.891594    1.138318   -1.155988
     96          6           0       -6.926814    2.195185   -1.408819
     97          6           0       -7.455092    3.422856   -0.940706
     98          6           0       -8.770851    3.043799   -0.324419
     99          6           0       -5.694487    1.962207   -2.200779
    100          6           0       -6.748927    4.830231   -1.130348
    101          8           0       -5.662812    4.833930   -1.707696
    102          6           0       -7.204589    6.072365   -0.372360
    103          7           0      -11.749471    2.534691    0.616186
    104          6           0      -11.067999    3.706635    0.552906
    105          6           0      -12.027401    5.020421    0.844356
    106          6           0      -13.288010    4.289895    1.514275
    107          6           0      -12.996680    2.781352    1.235713
    108          6           0      -11.430131    6.104569    1.819300
    109          6           0      -14.625044    4.723389    0.910247
    110          6           0      -15.729155    5.350515    1.794830
    111          7           0      -12.509240   -0.176155    0.712321
    112          6           0      -13.663411    0.354894    1.210588
    113          6           0      -14.609901   -0.703150    1.433168
    114          6           0      -14.024498   -1.793384    0.685790
    115          6           0      -12.760146   -1.369126    0.242675
    116          6           0      -15.988601   -0.561922    2.010657
    117          6           0      -14.291590   -3.125158    0.183926
    118          8           0      -15.168812   -3.886670    0.457736
    119          6           0      -13.018245   -3.613195   -0.610861
    120          6           0      -12.272677   -4.803551    0.031801
    121          8           0      -11.935131   -4.858265    1.194830
    122          8           0      -12.140660   -5.843306   -0.911617
    123          6           0      -11.626029   -7.089580   -0.430033
    124          1           0       -6.931795   -0.604374   -2.045261
    125          1           0       -9.649041    4.982396   -0.211618
    126          1           0      -14.816754    2.118299    1.852692
    127          1           0       -9.976571   -4.165345   -1.279685
    128          1           0       -8.374029   -2.749915   -3.037328
    129          1           0       -6.829425   -3.804703   -1.803512
    130          1           0       -7.979685   -4.248998   -0.493245
    131          1           0       -7.127517   -2.665336   -0.462244
    132          1           0      -10.534563   -2.896809   -3.966723
    133          1           0      -11.968766   -3.295310   -2.990757
    134          1           0      -11.734542   -5.436031   -3.699423
    135          1           0      -10.010061   -5.464256   -3.173447
    136          1           0       -5.494484    0.898693   -2.330097
    137          1           0       -4.826146    2.330757   -1.654080
    138          1           0       -5.775239    2.398353   -3.196725
    139          1           0       -8.194803    6.425467   -0.661996
    140          1           0       -6.456374    6.848075   -0.538573
    141          1           0       -7.181567    5.828264    0.689768
    142          1           0      -12.277271    5.370555   -0.156804
    143          1           0      -13.315434    4.327501    2.603499
    144          1           0      -11.238431    7.026171    1.270524
    145          1           0      -10.489988    5.740070    2.235004
    146          1           0      -12.175548    6.265671    2.598823
    147          1           0      -15.074279    3.927721    0.316373
    148          1           0      -14.543842    5.430390    0.084779
    149          1           0      -16.628866    4.760458    1.971446
    150          1           0      -16.066259    6.226431    1.240019
    151          1           0      -15.341423    5.624097    2.776850
    152          1           0      -16.305383   -1.557380    2.322790
    153          1           0      -16.784540   -0.426279    1.279089
    154          1           0      -16.093893    0.212538    2.769953
    155          1           0      -13.439035   -3.942321   -1.561386
    156          1           0      -11.177701   -7.477441   -1.345304
    157          1           0      -12.420882   -7.800008   -0.203551
    158          1           0      -10.979242   -6.936469    0.432940
 ---------------------------------------------------------------------

 SCF Done:  E(RwB97XD) =  -4070.54952642     A.U. after   19 cycles

 Excitation energies and oscillator strengths:

 Excited State   1:      Singlet-A      1.6336 eV  758.96 nm  f=0.5646  <S**2>=0.000
     310 -> 316        0.17400
     311 -> 313       -0.14769
     312 -> 314        0.67011
     310 <- 316        0.11376
 This state for optimization and/or second-order correction.
 Total Energy, E(TD-HF/TD-DFT) =  -4070.48949266
 Copying the excited state density for this state as the 1-particle RhoCI density.

 Excited State   2:      Singlet-A      1.6556 eV  748.88 nm  f=0.2708  <S**2>=0.000
     309 -> 315       -0.16262
     311 -> 313        0.67058
     312 -> 314        0.14724
     309 <- 315       -0.10896

 Excited State   3:      Singlet-A      2.1962 eV  564.55 nm  f=0.0563  <S**2>=0.000
     309 -> 313        0.16325
     310 -> 314        0.61360
     312 -> 316       -0.28413

 Excited State   4:      Singlet-A      2.1982 eV  564.04 nm  f=0.1613  <S**2>=0.000
     309 -> 313        0.61930
     310 -> 314       -0.16117
     311 -> 315        0.26619

 Excited State   5:      Singlet-A      3.4253 eV  361.97 nm  f=0.0000  <S**2>=0.000
     312 -> 313        0.70684

 The electronic state is 1-A.
 Alpha  occ. eigenvalues --  -46.96680 -46.96114 -19.30287 -19.30192 -19.25600
 Alpha  occ. eigenvalues --  -19.25121 -19.24758 -19.24139 -19.23208 -19.22402
 Alpha  occ. eigenvalues --  -14.47821 -14.46885 -14.46584 -14.46511 -14.45193
 Alpha  occ. eigenvalues --  -14.44799 -14.44389 -14.43585 -10.43887 -10.43656
 Alpha  occ. eigenvalues --  -10.40412 -10.38821 -10.38172 -10.37935 -10.37090
 Alpha  occ. eigenvalues --  -10.35926 -10.35858 -10.35678 -10.35340 -10.35304
 Alpha  occ. eigenvalues --  -10.35268 -10.35108 -10.35077 -10.34762 -10.34706
 Alpha  occ. eigenvalues --  -10.34627 -10.34494 -10.34484 -10.34426 -10.33878
 Alpha  occ. eigenvalues --  -10.33566 -10.33535 -10.33382 -10.33338 -10.32960
 Alpha  occ. eigenvalues --  -10.32942 -10.32682 -10.32678 -10.32556 -10.32516
 Alpha  occ. eigenvalues --  -10.32480 -10.32415 -10.32358 -10.32306 -10.32212
 Alpha  occ. eigenvalues --  -10.32030 -10.31986 -10.31966 -10.31740 -10.31672
 Alpha  occ. eigenvalues --  -10.31621 -10.31605 -10.31139 -10.31137 -10.31084
 Alpha  occ. eigenvalues --  -10.31072 -10.30960 -10.30848 -10.30815 -10.30752
 Alpha  occ. eigenvalues --  -10.30737 -10.30490 -10.30463 -10.30346 -10.30333
 Alpha  occ. eigenvalues --  -10.30273 -10.30149 -10.29984 -10.29863 -10.29746
 Alpha  occ. eigenvalues --  -10.29658 -10.29498 -10.29472 -10.29387 -10.28783
 Alpha  occ. eigenvalues --  -10.28596  -3.22553  -3.21998  -1.96114  -1.95704
 Alpha  occ. eigenvalues --   -1.95529  -1.95483  -1.95172  -1.94928  -1.18376
 Alpha  occ. eigenvalues --   -1.18170  -1.12949  -1.12552  -1.11386  -1.10865
 Alpha  occ. eigenvalues --   -1.09772  -1.09629  -1.07071  -1.06859  -1.06527
 Alpha  occ. eigenvalues --   -1.05736  -1.04934  -1.04344  -1.04245  -1.03601
 Alpha  occ. eigenvalues --   -0.95069  -0.94151  -0.91625  -0.91292  -0.91078
 Alpha  occ. eigenvalues --   -0.90924  -0.90342  -0.90228  -0.90022  -0.89703
 Alpha  occ. eigenvalues --   -0.88769  -0.88347  -0.87733  -0.87206  -0.86574
 Alpha  occ. eigenvalues --   -0.86069  -0.85949  -0.85217  -0.84842  -0.84577
 Alpha  occ. eigenvalues --   -0.84419  -0.84144  -0.83462  -0.83064  -0.82283
 Alpha  occ. eigenvalues --   -0.82184  -0.80455  -0.79725  -0.79356  -0.79270
 Alpha  occ. eigenvalues --   -0.78889  -0.78637  -0.78309  -0.78010  -0.77230
 Alpha  occ. eigenvalues --   -0.76846  -0.75421  -0.74616  -0.73957  -0.73291
 Alpha  occ. eigenvalues --   -0.71632  -0.71125  -0.70842  -0.70372  -0.70361
 Alpha  occ. eigenvalues --   -0.69359  -0.68835  -0.68438  -0.67951  -0.67829
 Alpha  occ. eigenvalues --   -0.67649  -0.66843  -0.66798  -0.66557  -0.66402
 Alpha  occ. eigenvalues --   -0.66060  -0.65377  -0.64742  -0.62902  -0.62001
 Alpha  occ. eigenvalues --   -0.61669  -0.61397  -0.60943  -0.60934  -0.60538
 Alpha  occ. eigenvalues --   -0.60481  -0.60026  -0.59942  -0.59424  -0.59246
 Alpha  occ. eigenvalues --   -0.58304  -0.58304  -0.57620  -0.57612  -0.57239
 Alpha  occ. eigenvalues --   -0.56908  -0.56759  -0.56631  -0.56501  -0.55901
 Alpha  occ. eigenvalues --   -0.55857  -0.55437  -0.55206  -0.55131  -0.54803
 Alpha  occ. eigenvalues --   -0.54649  -0.54607  -0.54450  -0.54376  -0.54180
 Alpha  occ. eigenvalues --   -0.54016  -0.53653  -0.53550  -0.53423  -0.53268
 Alpha  occ. eigenvalues --   -0.52935  -0.52849  -0.52667  -0.52611  -0.52266
 Alpha  occ. eigenvalues --   -0.52135  -0.51994  -0.51910  -0.51663  -0.51533
 Alpha  occ. eigenvalues --   -0.51490  -0.51168  -0.51111  -0.51024  -0.50936
 Alpha  occ. eigenvalues --   -0.50764  -0.50676  -0.50485  -0.50304  -0.50264
 Alpha  occ. eigenvalues --   -0.49881  -0.49781  -0.49575  -0.49346  -0.49174
 Alpha  occ. eigenvalues --   -0.49135  -0.48964  -0.48882  -0.48813  -0.48746
 Alpha  occ. eigenvalues --   -0.48310  -0.48115  -0.48028  -0.47861  -0.47839
 Alpha  occ. eigenvalues --   -0.47671  -0.47548  -0.47196  -0.47113  -0.46980
 Alpha  occ. eigenvalues --   -0.46841  -0.46840  -0.46703  -0.46546  -0.46393
 Alpha  occ. eigenvalues --   -0.46390  -0.45994  -0.45861  -0.45758  -0.45584
 Alpha  occ. eigenvalues --   -0.45416  -0.45323  -0.45047  -0.44720  -0.44699
 Alpha  occ. eigenvalues --   -0.44582  -0.44559  -0.44381  -0.44186  -0.44134
 Alpha  occ. eigenvalues --   -0.44083  -0.43901  -0.43425  -0.43361  -0.42909
 Alpha  occ. eigenvalues --   -0.42880  -0.42829  -0.42759  -0.42621  -0.42303
 Alpha  occ. eigenvalues --   -0.41983  -0.41759  -0.41687  -0.40976  -0.40680
 Alpha  occ. eigenvalues --   -0.40578  -0.40133  -0.40116  -0.39810  -0.39637
 Alpha  occ. eigenvalues --   -0.38999  -0.38829  -0.38614  -0.38528  -0.38414
 Alpha  occ. eigenvalues --   -0.38185  -0.37521  -0.36830  -0.36695  -0.36326
 Alpha  occ. eigenvalues --   -0.36255  -0.36204  -0.35498  -0.33804  -0.33570
 Alpha  occ. eigenvalues --   -0.33417  -0.33207  -0.33150  -0.32398  -0.32027
 Alpha  occ. eigenvalues --   -0.31897  -0.31257  -0.31142  -0.26877  -0.26220
 Alpha  occ. eigenvalues --   -0.23484  -0.22943
 Alpha virt. eigenvalues --   -0.07890  -0.07084   0.00023   0.00293   0.01985
 Alpha virt. eigenvalues --    0.02543   0.03802   0.04289   0.04350   0.04539
 Alpha virt. eigenvalues --    0.06784   0.07137   0.07176   0.07600   0.08011

 Mulliken charges:
               1
     1  Mg   0.957136
     2  C    0.004165
     3  C   -0.072054
     4  C   -0.044060
     5  C   -0.099152
     6  N   -0.349478
     7  C    0.010869
     8  C   -0.050857
     9  C   -0.100572
    10  C    0.039707
    11  C    0.023939
    12  C   -0.030606
    13  C   -0.101591
    14  H    0.062263
    15  N   -0.458917
    16  C    0.154379
    17  C   -0.150861
    18  C   -0.094623
    19  C    0.205525
    20  C    0.091981
    21  C    0.063196
    22  O   -0.267847
    23  C   -0.000035
    24  N   -0.297834
    25  C    0.010994
    26  C   -0.080689
    27  C   -0.045997
    28  C    0.048328
    29  C    0.002568
    30  C   -0.042869
    31  C   -0.065039
    32  N   -0.464685
    33  C    0.133542
    34  C   -0.171272
    35  C   -0.013318
    36  C    0.155657
    37  C    0.081470
    38  C    0.117968
    39  O   -0.220524
    40  C   -0.108031
    41  C    0.242689
    42  O   -0.244174
    43  O   -0.368835
    44  C    0.139825
    45  H    0.011707
    46  H   -0.042697
    47  H    0.000878
    48  H    0.052461
    49  H    0.038582
    50  H    0.039485
    51  H    0.034750
    52  H    0.041314
    53  H    0.057280
    54  H    0.041151
    55  H    0.052275
    56  H    0.036563
    57  H    0.060568
    58  H    0.046836
    59  H    0.000106
    60  H    0.063455
    61  H    0.040950
    62  H    0.054679
    63  H    0.045357
    64  H    0.032473
    65  H    0.028509
    66  H    0.031326
    67  H    0.039505
    68  H    0.036294
    69  H    0.041052
    70  H    0.033398
    71  H    0.036049
    72  H    0.048046
    73  H    0.043802
    74  H    0.066734
    75  H    0.074792
    76  H    0.058410
    77  H    0.052699
    78  H    0.037465
    79  H    0.061466
    80  Mg   0.961084
    81  C   -0.078453
    82  C   -0.075290
    83  C   -0.094304
    84  C   -0.091224
    85  N   -0.325395
    86  C   -0.039233
    87  C   -0.084356
    88  C   -0.134263
    89  C    0.034643
    90  C    0.014966
    91  C    0.053075
    92  C   -0.094533
    93  H    0.020028
    94  N   -0.466641
    95  C    0.174591
    96  C   -0.161744
    97  C   -0.103050
    98  C    0.203896
    99  C    0.095416
   100  C    0.075968
   101  O   -0.234792
   102  C   -0.028055
   103  N   -0.403921
   104  C    0.073645
   105  C   -0.123888
   106  C   -0.024223
   107  C    0.034612
   108  C    0.024387
   109  C   -0.029644
   110  C   -0.054228
   111  N   -0.416204
   112  C    0.139587
   113  C   -0.160922
   114  C   -0.085659
   115  C    0.221872
   116  C    0.066628
   117  C    0.109018
   118  O   -0.181754
   119  C   -0.079558
   120  C    0.276115
   121  O   -0.220908
   122  O   -0.387150
   123  C    0.130490
   124  H    0.011921
   125  H   -0.019974
   126  H   -0.007462
   127  H    0.027573
   128  H    0.037293
   129  H    0.044493
   130  H    0.052590
   131  H    0.042328
   132  H    0.036848
   133  H    0.036763
   134  H    0.063352
   135  H    0.050010
   136  H    0.011357
   137  H    0.056587
   138  H    0.066190
   139  H    0.071086
   140  H    0.057087
   141  H    0.067679
   142  H    0.055858
   143  H    0.043482
   144  H    0.039723
   145  H    0.046015
   146  H    0.045118
   147  H    0.031594
   148  H    0.018808
   149  H    0.040070
   150  H    0.033975
   151  H    0.032168
   152  H    0.049871
   153  H    0.043490
   154  H    0.043431
   155  H    0.072474
   156  H    0.046206
   157  H    0.054142
   158  H    0.067225
 Sum of Mulliken charges =  -0.00000

 Dipole moment (field-independent basis, Debye):
    X=              0.8183    Y=              6.9844    Z=              3.3317  Tot=              7.7815
 Quadrupole moment (field-independent basis, Debye-Ang):
   XX=           -594.0144   YY=           -470.5315   ZZ=           -507.0936
   XY=            -54.5707   XZ=             48.9764   YZ=             19.4756

 Normal termination of Gaussian 16 at Sat Sep 18 21:27:14 2021.
