 Gaussian 16, Revision A.03,
 Gaussian 16:  ES64L-G16RevA.03 25-Dec-2016

 --------------------------------
 #p wB97XD/Def2SVP td=(nstates=5)
 --------------------------------

 --------------------------------
 TDDFT excited states in gaussian
 --------------------------------
 Symbolic Z-matrix:
 Charge =  0 Multiplicity = 1

                         Standard orientation:
 ---------------------------------------------------------------------
 Center     Atomic      Atomic             Coordinates (Angstroms)
 Number     Number       Type             X           Y           Z
 ---------------------------------------------------------------------
      1         12           0       16.691525    0.597110   -0.040792
      2          6           0       15.606117   -2.267128    1.637607
      3          6           0       13.850129    2.205398    1.237607
      4          6           0       17.279620    3.236988   -2.011621
      5          6           0       18.752020   -1.382436   -1.958881
      6          7           0       14.928147    0.069741    1.408966
      7          6           0       14.745928   -1.197223    1.867253
      8          6           0       13.430346   -1.287794    2.737798
      9          6           0       12.744358    0.124940    2.376246
     10          6           0       13.856453    0.845495    1.595692
     11          6           0       11.567896   -0.169313    1.379072
     12          6           0       13.869718   -1.332399    4.247436
     13          6           0       12.747528   -1.290118    5.320150
     14          1           0       12.685459   -0.492794    6.588919
     15          7           0       15.817503    2.492819   -0.174157
     16          6           0       14.672531    3.016513    0.449121
     17          6           0       14.496173    4.329675   -0.010687
     18          6           0       15.573943    4.710242   -0.798992
     19          6           0       16.286455    3.462734   -1.020405
     20          6           0       13.377800    5.166430    0.518536
     21          6           0       15.907434    6.073852   -1.489309
     22          8           0       16.911416    6.293796   -2.158326
     23          6           0       15.099898    7.344572   -1.210933
     24          7           0       17.761873    0.826697   -1.802774
     25          6           0       17.961335    2.054820   -2.331139
     26          6           0       19.064172    2.093136   -3.407081
     27          6           0       19.437552    0.586966   -3.489564
     28          6           0       18.723603   -0.031556   -2.301076
     29          6           0       18.665797    2.845076   -4.720284
     30          6           0       20.947991    0.232072   -3.563150
     31          6           0       21.711654    0.350888   -2.312915
     32          7           0       17.202023   -1.388887   -0.119456
     33          6           0       18.021192   -2.040122   -0.912202
     34          6           0       18.162185   -3.446221   -0.520234
     35          6           0       17.186310   -3.540606    0.522861
     36          6           0       16.610384   -2.298281    0.703357
     37          6           0       19.263328   -4.365843   -0.774899
     38          6           0       16.617877   -4.473434    1.480115
     39          8           0       16.915849   -5.617100    1.740310
     40          6           0       15.516994   -3.665491    2.177902
     41          6           0       14.147224   -4.339472    2.046001
     42          8           0       13.461094   -4.295209    1.058169
     43          8           0       13.877790   -5.049418    3.191612
     44          6           0       12.560661   -5.725020    3.143499
     45          1           0       13.038001    2.730079    1.743475
     46          1           0       17.647230    4.127931   -2.525486
     47          1           0       19.559277   -1.739182   -2.600894
     48          1           0       12.773580   -2.098030    2.420109
     49          1           0       12.378568    0.686172    3.236985
     50          1           0       11.736729    0.093523    0.335288
     51          1           0       10.732804    0.514170    1.534559
     52          1           0       11.222945   -1.202977    1.394484
     53          1           0       14.568208   -0.510740    4.403503
     54          1           0       14.482293   -2.225791    4.371682
     55          1           0       12.563044   -2.341769    5.541413
     56          1           0       11.932199   -0.870809    4.731937
     57          1           0       12.699679    4.666352    1.210556
     58          1           0       12.904670    5.664294   -0.328964
     59          1           0       13.887528    5.928822    1.108277
     60          1           0       14.078870    7.308550   -1.590967
     61          1           0       15.592149    8.270714   -1.508096
     62          1           0       15.075327    7.456796   -0.126842
     63          1           0       19.785902    2.681968   -2.841656
     64          1           0       18.918276    0.236597   -4.381585
     65          1           0       17.939229    3.630581   -4.515129
     66          1           0       18.214513    2.136950   -5.415763
     67          1           0       19.511490    3.343353   -5.194682
     68          1           0       21.301710    0.960138   -4.292475
     69          1           0       21.073243   -0.744233   -4.031780
     70          1           0       21.585143   -0.556878   -1.723166
     71          1           0       21.430914    1.250365   -1.765331
     72          1           0       22.786034    0.391307   -2.494735
     73          1           0       20.126140   -3.722095   -0.947537
     74          1           0       19.253641   -4.989970   -1.668611
     75          1           0       19.348676   -4.996963    0.109062
     76          1           0       15.788825   -3.577622    3.230316
     77          1           0       12.641368   -6.671456    3.677813
     78          1           0       12.244551   -6.092082    2.166827
     79          1           0       11.800128   -5.134432    3.653245
     80         12           0      -16.138541    0.476657    0.485979
     81          6           0      -15.999147   -2.627789   -1.186554
     82          6           0      -12.659635    0.432590    0.736882
     83          6           0      -16.262743    3.821704    1.125990
     84          6           0      -19.620461    0.538278   -0.352051
     85          7           0      -14.573745   -0.936809   -0.117384
     86          6           0      -14.740670   -2.093388   -0.793241
     87          6           0      -13.362393   -2.728179   -1.169505
     88          6           0      -12.395856   -1.901662   -0.202354
     89          6           0      -13.273805   -0.683199    0.230828
     90          6           0      -11.842414   -2.534297    1.094637
     91          6           0      -13.098052   -2.498735   -2.705640
     92          6           0      -12.362097   -3.675504   -3.404395
     93          1           0      -11.257814   -3.260275   -4.459761
     94          7           0      -14.655156    1.930810    1.090948
     95          6           0      -13.315823    1.653295    1.162928
     96          6           0      -12.685819    2.823190    1.645258
     97          6           0      -13.649676    3.872372    1.718241
     98          6           0      -14.959009    3.234651    1.353697
     99          6           0      -11.209465    2.954342    1.936171
    100          6           0      -13.380078    5.320581    1.946813
    101          8           0      -12.244664    5.759806    2.034351
    102          6           0      -14.389596    6.344584    2.018349
    103          7           0      -17.751900    1.987300    0.278935
    104          6           0      -17.534238    3.276066    0.788185
    105          6           0      -18.819515    4.040392    0.852704
    106          6           0      -19.908503    3.036265    0.321880
    107          6           0      -19.087537    1.785451    0.059763
    108          6           0      -19.045469    4.516189    2.293475
    109          6           0      -20.825914    3.635455   -0.809655
    110          6           0      -22.302930    3.634183   -0.555851
    111          7           0      -17.600309   -0.793988   -0.535525
    112          6           0      -18.950775   -0.630663   -0.723955
    113          6           0      -19.546899   -1.864318   -1.282046
    114          6           0      -18.370660   -2.622566   -1.523671
    115          6           0      -17.271370   -1.979533   -0.986281
    116          6           0      -20.984752   -2.146908   -1.688372
    117          6           0      -17.903754   -3.809482   -2.189553
    118          8           0      -18.533653   -4.656174   -2.842392
    119          6           0      -16.389397   -3.914814   -2.011247
    120          6           0      -16.011988   -5.197491   -1.388825
    121          8           0      -15.291855   -5.967951   -1.912642
    122          8           0      -16.409469   -5.312950   -0.088187
    123          6           0      -15.780470   -6.490262    0.548844
    124          1           0      -11.579908    0.417628    0.902235
    125          1           0      -16.243413    4.868290    1.433976
    126          1           0      -20.640084    0.390328   -0.715465
    127          1           0      -13.405662   -3.792070   -0.935692
    128          1           0      -11.630821   -1.309692   -0.704479
    129          1           0      -12.511289   -3.319302    1.449284
    130          1           0      -11.638662   -1.850829    1.918992
    131          1           0      -10.908606   -3.017423    0.809054
    132          1           0      -12.566056   -1.561446   -2.871102
    133          1           0      -14.091937   -2.381422   -3.137640
    134          1           0      -13.169886   -4.219740   -3.893980
    135          1           0      -12.004218   -4.266330   -2.560928
    136          1           0      -10.920935    3.748718    2.624634
    137          1           0      -10.773729    3.128045    0.952640
    138          1           0      -10.673115    2.033012    2.163369
    139          1           0      -15.031211    6.093952    2.864076
    140          1           0      -14.937391    6.424725    1.078974
    141          1           0      -13.897749    7.301196    2.194892
    142          1           0      -18.825450    4.843395    0.116037
    143          1           0      -20.551416    2.552749    1.057719
    144          1           0      -18.151940    4.449107    2.914600
    145          1           0      -19.799725    3.916559    2.803026
    146          1           0      -19.182572    5.597097    2.301303
    147          1           0      -20.589374    3.042100   -1.692884
    148          1           0      -20.679842    4.701637   -0.979029
    149          1           0      -22.770955    3.120485   -1.395163
    150          1           0      -22.713953    4.643827   -0.544733
    151          1           0      -22.569732    3.247064    0.427587
    152          1           0      -21.224648   -1.764970   -2.680888
    153          1           0      -21.714638   -1.808043   -0.952083
    154          1           0      -20.956122   -3.231046   -1.796873
    155          1           0      -15.909736   -3.978761   -2.987098
    156          1           0      -16.130339   -6.533757    1.580581
    157          1           0      -14.693861   -6.413658    0.512510
    158          1           0      -16.118650   -7.448210    0.155297
 ---------------------------------------------------------------------

 SCF Done:  E(RwB97XD) =  -4070.59891982     A.U. after   19 cycles

 Excitation energies and oscillator strengths:

 Excited State   1:      Singlet-A      1.6193 eV  765.69 nm  f=0.4034  <S**2>=0.000
     309 -> 315       -0.17883
     311 -> 313        0.68459
     309 <- 315       -0.11644
 This state for optimization and/or second-order correction.
 Total Energy, E(TD-HF/TD-DFT) =  -4070.53941346
 Copying the excited state density for this state as the 1-particle RhoCI density.

 Excited State   2:      Singlet-A      1.6940 eV  731.91 nm  f=0.3915  <S**2>=0.000
     310 -> 316        0.19052
     312 -> 314        0.68135
     310 <- 316        0.11526

 Excited State   3:      Singlet-A      2.1451 eV  577.98 nm  f=0.1105  <S**2>=0.000
     309 -> 313        0.63987
     311 -> 315        0.28456

 Excited State   4:      Singlet-A      2.2137 eV  560.07 nm  f=0.1128  <S**2>=0.000
     310 -> 314        0.64263
     312 -> 316       -0.27812

 Excited State   5:      Singlet-A      3.2216 eV  384.86 nm  f=0.0033  <S**2>=0.000
     304 -> 313       -0.13691
     306 -> 313        0.11597
     307 -> 313        0.65566
     307 -> 317       -0.10325

 The electronic state is 1-A.
 Alpha  occ. eigenvalues --  -46.97202 -46.95033 -19.31001 -19.30379 -19.25323
 Alpha  occ. eigenvalues --  -19.24886 -19.24475 -19.23985 -19.23833 -19.22353
 Alpha  occ. eigenvalues --  -14.47643 -14.47312 -14.46836 -14.45597 -14.44520
 Alpha  occ. eigenvalues --  -14.43938 -14.43764 -14.43672 -10.43617 -10.42604
 Alpha  occ. eigenvalues --  -10.40177 -10.38864 -10.38470 -10.37450 -10.36344
 Alpha  occ. eigenvalues --  -10.36052 -10.35921 -10.35610 -10.35545 -10.35133
 Alpha  occ. eigenvalues --  -10.35108 -10.35041 -10.34663 -10.34547 -10.34440
 Alpha  occ. eigenvalues --  -10.34284 -10.33921 -10.33903 -10.33720 -10.33563
 Alpha  occ. eigenvalues --  -10.33550 -10.33152 -10.33149 -10.33112 -10.32795
 Alpha  occ. eigenvalues --  -10.32734 -10.32656 -10.32627 -10.32616 -10.32552
 Alpha  occ. eigenvalues --  -10.32536 -10.32530 -10.32318 -10.32235 -10.31984
 Alpha  occ. eigenvalues --  -10.31883 -10.31708 -10.31669 -10.31631 -10.31612
 Alpha  occ. eigenvalues --  -10.31594 -10.31547 -10.31506 -10.31354 -10.31132
 Alpha  occ. eigenvalues --  -10.31010 -10.30987 -10.30941 -10.30889 -10.30793
 Alpha  occ. eigenvalues --  -10.30776 -10.30425 -10.30293 -10.30230 -10.30079
 Alpha  occ. eigenvalues --  -10.29956 -10.29853 -10.29687 -10.29597 -10.29573
 Alpha  occ. eigenvalues --  -10.29305 -10.29212 -10.29175 -10.29087 -10.28914
 Alpha  occ. eigenvalues --  -10.28286  -3.22846  -3.21039  -1.96439  -1.95937
 Alpha  occ. eigenvalues --   -1.95798  -1.94613  -1.94176  -1.93995  -1.20178
 Alpha  occ. eigenvalues --   -1.18976  -1.12631  -1.12491  -1.11770  -1.11298
 Alpha  occ. eigenvalues --   -1.11259  -1.10950  -1.07216  -1.06943  -1.05790
 Alpha  occ. eigenvalues --   -1.05782  -1.05481  -1.05339  -1.04601  -1.04484
 Alpha  occ. eigenvalues --   -0.95779  -0.94675  -0.91327  -0.91264  -0.90996
 Alpha  occ. eigenvalues --   -0.90494  -0.90162  -0.90076  -0.89998  -0.89441
 Alpha  occ. eigenvalues --   -0.89117  -0.89035  -0.88093  -0.87797  -0.86825
 Alpha  occ. eigenvalues --   -0.86637  -0.85962  -0.85497  -0.84672  -0.84444
 Alpha  occ. eigenvalues --   -0.84283  -0.83447  -0.82932  -0.82839  -0.82564
 Alpha  occ. eigenvalues --   -0.82350  -0.80652  -0.80483  -0.79595  -0.79501
 Alpha  occ. eigenvalues --   -0.78845  -0.78495  -0.78454  -0.78031  -0.77406
 Alpha  occ. eigenvalues --   -0.76787  -0.75198  -0.74540  -0.74433  -0.73741
 Alpha  occ. eigenvalues --   -0.71936  -0.71402  -0.71240  -0.71112  -0.70297
 Alpha  occ. eigenvalues --   -0.69969  -0.69008  -0.68890  -0.68333  -0.67693
 Alpha  occ. eigenvalues --   -0.67319  -0.67052  -0.66762  -0.66695  -0.66392
 Alpha  occ. eigenvalues --   -0.65953  -0.65352  -0.64463  -0.62133  -0.62082
 Alpha  occ. eigenvalues --   -0.62069  -0.61431  -0.61312  -0.61031  -0.60914
 Alpha  occ. eigenvalues --   -0.60545  -0.60322  -0.60224  -0.59324  -0.59095
 Alpha  occ. eigenvalues --   -0.58495  -0.58457  -0.58067  -0.57584  -0.57582
 Alpha  occ. eigenvalues --   -0.57448  -0.57208  -0.57119  -0.56550  -0.56541
 Alpha  occ. eigenvalues --   -0.55917  -0.55535  -0.55358  -0.55205  -0.55134
 Alpha  occ. eigenvalues --   -0.55051  -0.54814  -0.54616  -0.54577  -0.54486
 Alpha  occ. eigenvalues --   -0.54253  -0.54011  -0.53714  -0.53477  -0.53321
 Alpha  occ. eigenvalues --   -0.53045  -0.52898  -0.52865  -0.52485  -0.52250
 Alpha  occ. eigenvalues --   -0.52012  -0.51848  -0.51827  -0.51586  -0.51580
 Alpha  occ. eigenvalues --   -0.51350  -0.51282  -0.51145  -0.51072  -0.50880
 Alpha  occ. eigenvalues --   -0.50721  -0.50607  -0.50435  -0.50367  -0.50143
 Alpha  occ. eigenvalues --   -0.49825  -0.49501  -0.49415  -0.49300  -0.49031
 Alpha  occ. eigenvalues --   -0.48982  -0.48753  -0.48666  -0.48592  -0.48309
 Alpha  occ. eigenvalues --   -0.48290  -0.48048  -0.47883  -0.47721  -0.47620
 Alpha  occ. eigenvalues --   -0.47254  -0.47138  -0.47077  -0.46970  -0.46890
 Alpha  occ. eigenvalues --   -0.46841  -0.46678  -0.46618  -0.46339  -0.46329
 Alpha  occ. eigenvalues --   -0.46103  -0.46034  -0.45965  -0.45743  -0.45596
 Alpha  occ. eigenvalues --   -0.45573  -0.45345  -0.45244  -0.45156  -0.44965
 Alpha  occ. eigenvalues --   -0.44855  -0.44812  -0.44593  -0.44503  -0.44404
 Alpha  occ. eigenvalues --   -0.44379  -0.44290  -0.43787  -0.43738  -0.43601
 Alpha  occ. eigenvalues --   -0.43347  -0.42941  -0.42685  -0.42608  -0.42134
 Alpha  occ. eigenvalues --   -0.42100  -0.41581  -0.41486  -0.41168  -0.40709
 Alpha  occ. eigenvalues --   -0.40626  -0.40375  -0.39963  -0.39799  -0.39696
 Alpha  occ. eigenvalues --   -0.39653  -0.39303  -0.39281  -0.38977  -0.38796
 Alpha  occ. eigenvalues --   -0.38374  -0.38250  -0.36944  -0.36885  -0.36235
 Alpha  occ. eigenvalues --   -0.36173  -0.35793  -0.35386  -0.33753  -0.33598
 Alpha  occ. eigenvalues --   -0.33080  -0.33017  -0.32756  -0.32648  -0.32238
 Alpha  occ. eigenvalues --   -0.31956  -0.31373  -0.31310  -0.26468  -0.25708
 Alpha  occ. eigenvalues --   -0.23407  -0.22870
 Alpha virt. eigenvalues --   -0.07797  -0.06705  -0.00382   0.00618   0.02291
 Alpha virt. eigenvalues --    0.02507   0.04372   0.04372   0.04507   0.05411
 Alpha virt. eigenvalues --    0.07238   0.07371   0.07966   0.08087   0.08173

 Mulliken charges:
               1
     1  Mg   0.973215
     2  C   -0.006742
     3  C   -0.074190
     4  C   -0.111438
     5  C   -0.060443
     6  N   -0.281945
     7  C   -0.051650
     8  C   -0.080628
     9  C   -0.121406
    10  C    0.038006
    11  C    0.009295
    12  C   -0.013402
    13  C   -0.096441
    14  H    0.058540
    15  N   -0.474579
    16  C    0.176452
    17  C   -0.164524
    18  C   -0.081312
    19  C    0.151330
    20  C    0.071226
    21  C    0.085490
    22  O   -0.233791
    23  C   -0.021580
    24  N   -0.406310
    25  C    0.075905
    26  C   -0.112230
    27  C   -0.035565
    28  C   -0.010265
    29  C    0.035620
    30  C   -0.020916
    31  C   -0.015358
    32  N   -0.411394
    33  C    0.152364
    34  C   -0.157255
    35  C   -0.070587
    36  C    0.151268
    37  C    0.070544
    38  C    0.116338
    39  O   -0.187675
    40  C   -0.074860
    41  C    0.263729
    42  O   -0.227573
    43  O   -0.360654
    44  C    0.124799
    45  H   -0.012609
    46  H    0.022395
    47  H   -0.019500
    48  H    0.047349
    49  H    0.048724
    50  H    0.042571
    51  H    0.025900
    52  H    0.050535
    53  H    0.035464
    54  H    0.032152
    55  H    0.051092
    56  H    0.036259
    57  H    0.044523
    58  H    0.048721
    59  H    0.050195
    60  H    0.058430
    61  H    0.054782
    62  H    0.041282
    63  H    0.041028
    64  H    0.042856
    65  H    0.049065
    66  H    0.031793
    67  H    0.040073
    68  H    0.022772
    69  H    0.034917
    70  H    0.032030
    71  H    0.032786
    72  H    0.035405
    73  H    0.029541
    74  H    0.041840
    75  H    0.063962
    76  H    0.079183
    77  H    0.049920
    78  H    0.069109
    79  H    0.056052
    80  Mg   0.930558
    81  C   -0.012421
    82  C   -0.078828
    83  C   -0.029748
    84  C   -0.055236
    85  N   -0.359270
    86  C   -0.011413
    87  C   -0.090426
    88  C   -0.100365
    89  C    0.079519
    90  C    0.033009
    91  C    0.011735
    92  C   -0.106953
    93  H    0.041728
    94  N   -0.446476
    95  C    0.131747
    96  C   -0.166322
    97  C   -0.071326
    98  C    0.121543
    99  C    0.092313
   100  C   -0.000495
   101  O   -0.246015
   102  C    0.011439
   103  N   -0.354207
   104  C    0.049164
   105  C   -0.068739
   106  C   -0.054131
   107  C    0.053332
   108  C    0.028800
   109  C   -0.008416
   110  C   -0.059120
   111  N   -0.368195
   112  C    0.038716
   113  C   -0.158645
   114  C   -0.038434
   115  C    0.117703
   116  C    0.062068
   117  C    0.094547
   118  O   -0.225628
   119  C   -0.017549
   120  C    0.221560
   121  O   -0.212578
   122  O   -0.366527
   123  C    0.139996
   124  H    0.005963
   125  H   -0.031117
   126  H   -0.001291
   127  H    0.038038
   128  H    0.035445
   129  H    0.032315
   130  H    0.046055
   131  H    0.040124
   132  H    0.042460
   133  H    0.036108
   134  H    0.066005
   135  H    0.053253
   136  H    0.070688
   137  H    0.039750
   138  H    0.017276
   139  H    0.051108
   140  H    0.064324
   141  H    0.052216
   142  H    0.048001
   143  H    0.037696
   144  H    0.035113
   145  H    0.041449
   146  H    0.037074
   147  H    0.041970
   148  H    0.039592
   149  H    0.042372
   150  H    0.030793
   151  H    0.033011
   152  H    0.064894
   153  H    0.051607
   154  H    0.065811
   155  H    0.062087
   156  H    0.046744
   157  H    0.053335
   158  H    0.057715
 Sum of Mulliken charges =  -0.00000

 Dipole moment (field-independent basis, Debye):
    X=             -4.8180    Y=              5.7435    Z=              4.5287  Tot=              8.7584
 Quadrupole moment (field-independent basis, Debye-Ang):
   XX=           -438.4586   YY=           -547.9728   ZZ=           -511.3431
   XY=            -18.8356   XZ=            -61.5390   YZ=            -18.6470

 Normal termination of Gaussian 16 at Sat Sep 18 16:38:59 2021.
