 Gaussian 16, Revision A.03,
 Gaussian 16:  ES64L-G16RevA.03 25-Dec-2016

 --------------------------------
 #p wB97XD/Def2SVP td=(nstates=5)
 --------------------------------

 --------------------------------
 TDDFT excited states in gaussian
 --------------------------------
 Symbolic Z-matrix:
 Charge =  0 Multiplicity = 1

                         Standard orientation:
 ---------------------------------------------------------------------
 Center     Atomic      Atomic             Coordinates (Angstroms)
 Number     Number       Type             X           Y           Z
 ---------------------------------------------------------------------
      1         12           0      -28.508035    0.359724    0.232910
      2          6           0      -26.818480   -2.272558   -1.298110
      3          6           0      -28.301533    2.160606   -2.690963
      4          6           0      -29.904742    2.916885    1.939511
      5          6           0      -28.304378   -1.446023    3.309842
      6          7           0      -27.560513   -0.002830   -1.691214
      7          6           0      -26.952473   -1.141181   -2.122342
      8          6           0      -26.589854   -1.053470   -3.610461
      9          6           0      -26.968356    0.457746   -3.941062
     10          6           0      -27.682333    0.895223   -2.657811
     11          6           0      -25.735706    1.310246   -4.217074
     12          6           0      -27.425812   -1.967021   -4.575989
     13          6           0      -26.763209   -2.412825   -5.853540
     14          1           0      -25.549587   -1.736813   -6.312734
     15          7           0      -29.098552    2.203728   -0.324096
     16          6           0      -28.911400    2.770283   -1.600798
     17          6           0      -29.627762    4.018816   -1.595313
     18          6           0      -30.152568    4.259635   -0.300374
     19          6           0      -29.723690    3.099471    0.519001
     20          6           0      -29.585052    5.002947   -2.744686
     21          6           0      -30.985076    5.354293    0.222251
     22          8           0      -31.193446    5.526582    1.404310
     23          6           0      -31.524205    6.473321   -0.740882
     24          7           0      -29.215022    0.670966    2.337673
     25          6           0      -29.712868    1.798608    2.749105
     26          6           0      -30.016627    1.763735    4.277194
     27          6           0      -29.590803    0.374835    4.717195
     28          6           0      -28.933927   -0.205286    3.413202
     29          6           0      -29.331776    3.010400    5.012056
     30          6           0      -30.753581   -0.462875    5.289976
     31          6           0      -30.926145   -0.479517    6.854852
     32          7           0      -28.000581   -1.499460    0.855598
     33          6           0      -27.962547   -2.108335    2.134587
     34          6           0      -27.478320   -3.433776    2.056854
     35          6           0      -26.937892   -3.485887    0.702085
     36          6           0      -27.338129   -2.282375    0.054159
     37          6           0      -27.207465   -4.355007    3.232268
     38          6           0      -26.178789   -4.341463   -0.133348
     39          8           0      -25.717240   -5.462606    0.038939
     40          6           0      -26.146781   -3.553647   -1.602796
     41          6           0      -24.695766   -3.488136   -1.979397
     42          8           0      -23.820400   -2.942658   -1.299221
     43          8           0      -24.397129   -4.244686   -3.151279
     44          6           0      -22.964375   -4.236607   -3.583036
     45          1           0      -28.197712    2.674573   -3.649585
     46          1           0      -30.178342    3.842449    2.449617
     47          1           0      -28.262767   -2.061578    4.210455
     48          1           0      -25.515305   -1.227582   -3.670690
     49          1           0      -27.603973    0.553446   -4.821269
     50          1           0      -24.858487    0.689278   -4.396671
     51          1           0      -25.560477    2.060967   -3.446000
     52          1           0      -25.764564    1.828332   -5.175670
     53          1           0      -28.350595   -1.438831   -4.805505
     54          1           0      -27.770481   -2.811699   -3.979079
     55          1           0      -27.470284   -2.218092   -6.659604
     56          1           0      -26.528024   -3.474625   -5.779814
     57          1           0      -29.061579    5.926975   -2.499465
     58          1           0      -30.611054    5.193579   -3.062230
     59          1           0      -29.056579    4.673558   -3.639147
     60          1           0      -30.699377    7.174632   -0.869700
     61          1           0      -32.286852    7.066578   -0.236203
     62          1           0      -31.785897    6.057447   -1.713088
     63          1           0      -31.097806    1.898993    4.311958
     64          1           0      -28.746212    0.408955    5.403660
     65          1           0      -28.673335    2.670091    5.811152
     66          1           0      -30.040253    3.645527    5.544187
     67          1           0      -28.755251    3.503184    4.228102
     68          1           0      -30.577488   -1.486213    4.956640
     69          1           0      -31.661214   -0.108209    4.801366
     70          1           0      -30.274606   -1.260033    7.249362
     71          1           0      -31.928627   -0.563627    7.274877
     72          1           0      -30.448157    0.464792    7.113253
     73          1           0      -28.179372   -4.812290    3.415861
     74          1           0      -26.898743   -3.795081    4.114241
     75          1           0      -26.338386   -5.008591    3.146926
     76          1           0      -26.756116   -4.113520   -2.313351
     77          1           0      -22.317556   -4.695521   -2.836158
     78          1           0      -22.504925   -3.281628   -3.839417
     79          1           0      -23.042457   -4.910451   -4.436227
     80         12           0       28.467189    0.455003   -0.188691
     81          6           0       26.113312   -2.017644   -0.065618
     82          6           0       25.801879    2.754008   -0.711493
     83          6           0       30.707091    2.964478    0.078298
     84          6           0       30.788540   -1.726176    1.222310
     85          7           0       26.082181    0.389376    0.006916
     86          6           0       25.415166   -0.783405   -0.183850
     87          6           0       23.937783   -0.519976   -0.278166
     88          6           0       23.828145    1.056328   -0.459246
     89          6           0       25.326482    1.492626   -0.406118
     90          6           0       22.833843    1.541063   -1.450164
     91          6           0       22.945554   -1.142599    0.814174
     92          6           0       23.457029   -1.328763    2.211924
     93          1           0       22.575113   -0.821943    3.344464
     94          7           0       28.304503    2.521707   -0.537578
     95          6           0       27.180127    3.255695   -0.756202
     96          6           0       27.466980    4.652449   -0.899099
     97          6           0       28.950788    4.719187   -0.784353
     98          6           0       29.390208    3.358567   -0.405060
     99          6           0       26.545208    5.748718   -1.149110
    100          6           0       29.871369    5.912772   -0.994676
    101          8           0       29.426097    6.995758   -1.138116
    102          6           0       31.374128    5.902330   -0.945391
    103          7           0       30.380859    0.616474    0.653742
    104          6           0       31.133091    1.710493    0.459783
    105          6           0       32.551081    1.572405    1.226089
    106          6           0       32.662109   -0.029822    1.226054
    107          6           0       31.200199   -0.379103    1.079758
    108          6           0       33.740866    2.267321    0.558117
    109          6           0       33.421743   -0.575693    2.448599
    110          6           0       34.526895   -1.625162    2.280999
    111          7           0       28.442971   -1.457478    0.559735
    112          6           0       29.453692   -2.261489    1.071874
    113          6           0       29.021387   -3.594011    1.242408
    114          6           0       27.720986   -3.605183    0.765550
    115          6           0       27.392379   -2.266223    0.350201
    116          6           0       29.815511   -4.760893    1.742645
    117          6           0       26.567198   -4.340442    0.452423
    118          8           0       26.380866   -5.542458    0.630515
    119          6           0       25.425530   -3.354985    0.072521
    120          6           0       24.891932   -3.931800   -1.230501
    121          8           0       23.686974   -4.182694   -1.444748
    122          8           0       25.937885   -3.973191   -2.122048
    123          6           0       25.732618   -4.249513   -3.564958
    124          1           0       24.934549    3.416631   -0.743131
    125          1           0       31.359209    3.795461    0.354747
    126          1           0       31.543437   -2.419531    1.597977
    127          1           0       23.554708   -1.028191   -1.163837
    128          1           0       23.470144    1.440480    0.495494
    129          1           0       23.234345    2.285539   -2.138142
    130          1           0       21.901102    1.852886   -0.980181
    131          1           0       22.557551    0.720178   -2.111980
    132          1           0       22.580311   -2.140929    0.572989
    133          1           0       22.116568   -0.454446    0.982416
    134          1           0       24.505015   -1.066764    2.353609
    135          1           0       23.397079   -2.395973    2.427927
    136          1           0       25.705384    5.372725   -1.732592
    137          1           0       26.989672    6.593394   -1.674139
    138          1           0       26.191802    6.087069   -0.174418
    139          1           0       31.474727    4.887917   -1.332064
    140          1           0       31.766529    5.975269    0.068427
    141          1           0       31.897889    6.640248   -1.553275
    142          1           0       32.364347    1.899052    2.249541
    143          1           0       33.121023   -0.521662    0.368742
    144          1           0       34.352354    1.483903    0.109579
    145          1           0       34.204254    2.972432    1.247569
    146          1           0       33.449789    2.916327   -0.267281
    147          1           0       32.669735   -0.994244    3.118011
    148          1           0       33.795998    0.277264    3.014923
    149          1           0       35.485715   -1.456785    2.771554
    150          1           0       34.690397   -1.908581    1.240443
    151          1           0       34.030852   -2.527171    2.637935
    152          1           0       29.560331   -5.716538    1.284051
    153          1           0       29.667353   -4.841184    2.819790
    154          1           0       30.884479   -4.671297    1.544932
    155          1           0       24.737023   -3.452856    0.910970
    156          1           0       26.377595   -3.645668   -4.203059
    157          1           0       24.691024   -4.035539   -3.805081
    158          1           0       25.874838   -5.252616   -3.965077
 ---------------------------------------------------------------------

 SCF Done:  E(RwB97XD) =  -4070.58753216     A.U. after   19 cycles

 Excitation energies and oscillator strengths:

 Excited State   1:      Singlet-A      1.5770 eV  786.19 nm  f=0.3856  <S**2>=0.000
     309 -> 315        0.17491
     311 -> 313        0.68654
     309 <- 315        0.11856
 This state for optimization and/or second-order correction.
 Total Energy, E(TD-HF/TD-DFT) =  -4070.52957726
 Copying the excited state density for this state as the 1-particle RhoCI density.

 Excited State   2:      Singlet-A      1.6919 eV  732.81 nm  f=0.3735  <S**2>=0.000
     310 -> 316        0.17799
     312 -> 314        0.68410
     310 <- 316        0.11255

 Excited State   3:      Singlet-A      2.0921 eV  592.62 nm  f=0.1443  <S**2>=0.000
     309 -> 313        0.64990
     311 -> 315       -0.25883

 Excited State   4:      Singlet-A      2.1733 eV  570.48 nm  f=0.1432  <S**2>=0.000
     310 -> 314        0.64713
     312 -> 316       -0.26328

 Excited State   5:      Singlet-A      3.0083 eV  412.14 nm  f=0.0074  <S**2>=0.000
     307 -> 313       -0.21845
     308 -> 313        0.63556
     308 -> 318       -0.12412

 The electronic state is 1-A.
 Alpha  occ. eigenvalues --  -46.96313 -46.94334 -19.31486 -19.29349 -19.25335
 Alpha  occ. eigenvalues --  -19.24369 -19.24353 -19.23618 -19.23200 -19.22191
 Alpha  occ. eigenvalues --  -14.47278 -14.47183 -14.46660 -14.46241 -14.44848
 Alpha  occ. eigenvalues --  -14.44620 -14.44296 -14.43904 -10.44405 -10.42899
 Alpha  occ. eigenvalues --  -10.39509 -10.38362 -10.38297 -10.37475 -10.36577
 Alpha  occ. eigenvalues --  -10.36155 -10.35876 -10.35700 -10.35669 -10.35334
 Alpha  occ. eigenvalues --  -10.35021 -10.34931 -10.34908 -10.34868 -10.34864
 Alpha  occ. eigenvalues --  -10.34830 -10.34704 -10.34665 -10.34159 -10.33965
 Alpha  occ. eigenvalues --  -10.33455 -10.33052 -10.32965 -10.32806 -10.32780
 Alpha  occ. eigenvalues --  -10.32586 -10.32515 -10.32390 -10.32373 -10.32372
 Alpha  occ. eigenvalues --  -10.32198 -10.32051 -10.32051 -10.32002 -10.31992
 Alpha  occ. eigenvalues --  -10.31924 -10.31882 -10.31863 -10.31833 -10.31777
 Alpha  occ. eigenvalues --  -10.31661 -10.31601 -10.31568 -10.31515 -10.31498
 Alpha  occ. eigenvalues --  -10.31287 -10.30799 -10.30777 -10.30762 -10.30760
 Alpha  occ. eigenvalues --  -10.30715 -10.30698 -10.30457 -10.30279 -10.30274
 Alpha  occ. eigenvalues --  -10.30216 -10.30075 -10.29919 -10.29879 -10.29733
 Alpha  occ. eigenvalues --  -10.29673 -10.29631 -10.29600 -10.29011 -10.28946
 Alpha  occ. eigenvalues --  -10.28490  -3.22247  -3.20441  -1.95788  -1.95403
 Alpha  occ. eigenvalues --   -1.95187  -1.94050  -1.93563  -1.93432  -1.17898
 Alpha  occ. eigenvalues --   -1.15559  -1.13586  -1.13413  -1.11665  -1.10795
 Alpha  occ. eigenvalues --   -1.09498  -1.07993  -1.07221  -1.07198  -1.06441
 Alpha  occ. eigenvalues --   -1.05941  -1.05390  -1.04944  -1.04537  -1.04172
 Alpha  occ. eigenvalues --   -0.95755  -0.94026  -0.91729  -0.91213  -0.90835
 Alpha  occ. eigenvalues --   -0.90637  -0.90347  -0.90323  -0.89923  -0.89784
 Alpha  occ. eigenvalues --   -0.89399  -0.89196  -0.88184  -0.87799  -0.86465
 Alpha  occ. eigenvalues --   -0.86234  -0.85922  -0.85017  -0.84876  -0.84137
 Alpha  occ. eigenvalues --   -0.84108  -0.83443  -0.82949  -0.82564  -0.82329
 Alpha  occ. eigenvalues --   -0.81973  -0.80794  -0.80477  -0.79762  -0.79174
 Alpha  occ. eigenvalues --   -0.78926  -0.78762  -0.78664  -0.77788  -0.77446
 Alpha  occ. eigenvalues --   -0.76992  -0.75601  -0.75108  -0.73756  -0.73602
 Alpha  occ. eigenvalues --   -0.71982  -0.71560  -0.71394  -0.70901  -0.70363
 Alpha  occ. eigenvalues --   -0.69944  -0.69306  -0.68575  -0.68214  -0.67714
 Alpha  occ. eigenvalues --   -0.67520  -0.67177  -0.66959  -0.66705  -0.66609
 Alpha  occ. eigenvalues --   -0.66393  -0.65615  -0.63375  -0.62424  -0.62297
 Alpha  occ. eigenvalues --   -0.61595  -0.61468  -0.61325  -0.60868  -0.60534
 Alpha  occ. eigenvalues --   -0.60062  -0.59735  -0.59588  -0.59305  -0.59224
 Alpha  occ. eigenvalues --   -0.58515  -0.58278  -0.57812  -0.57273  -0.57077
 Alpha  occ. eigenvalues --   -0.56996  -0.56558  -0.56410  -0.55968  -0.55948
 Alpha  occ. eigenvalues --   -0.55375  -0.55294  -0.55145  -0.55102  -0.54883
 Alpha  occ. eigenvalues --   -0.54438  -0.54433  -0.54272  -0.54219  -0.54058
 Alpha  occ. eigenvalues --   -0.53947  -0.53765  -0.53741  -0.53481  -0.53338
 Alpha  occ. eigenvalues --   -0.53053  -0.52894  -0.52655  -0.52558  -0.52503
 Alpha  occ. eigenvalues --   -0.52133  -0.51923  -0.51766  -0.51640  -0.51638
 Alpha  occ. eigenvalues --   -0.51485  -0.51461  -0.51201  -0.51133  -0.51000
 Alpha  occ. eigenvalues --   -0.50954  -0.50573  -0.50298  -0.50148  -0.50051
 Alpha  occ. eigenvalues --   -0.49829  -0.49593  -0.49492  -0.49416  -0.49298
 Alpha  occ. eigenvalues --   -0.49196  -0.49164  -0.49062  -0.49049  -0.48837
 Alpha  occ. eigenvalues --   -0.48828  -0.48609  -0.48385  -0.48073  -0.47746
 Alpha  occ. eigenvalues --   -0.47586  -0.47479  -0.47273  -0.47030  -0.46975
 Alpha  occ. eigenvalues --   -0.46931  -0.46827  -0.46650  -0.46494  -0.46222
 Alpha  occ. eigenvalues --   -0.46133  -0.46077  -0.45948  -0.45809  -0.45315
 Alpha  occ. eigenvalues --   -0.45277  -0.44993  -0.44942  -0.44814  -0.44671
 Alpha  occ. eigenvalues --   -0.44563  -0.44561  -0.44500  -0.44383  -0.44053
 Alpha  occ. eigenvalues --   -0.43945  -0.43920  -0.43754  -0.43658  -0.43453
 Alpha  occ. eigenvalues --   -0.43425  -0.43214  -0.43180  -0.42682  -0.42464
 Alpha  occ. eigenvalues --   -0.42188  -0.42170  -0.41772  -0.41321  -0.40953
 Alpha  occ. eigenvalues --   -0.40638  -0.40542  -0.39956  -0.39801  -0.39446
 Alpha  occ. eigenvalues --   -0.39242  -0.38987  -0.38961  -0.38162  -0.38100
 Alpha  occ. eigenvalues --   -0.37765  -0.37547  -0.36810  -0.36450  -0.35906
 Alpha  occ. eigenvalues --   -0.35863  -0.35544  -0.35328  -0.33845  -0.33809
 Alpha  occ. eigenvalues --   -0.33157  -0.33077  -0.32745  -0.32590  -0.31742
 Alpha  occ. eigenvalues --   -0.31589  -0.31538  -0.30407  -0.26395  -0.26138
 Alpha  occ. eigenvalues --   -0.23531  -0.23382
 Alpha virt. eigenvalues --   -0.08048  -0.07412  -0.00031   0.00259   0.02246
 Alpha virt. eigenvalues --    0.02327   0.04068   0.04494   0.04823   0.06645
 Alpha virt. eigenvalues --    0.06846   0.06903   0.07350   0.07894   0.08493

 Mulliken charges:
               1
     1  Mg   0.981376
     2  C   -0.071297
     3  C   -0.108101
     4  C   -0.077377
     5  C   -0.077084
     6  N   -0.334169
     7  C    0.003533
     8  C   -0.040132
     9  C   -0.140197
    10  C    0.072924
    11  C    0.018688
    12  C    0.018251
    13  C   -0.105765
    14  H    0.036520
    15  N   -0.531683
    16  C    0.234414
    17  C   -0.151096
    18  C   -0.045584
    19  C    0.152475
    20  C    0.052136
    21  C    0.017215
    22  O   -0.224843
    23  C   -0.005432
    24  N   -0.321187
    25  C    0.055881
    26  C   -0.094099
    27  C   -0.043729
    28  C    0.027456
    29  C    0.014745
    30  C   -0.005376
    31  C   -0.042810
    32  N   -0.449403
    33  C    0.125228
    34  C   -0.138863
    35  C   -0.084676
    36  C    0.187794
    37  C    0.059633
    38  C    0.113549
    39  O   -0.211577
    40  C   -0.083809
    41  C    0.288698
    42  O   -0.260469
    43  O   -0.404782
    44  C    0.141028
    45  H    0.004100
    46  H    0.032145
    47  H    0.000466
    48  H    0.043817
    49  H    0.038827
    50  H    0.033337
    51  H    0.049262
    52  H    0.023053
    53  H    0.024352
    54  H    0.025385
    55  H    0.048813
    56  H    0.067380
    57  H    0.063450
    58  H    0.049892
    59  H    0.030816
    60  H    0.053352
    61  H    0.056019
    62  H    0.038258
    63  H    0.048291
    64  H    0.027379
    65  H    0.030060
    66  H    0.045671
    67  H    0.051191
    68  H    0.026159
    69  H    0.026666
    70  H    0.037039
    71  H    0.054571
    72  H    0.027410
    73  H    0.054130
    74  H    0.037479
    75  H    0.064160
    76  H    0.072278
    77  H    0.058601
    78  H    0.054419
    79  H    0.053768
    80  Mg   0.958669
    81  C    0.008361
    82  C   -0.083385
    83  C   -0.083927
    84  C   -0.096676
    85  N   -0.330870
    86  C   -0.005465
    87  C   -0.018867
    88  C   -0.091847
    89  C    0.035718
    90  C    0.041611
    91  C   -0.010625
    92  C   -0.168708
    93  H    0.030017
    94  N   -0.448542
    95  C    0.171518
    96  C   -0.181765
    97  C   -0.096628
    98  C    0.137422
    99  C    0.086329
   100  C    0.013453
   101  O   -0.209807
   102  C   -0.014991
   103  N   -0.361576
   104  C    0.084254
   105  C   -0.139116
   106  C   -0.084181
   107  C    0.074754
   108  C    0.050072
   109  C   -0.015361
   110  C   -0.044749
   111  N   -0.442147
   112  C    0.139413
   113  C   -0.188116
   114  C    0.058696
   115  C    0.109911
   116  C    0.078549
   117  C    0.062362
   118  O   -0.216424
   119  C   -0.121550
   120  C    0.313018
   121  O   -0.256640
   122  O   -0.379234
   123  C    0.145025
   124  H    0.008434
   125  H    0.003748
   126  H   -0.014194
   127  H    0.042127
   128  H    0.049765
   129  H    0.035471
   130  H    0.041470
   131  H    0.026936
   132  H    0.059149
   133  H    0.045118
   134  H    0.064477
   135  H    0.055814
   136  H    0.031690
   137  H    0.063168
   138  H    0.053813
   139  H    0.032394
   140  H    0.070921
   141  H    0.057983
   142  H    0.056107
   143  H    0.040605
   144  H    0.038897
   145  H    0.039566
   146  H    0.032343
   147  H    0.030273
   148  H    0.027713
   149  H    0.056406
   150  H    0.025817
   151  H    0.030890
   152  H    0.060956
   153  H    0.060889
   154  H    0.031895
   155  H    0.065608
   156  H    0.053556
   157  H    0.053925
   158  H    0.058314
 Sum of Mulliken charges =  -0.00000

 Dipole moment (field-independent basis, Debye):
    X=              1.8653    Y=              4.3649    Z=             -4.2787  Tot=              6.3905
 Quadrupole moment (field-independent basis, Debye-Ang):
   XX=           -140.0191   YY=           -584.4129   ZZ=           -458.6355
   XY=           -133.6449   XZ=             61.4088   YZ=             -0.7052

 Normal termination of Gaussian 16 at Mon Sep 20 08:56:36 2021.
