 Gaussian 16, Revision A.03,
 Gaussian 16:  ES64L-G16RevA.03 25-Dec-2016

 --------------------------------
 #p wB97XD/Def2SVP td=(nstates=5)
 --------------------------------

 --------------------------------
 TDDFT excited states in gaussian
 --------------------------------
 Symbolic Z-matrix:
 Charge =  0 Multiplicity = 1

                         Standard orientation:
 ---------------------------------------------------------------------
 Center     Atomic      Atomic             Coordinates (Angstroms)
 Number     Number       Type             X           Y           Z
 ---------------------------------------------------------------------
      1         12           0      -28.457311    0.437548    0.373647
      2          6           0      -26.692686   -2.064221   -1.442757
      3          6           0      -28.226793    2.480317   -2.382534
      4          6           0      -30.046851    2.658909    2.233163
      5          6           0      -28.181513   -1.597140    3.323784
      6          7           0      -27.475484    0.262499   -1.728786
      7          6           0      -26.924575   -0.910775   -2.210701
      8          6           0      -26.553271   -0.633589   -3.707821
      9          6           0      -27.019551    0.887750   -4.016202
     10          6           0      -27.588106    1.232008   -2.635796
     11          6           0      -25.932799    1.832490   -4.570206
     12          6           0      -27.016130   -1.708322   -4.776232
     13          6           0      -25.918684   -2.333798   -5.587183
     14          1           0      -24.615846   -1.646420   -5.900111
     15          7           0      -29.195438    2.350365   -0.083280
     16          6           0      -28.980173    2.996030   -1.259959
     17          6           0      -29.779813    4.192702   -1.204216
     18          6           0      -30.223250    4.318384    0.130021
     19          6           0      -29.819343    3.088523    0.886090
     20          6           0      -29.852416    5.127258   -2.423558
     21          6           0      -30.865649    5.516753    0.760428
     22          8           0      -31.111607    5.559137    1.989231
     23          6           0      -31.166584    6.705026   -0.075568
     24          7           0      -28.959562    0.490731    2.537688
     25          6           0      -29.665062    1.465690    2.995245
     26          6           0      -30.153420    1.359236    4.537109
     27          6           0      -29.526234   -0.003148    4.869825
     28          6           0      -28.871953   -0.402531    3.569906
     29          6           0      -29.588803    2.578626    5.354076
     30          6           0      -30.493826   -1.117788    5.402384
     31          6           0      -31.460278   -1.746079    4.370421
     32          7           0      -27.534910   -1.321157    0.860610
     33          6           0      -27.502898   -1.985889    2.109098
     34          6           0      -26.841081   -3.282505    1.910321
     35          6           0      -26.517053   -3.355669    0.534271
     36          6           0      -26.999735   -2.149535   -0.077263
     37          6           0      -26.604703   -4.355635    3.014912
     38          6           0      -25.949183   -4.186001   -0.390179
     39          8           0      -25.407055   -5.268025   -0.292660
     40          6           0      -26.064969   -3.454704   -1.756735
     41          6           0      -24.750367   -3.387205   -2.352041
     42          8           0      -23.930822   -2.483483   -2.152522
     43          8           0      -24.458299   -4.599288   -2.988750
     44          6           0      -23.060223   -4.713493   -3.472925
     45          1           0      -28.007840    3.297417   -3.073640
     46          1           0      -30.422843    3.463033    2.869271
     47          1           0      -28.073811   -2.255896    4.187960
     48          1           0      -25.479606   -0.799852   -3.630166
     49          1           0      -27.761917    0.871418   -4.812916
     50          1           0      -26.252166    2.275273   -5.514497
     51          1           0      -24.937247    1.410175   -4.705627
     52          1           0      -25.849817    2.607087   -3.807828
     53          1           0      -27.749529   -1.269467   -5.453003
     54          1           0      -27.460738   -2.515845   -4.194517
     55          1           0      -26.273502   -2.351360   -6.618281
     56          1           0      -25.718879   -3.320448   -5.170709
     57          1           0      -29.524915    4.634132   -3.339090
     58          1           0      -29.236567    6.008252   -2.247395
     59          1           0      -30.905702    5.396711   -2.494634
     60          1           0      -31.822725    6.367968   -0.878069
     61          1           0      -30.265009    7.099493   -0.545813
     62          1           0      -31.575714    7.509923    0.533722
     63          1           0      -31.240526    1.314252    4.607009
     64          1           0      -28.660496    0.143513    5.516056
     65          1           0      -28.648734    2.880176    4.892165
     66          1           0      -29.361463    2.233442    6.363288
     67          1           0      -30.213283    3.467823    5.444189
     68          1           0      -30.982209   -0.777098    6.314806
     69          1           0      -29.874785   -1.917561    5.807689
     70          1           0      -31.810263   -1.098254    3.567418
     71          1           0      -32.281762   -2.210954    4.916714
     72          1           0      -30.906217   -2.581092    3.941900
     73          1           0      -26.927020   -5.353928    2.718722
     74          1           0      -27.058802   -4.097585    3.970963
     75          1           0      -25.539051   -4.580358    3.066107
     76          1           0      -26.710052   -4.134737   -2.312112
     77          1           0      -22.369242   -4.790315   -2.633822
     78          1           0      -22.710047   -3.856639   -4.047351
     79          1           0      -23.058867   -5.510548   -4.216630
     80         12           0       28.382562    0.510808   -0.233076
     81          6           0       26.097451   -2.149785    0.117076
     82          6           0       25.770537    2.449114   -1.048513
     83          6           0       30.504830    2.987767   -0.029932
     84          6           0       30.772322   -1.631054    1.339166
     85          7           0       26.178528    0.169562   -0.391318
     86          6           0       25.455947   -0.971514   -0.293528
     87          6           0       23.985064   -0.789301   -0.608645
     88          6           0       24.017076    0.659020   -1.242894
     89          6           0       25.394279    1.177090   -0.883529
     90          6           0       23.756985    0.709525   -2.804989
     91          6           0       22.864341   -0.919471    0.512928
     92          6           0       23.220255   -0.890240    2.023087
     93          1           0       22.181913   -0.241953    3.013207
     94          7           0       28.139025    2.468134   -0.651399
     95          6           0       26.995309    3.106204   -0.860679
     96          6           0       27.265161    4.568043   -0.933979
     97          6           0       28.742760    4.699928   -0.790938
     98          6           0       29.179823    3.342669   -0.462682
     99          6           0       26.232215    5.598457   -1.302983
    100          6           0       29.520460    5.989072   -0.839251
    101          8           0       28.919742    7.030517   -1.091917
    102          6           0       31.055114    6.141413   -0.528189
    103          7           0       30.403456    0.704856    0.674363
    104          6           0       31.013271    1.810003    0.417658
    105          6           0       32.526710    1.638968    0.886044
    106          6           0       32.471510    0.250746    1.527110
    107          6           0       31.096786   -0.286064    1.177975
    108          6           0       33.653538    1.797376   -0.148332
    109          6           0       32.517012    0.280219    3.141969
    110          6           0       33.770702   -0.320113    3.804176
    111          7           0       28.475685   -1.428315    0.630301
    112          6           0       29.506781   -2.196025    1.103574
    113          6           0       29.088944   -3.616819    1.225265
    114          6           0       27.689506   -3.641706    0.965159
    115          6           0       27.429533   -2.279838    0.501847
    116          6           0       29.933149   -4.795374    1.759534
    117          6           0       26.489193   -4.407919    0.916265
    118          8           0       26.173622   -5.551252    1.287913
    119          6           0       25.406922   -3.493797    0.287539
    120          6           0       24.917265   -4.196297   -0.982124
    121          8           0       23.902285   -4.782310   -1.250512
    122          8           0       25.816547   -3.890347   -2.009355
    123          6           0       25.486433   -4.371959   -3.386643
    124          1           0       24.900501    3.058247   -1.303126
    125          1           0       31.186647    3.841562   -0.017131
    126          1           0       31.579972   -2.328485    1.569436
    127          1           0       23.789249   -1.495739   -1.415104
    128          1           0       23.230610    1.265016   -0.792834
    129          1           0       23.648640   -0.294314   -3.214313
    130          1           0       24.721971    1.057468   -3.171922
    131          1           0       22.912191    1.365694   -3.015236
    132          1           0       22.322792   -1.842772    0.306752
    133          1           0       22.117509   -0.140807    0.354263
    134          1           0       24.153212   -0.330804    2.092195
    135          1           0       23.259760   -1.876133    2.485267
    136          1           0       26.662730    6.564197   -1.566920
    137          1           0       25.502471    5.602771   -0.492451
    138          1           0       25.690689    5.133429   -2.127413
    139          1           0       31.796658    5.520292   -1.032018
    140          1           0       31.211775    5.884793    0.519530
    141          1           0       31.411581    7.154425   -0.712613
    142          1           0       32.807206    2.402106    1.611236
    143          1           0       33.241372   -0.478311    1.271959
    144          1           0       33.265691    2.046854   -1.136103
    145          1           0       34.292607    0.914579   -0.186859
    146          1           0       34.328367    2.625534    0.068164
    147          1           0       31.687306   -0.273790    3.578881
    148          1           0       32.412046    1.330412    3.415181
    149          1           0       33.607579   -0.802629    4.768170
    150          1           0       34.422756    0.530980    4.000366
    151          1           0       34.123280   -1.038165    3.063677
    152          1           0       30.854212   -4.510812    2.267172
    153          1           0       30.186189   -5.363111    0.864468
    154          1           0       29.284259   -5.431534    2.360978
    155          1           0       24.578122   -3.383578    0.986074
    156          1           0       24.917185   -5.295065   -3.493669
    157          1           0       26.465797   -4.589370   -3.812468
    158          1           0       25.039669   -3.669368   -4.090407
 ---------------------------------------------------------------------

 SCF Done:  E(RwB97XD) =  -4070.59230853     A.U. after   19 cycles

 Excitation energies and oscillator strengths:

 Excited State   1:      Singlet-A      1.7162 eV  722.41 nm  f=0.3149  <S**2>=0.000
     309 -> 315        0.18916
     311 -> 313        0.67578
     309 <- 315        0.11440
 This state for optimization and/or second-order correction.
 Total Energy, E(TD-HF/TD-DFT) =  -4070.52923760
 Copying the excited state density for this state as the 1-particle RhoCI density.

 Excited State   2:      Singlet-A      1.7178 eV  721.78 nm  f=0.4650  <S**2>=0.000
     310 -> 316       -0.18996
     312 -> 314        0.67447
     310 <- 316       -0.11438

 Excited State   3:      Singlet-A      2.1591 eV  574.23 nm  f=0.1065  <S**2>=0.000
     310 -> 314        0.63945
     312 -> 316        0.28263

 Excited State   4:      Singlet-A      2.2310 eV  555.73 nm  f=0.0957  <S**2>=0.000
     309 -> 313        0.63459
     311 -> 315       -0.29964

 Excited State   5:      Singlet-A      3.3955 eV  365.14 nm  f=0.0215  <S**2>=0.000
     299 -> 313       -0.19144
     299 -> 317        0.14706
     301 -> 313       -0.46765
     301 -> 317        0.33190
     301 -> 319        0.12879
     302 -> 313       -0.15189
     311 -> 315        0.15210

 The electronic state is 1-A.
 Alpha  occ. eigenvalues --  -46.96407 -46.96141 -19.29869 -19.29426 -19.25391
 Alpha  occ. eigenvalues --  -19.24604 -19.24161 -19.23869 -19.23578 -19.22485
 Alpha  occ. eigenvalues --  -14.47254 -14.46912 -14.46447 -14.46374 -14.45066
 Alpha  occ. eigenvalues --  -14.44715 -14.44370 -14.44228 -10.43779 -10.42390
 Alpha  occ. eigenvalues --  -10.39774 -10.39552 -10.39081 -10.37193 -10.35978
 Alpha  occ. eigenvalues --  -10.35801 -10.35645 -10.35578 -10.35575 -10.35143
 Alpha  occ. eigenvalues --  -10.35124 -10.35094 -10.35045 -10.34759 -10.34690
 Alpha  occ. eigenvalues --  -10.34480 -10.34424 -10.34175 -10.34140 -10.34067
 Alpha  occ. eigenvalues --  -10.33820 -10.33788 -10.33595 -10.33371 -10.33063
 Alpha  occ. eigenvalues --  -10.32875 -10.32873 -10.32861 -10.32705 -10.32429
 Alpha  occ. eigenvalues --  -10.32173 -10.32116 -10.32099 -10.32062 -10.32055
 Alpha  occ. eigenvalues --  -10.31961 -10.31960 -10.31940 -10.31896 -10.31682
 Alpha  occ. eigenvalues --  -10.31667 -10.31522 -10.31459 -10.31423 -10.31423
 Alpha  occ. eigenvalues --  -10.31315 -10.31179 -10.31144 -10.31141 -10.31121
 Alpha  occ. eigenvalues --  -10.31120 -10.30971 -10.30501 -10.30447 -10.30419
 Alpha  occ. eigenvalues --  -10.30339 -10.30322 -10.30256 -10.30205 -10.30016
 Alpha  occ. eigenvalues --  -10.29864 -10.29788 -10.29666 -10.29605 -10.29254
 Alpha  occ. eigenvalues --  -10.27819  -3.22337  -3.21946  -1.95913  -1.95545
 Alpha  occ. eigenvalues --   -1.95457  -1.95305  -1.95099  -1.94867  -1.18253
 Alpha  occ. eigenvalues --   -1.16435  -1.11740  -1.11632  -1.11390  -1.10723
 Alpha  occ. eigenvalues --   -1.09526  -1.08737  -1.08436  -1.08116  -1.06842
 Alpha  occ. eigenvalues --   -1.06059  -1.05763  -1.05327  -1.05060  -1.03663
 Alpha  occ. eigenvalues --   -0.95616  -0.94205  -0.91728  -0.91585  -0.90727
 Alpha  occ. eigenvalues --   -0.90477  -0.90262  -0.90205  -0.89656  -0.89221
 Alpha  occ. eigenvalues --   -0.88902  -0.88692  -0.87393  -0.87320  -0.86833
 Alpha  occ. eigenvalues --   -0.86209  -0.85833  -0.85212  -0.84783  -0.84426
 Alpha  occ. eigenvalues --   -0.84182  -0.83709  -0.82775  -0.82584  -0.82473
 Alpha  occ. eigenvalues --   -0.82016  -0.80474  -0.80320  -0.79641  -0.79454
 Alpha  occ. eigenvalues --   -0.78946  -0.78619  -0.78330  -0.77602  -0.77309
 Alpha  occ. eigenvalues --   -0.76929  -0.75335  -0.74482  -0.74380  -0.73525
 Alpha  occ. eigenvalues --   -0.72341  -0.71602  -0.71198  -0.71011  -0.70598
 Alpha  occ. eigenvalues --   -0.69796  -0.69504  -0.68922  -0.68781  -0.67643
 Alpha  occ. eigenvalues --   -0.67507  -0.67235  -0.66879  -0.66875  -0.66573
 Alpha  occ. eigenvalues --   -0.66198  -0.65186  -0.63369  -0.62592  -0.62258
 Alpha  occ. eigenvalues --   -0.62211  -0.61472  -0.61449  -0.60593  -0.60534
 Alpha  occ. eigenvalues --   -0.60091  -0.60082  -0.59858  -0.59502  -0.59257
 Alpha  occ. eigenvalues --   -0.58349  -0.58203  -0.57974  -0.57864  -0.57653
 Alpha  occ. eigenvalues --   -0.57188  -0.57032  -0.56894  -0.56510  -0.55914
 Alpha  occ. eigenvalues --   -0.55591  -0.55466  -0.55207  -0.54921  -0.54899
 Alpha  occ. eigenvalues --   -0.54778  -0.54717  -0.54477  -0.53966  -0.53959
 Alpha  occ. eigenvalues --   -0.53665  -0.53531  -0.53451  -0.53219  -0.53212
 Alpha  occ. eigenvalues --   -0.53025  -0.52702  -0.52527  -0.52437  -0.51955
 Alpha  occ. eigenvalues --   -0.51749  -0.51729  -0.51460  -0.51460  -0.51174
 Alpha  occ. eigenvalues --   -0.51116  -0.50992  -0.50939  -0.50799  -0.50770
 Alpha  occ. eigenvalues --   -0.50502  -0.50475  -0.50452  -0.50237  -0.49951
 Alpha  occ. eigenvalues --   -0.49864  -0.49798  -0.49530  -0.49411  -0.49374
 Alpha  occ. eigenvalues --   -0.49213  -0.49207  -0.48876  -0.48634  -0.48578
 Alpha  occ. eigenvalues --   -0.48527  -0.48426  -0.48233  -0.48080  -0.48047
 Alpha  occ. eigenvalues --   -0.47796  -0.47718  -0.47490  -0.47410  -0.47295
 Alpha  occ. eigenvalues --   -0.46818  -0.46785  -0.46473  -0.46121  -0.46102
 Alpha  occ. eigenvalues --   -0.45909  -0.45715  -0.45644  -0.45519  -0.45383
 Alpha  occ. eigenvalues --   -0.45256  -0.45119  -0.45086  -0.44657  -0.44580
 Alpha  occ. eigenvalues --   -0.44363  -0.44254  -0.44251  -0.44045  -0.43999
 Alpha  occ. eigenvalues --   -0.43769  -0.43721  -0.43535  -0.43365  -0.43363
 Alpha  occ. eigenvalues --   -0.43169  -0.43112  -0.43008  -0.42851  -0.42596
 Alpha  occ. eigenvalues --   -0.42476  -0.41975  -0.41881  -0.41669  -0.41145
 Alpha  occ. eigenvalues --   -0.40996  -0.40762  -0.40133  -0.39722  -0.38891
 Alpha  occ. eigenvalues --   -0.38871  -0.38717  -0.38635  -0.38420  -0.38274
 Alpha  occ. eigenvalues --   -0.38015  -0.37441  -0.37063  -0.36259  -0.35894
 Alpha  occ. eigenvalues --   -0.35863  -0.35535  -0.35296  -0.34093  -0.33524
 Alpha  occ. eigenvalues --   -0.33487  -0.33271  -0.33177  -0.32869  -0.32502
 Alpha  occ. eigenvalues --   -0.31919  -0.31642  -0.31422  -0.26421  -0.25724
 Alpha  occ. eigenvalues --   -0.23344  -0.23052
 Alpha virt. eigenvalues --   -0.07263  -0.06871  -0.00128   0.00145   0.01415
 Alpha virt. eigenvalues --    0.02214   0.03851   0.04447   0.04520   0.05706
 Alpha virt. eigenvalues --    0.06815   0.07192   0.07244   0.07970   0.08129

 Mulliken charges:
               1
     1  Mg   0.949340
     2  C    0.012384
     3  C   -0.090558
     4  C   -0.048097
     5  C   -0.087805
     6  N   -0.314689
     7  C   -0.012912
     8  C   -0.056126
     9  C   -0.105127
    10  C    0.077841
    11  C    0.018428
    12  C    0.000199
    13  C   -0.139691
    14  H    0.031643
    15  N   -0.486296
    16  C    0.140133
    17  C   -0.180294
    18  C   -0.072200
    19  C    0.161106
    20  C    0.072735
    21  C    0.036423
    22  O   -0.261889
    23  C    0.006586
    24  N   -0.272096
    25  C    0.015673
    26  C   -0.109941
    27  C    0.029181
    28  C   -0.040013
    29  C   -0.003670
    30  C   -0.032840
    31  C   -0.036120
    32  N   -0.476874
    33  C    0.148579
    34  C   -0.175994
    35  C    0.006756
    36  C    0.138830
    37  C    0.087126
    38  C    0.031592
    39  O   -0.201447
    40  C   -0.063082
    41  C    0.266995
    42  O   -0.263238
    43  O   -0.379056
    44  C    0.150026
    45  H    0.007857
    46  H    0.029022
    47  H   -0.009075
    48  H    0.057298
    49  H    0.044913
    50  H    0.035050
    51  H    0.051805
    52  H    0.033484
    53  H    0.031596
    54  H    0.036255
    55  H    0.048467
    56  H    0.062279
    57  H    0.047864
    58  H    0.064222
    59  H    0.046346
    60  H    0.050890
    61  H    0.050382
    62  H    0.058518
    63  H    0.052376
    64  H    0.036486
    65  H    0.045579
    66  H    0.037063
    67  H    0.064060
    68  H    0.030903
    69  H    0.025091
    70  H    0.049789
    71  H    0.041210
    72  H    0.038652
    73  H    0.043743
    74  H    0.031544
    75  H    0.051166
    76  H    0.073529
    77  H    0.064665
    78  H    0.041710
    79  H    0.053740
    80  Mg   0.957490
    81  C   -0.036301
    82  C   -0.091702
    83  C   -0.036362
    84  C   -0.103724
    85  N   -0.341006
    86  C   -0.038010
    87  C    0.005252
    88  C   -0.158237
    89  C    0.057900
    90  C    0.033630
    91  C    0.002354
    92  C   -0.149959
    93  H    0.026881
    94  N   -0.476196
    95  C    0.164658
    96  C   -0.173304
    97  C   -0.081431
    98  C    0.167461
    99  C    0.085853
   100  C    0.055536
   101  O   -0.240358
   102  C   -0.027088
   103  N   -0.273656
   104  C    0.045658
   105  C   -0.055730
   106  C   -0.126062
   107  C    0.077442
   108  C    0.014303
   109  C   -0.041894
   110  C   -0.039880
   111  N   -0.401920
   112  C    0.127015
   113  C   -0.186188
   114  C   -0.008810
   115  C    0.160678
   116  C    0.075226
   117  C    0.093770
   118  O   -0.218072
   119  C   -0.083226
   120  C    0.279602
   121  O   -0.209521
   122  O   -0.398053
   123  C    0.134922
   124  H   -0.010888
   125  H   -0.053797
   126  H    0.002646
   127  H    0.040938
   128  H    0.037050
   129  H    0.035430
   130  H    0.038105
   131  H    0.054862
   132  H    0.045349
   133  H    0.044651
   134  H    0.072932
   135  H    0.074354
   136  H    0.077692
   137  H    0.041056
   138  H    0.036932
   139  H    0.056533
   140  H    0.057164
   141  H    0.052395
   142  H    0.035504
   143  H    0.023173
   144  H    0.033244
   145  H    0.035995
   146  H    0.027108
   147  H    0.043335
   148  H    0.025248
   149  H    0.043760
   150  H    0.037804
   151  H    0.028132
   152  H    0.042822
   153  H    0.054950
   154  H    0.069759
   155  H    0.068864
   156  H    0.065912
   157  H    0.044837
   158  H    0.047207
 Sum of Mulliken charges =  -0.00000

 Dipole moment (field-independent basis, Debye):
    X=              0.8212    Y=              3.5516    Z=             -3.3407  Tot=              4.9446
 Quadrupole moment (field-independent basis, Debye-Ang):
   XX=            -95.5541   YY=           -579.1719   ZZ=           -464.2705
   XY=            -77.8971   XZ=             16.5486   YZ=             -3.2412

 Normal termination of Gaussian 16 at Sun Sep 19 05:44:06 2021.
