 Gaussian 16, Revision A.03,
 Gaussian 16:  ES64L-G16RevA.03 25-Dec-2016

 --------------------------------
 #p wB97XD/Def2SVP td=(nstates=5)
 --------------------------------

 --------------------------------
 TDDFT excited states in gaussian
 --------------------------------
 Symbolic Z-matrix:
 Charge =  0 Multiplicity = 1

                         Standard orientation:
 ---------------------------------------------------------------------
 Center     Atomic      Atomic             Coordinates (Angstroms)
 Number     Number       Type             X           Y           Z
 ---------------------------------------------------------------------
      1         12           0      -12.035476    0.136319   -0.552092
      2          6           0       -9.009545   -1.524293   -0.676751
      3          6           0      -13.597120   -2.924217   -0.340641
      4          6           0      -14.969418    1.769677    0.171326
      5          6           0      -10.391798    3.159441   -0.653300
      6          7           0      -11.377834   -1.948336   -0.312626
      7          6           0      -10.072275   -2.370131   -0.469760
      8          6           0       -9.954179   -3.890618   -0.406629
      9          6           0      -11.450040   -4.320018   -0.643572
     10          6           0      -12.176925   -3.010716   -0.373471
     11          6           0      -11.798283   -5.030501   -2.029274
     12          6           0       -9.283445   -4.482841    0.873734
     13          6           0       -8.262306   -5.575188    0.635791
     14          1           0       -8.753521   -6.933053    1.112986
     15          7           0      -13.963784   -0.516850   -0.136155
     16          6           0      -14.404173   -1.780016   -0.123491
     17          6           0      -15.840164   -1.823510    0.091584
     18          6           0      -16.339922   -0.542465    0.256287
     19          6           0      -15.086067    0.321109    0.154179
     20          6           0      -16.652435   -3.199357    0.215405
     21          6           0      -17.840604   -0.127463    0.424266
     22          8           0      -18.714511   -1.036458    0.505663
     23          6           0      -18.254247    1.289560    0.540740
     24          7           0      -12.595968    2.235231   -0.023876
     25          6           0      -13.839188    2.651247    0.051701
     26          6           0      -13.967095    4.152504   -0.100955
     27          6           0      -12.513678    4.708019   -0.281397
     28          6           0      -11.750013    3.303781   -0.407889
     29          6           0      -15.091164    4.753328   -1.004108
     30          6           0      -11.873995    5.618218    0.806817
     31          6           0      -10.672953    6.390298    0.301069
     32          7           0      -10.056664    0.725670   -0.636297
     33          6           0       -9.516243    2.026558   -0.759976
     34          6           0       -8.099518    1.897008   -0.966287
     35          6           0       -7.825766    0.507544   -0.979198
     36          6           0       -9.049024   -0.109422   -0.732278
     37          6           0       -7.136524    3.005779   -1.363902
     38          6           0       -6.798834   -0.395296   -1.150671
     39          8           0       -5.605359   -0.324807   -1.263439
     40          6           0       -7.497379   -1.812895   -0.811214
     41          6           0       -7.049274   -2.108771    0.619244
     42          8           0       -7.535591   -1.634477    1.627769
     43          8           0       -5.985906   -2.992438    0.528985
     44          6           0       -5.327530   -3.328057    1.787374
     45          1           0      -14.161756   -3.849670   -0.470465
     46          1           0      -15.937655    2.223906    0.390473
     47          1           0       -9.757394    4.029166   -0.836433
     48          1           0       -9.398197   -4.210345   -1.287492
     49          1           0      -11.744065   -4.909780    0.225425
     50          1           0      -12.863336   -4.817827   -2.121008
     51          1           0      -11.769088   -6.119826   -1.994115
     52          1           0      -11.232370   -4.708703   -2.903403
     53          1           0      -10.130404   -4.877718    1.435203
     54          1           0       -8.918535   -3.771697    1.614538
     55          1           0       -7.351768   -5.285994    1.161061
     56          1           0       -8.020171   -5.697815   -0.420062
     57          1           0      -16.045601   -4.104080    0.159650
     58          1           0      -17.419363   -3.261442   -0.557372
     59          1           0      -17.104445   -3.342158    1.195953
     60          1           0      -17.953830    1.830891   -0.355817
     61          1           0      -17.953154    1.718894    1.496401
     62          1           0      -19.334379    1.257516    0.403455
     63          1           0      -14.197337    4.699811    0.813358
     64          1           0      -12.328200    5.071211   -1.292509
     65          1           0      -15.772161    3.928817   -1.219577
     66          1           0      -14.716627    5.288292   -1.877586
     67          1           0      -15.708854    5.503555   -0.510219
     68          1           0      -11.655680    4.966172    1.652449
     69          1           0      -12.693200    6.258505    1.133820
     70          1           0      -10.638196    7.334315    0.845448
     71          1           0      -10.687298    6.632213   -0.762311
     72          1           0       -9.764297    5.870386    0.604715
     73          1           0       -6.151571    2.648384   -1.664434
     74          1           0       -7.065623    3.696207   -0.524435
     75          1           0       -7.525994    3.586836   -2.199912
     76          1           0       -7.271549   -2.559968   -1.572747
     77          1           0       -4.847225   -2.438087    2.194354
     78          1           0       -4.623748   -4.151351    1.669860
     79          1           0       -6.078165   -3.614130    2.523592
     80         12           0       11.017336    0.909823   -0.199040
     81          6           0       12.994663   -2.083763   -0.145848
     82          6           0        8.528398   -1.039686    1.463632
     83          6           0        9.404745    3.681760    0.803347
     84          6           0       13.812901    2.654888   -1.113302
     85          7           0       10.851464   -1.266456    0.572175
     86          6           0       11.749411   -2.287496    0.459707
     87          6           0       11.201251   -3.618892    1.082153
     88          6           0        9.637729   -3.281838    1.194344
     89          6           0        9.689435   -1.762962    1.150236
     90          6           0        8.792695   -3.815496    0.060419
     91          6           0       11.944298   -4.051653    2.335240
     92          6           0       12.316966   -5.551420    2.465009
     93          1           0       11.445897   -6.539050    3.372582
     94          7           0        9.108580    1.303070    0.918080
     95          6           0        8.217775    0.330519    1.418237
     96          6           0        7.043600    1.011534    1.977377
     97          6           0        7.282619    2.421957    1.737940
     98          6           0        8.632112    2.534635    1.227746
     99          6           0        5.893726    0.386617    2.673573
    100          6           0        6.282112    3.523593    1.982596
    101          8           0        5.145257    3.211435    2.257092
    102          6           0        6.597932    4.998987    1.895853
    103          7           0       11.613798    2.799438   -0.072996
    104          6           0       10.680408    3.786605    0.230434
    105          6           0       11.383135    5.138688    0.087811
    106          6           0       12.691567    4.805120   -0.718214
    107          6           0       12.687079    3.314368   -0.672231
    108          6           0       10.553948    6.353114   -0.470234
    109          6           0       14.026833    5.466487   -0.257864
    110          6           0       14.807296    6.245015   -1.266199
    111          7           0       12.954520    0.443583   -0.679232
    112          6           0       13.989550    1.251587   -1.116543
    113          6           0       15.118274    0.436880   -1.606331
    114          6           0       14.752481   -0.892589   -1.161523
    115          6           0       13.469168   -0.795380   -0.614977
    116          6           0       16.389169    0.851201   -2.300097
    117          6           0       15.227379   -2.307577   -1.144473
    118          8           0       16.278727   -2.780742   -1.470105
    119          6           0       14.144285   -3.066757   -0.384913
    120          6           0       13.696535   -4.209325   -1.246763
    121          8           0       13.125055   -3.967218   -2.288123
    122          8           0       13.898444   -5.516011   -0.709322
    123          6           0       13.274016   -6.648855   -1.457682
    124          1           0        7.721504   -1.611881    1.926546
    125          1           0        9.009953    4.670308    1.043770
    126          1           0       14.610084    3.233391   -1.584147
    127          1           0       11.210411   -4.436465    0.361898
    128          1           0        9.241390   -3.552115    2.173029
    129          1           0        8.889650   -3.138188   -0.787769
    130          1           0        7.774395   -3.908995    0.437555
    131          1           0        9.039847   -4.787416   -0.367919
    132          1           0       11.274304   -3.840250    3.168046
    133          1           0       12.772038   -3.358870    2.486655
    134          1           0       13.334002   -5.516143    2.856252
    135          1           0       12.370692   -6.067960    1.506598
    136          1           0        5.102072    0.297087    1.930300
    137          1           0        5.498482    1.087176    3.409232
    138          1           0        6.012109   -0.570970    3.182053
    139          1           0        5.796852    5.666891    2.211910
    140          1           0        6.795038    5.191110    0.841107
    141          1           0        7.490212    5.384043    2.388090
    142          1           0       11.537210    5.411554    1.132199
    143          1           0       12.491742    4.984882   -1.774133
    144          1           0        9.677457    6.001975   -1.015474
    145          1           0       11.187770    7.002267   -1.074089
    146          1           0       10.230677    6.994814    0.349119
    147          1           0       14.676463    4.693498    0.152579
    148          1           0       13.796012    6.071165    0.619069
    149          1           0       15.690959    5.673993   -1.550336
    150          1           0       15.145518    7.181191   -0.822243
    151          1           0       14.307668    6.507134   -2.198561
    152          1           0       16.827183    0.015989   -2.846216
    153          1           0       17.060237    1.213895   -1.520991
    154          1           0       16.163743    1.725007   -2.911716
    155          1           0       14.553876   -3.327962    0.590964
    156          1           0       13.895442   -6.892261   -2.319642
    157          1           0       12.302200   -6.361467   -1.858470
    158          1           0       13.137429   -7.513197   -0.808077
 ---------------------------------------------------------------------

 SCF Done:  E(RwB97XD) =  -4070.60979348     A.U. after   18 cycles

 Excitation energies and oscillator strengths:

 Excited State   1:      Singlet-A      1.6113 eV  769.46 nm  f=0.4257  <S**2>=0.000
     309 -> 316        0.17516
     312 -> 313        0.68607
     309 <- 316        0.11590
 This state for optimization and/or second-order correction.
 Total Energy, E(TD-HF/TD-DFT) =  -4070.55057900
 Copying the excited state density for this state as the 1-particle RhoCI density.

 Excited State   2:      Singlet-A      1.8694 eV  663.23 nm  f=0.3683  <S**2>=0.000
     310 -> 315        0.14192
     311 -> 314        0.68579

 Excited State   3:      Singlet-A      2.1829 eV  567.99 nm  f=0.1190  <S**2>=0.000
     309 -> 313        0.63900
     312 -> 316       -0.28449

 Excited State   4:      Singlet-A      2.2251 eV  557.20 nm  f=0.1277  <S**2>=0.000
     310 -> 314        0.64368
     311 -> 315       -0.24659
     311 -> 317        0.10846

 Excited State   5:      Singlet-A      3.1460 eV  394.10 nm  f=0.0019  <S**2>=0.000
     305 -> 313       -0.11408
     308 -> 313        0.66995
     312 -> 316        0.10267

 The electronic state is 1-A.
 Alpha  occ. eigenvalues --  -46.95706 -46.95533 -19.30402 -19.29619 -19.25562
 Alpha  occ. eigenvalues --  -19.25308 -19.24667 -19.24664 -19.22796 -19.22585
 Alpha  occ. eigenvalues --  -14.47272 -14.46868 -14.46583 -14.46131 -14.45173
 Alpha  occ. eigenvalues --  -14.43806 -14.43604 -14.42960 -10.43998 -10.42824
 Alpha  occ. eigenvalues --  -10.41064 -10.39318 -10.38277 -10.37295 -10.37226
 Alpha  occ. eigenvalues --  -10.36475 -10.35933 -10.35780 -10.35294 -10.35202
 Alpha  occ. eigenvalues --  -10.35194 -10.34777 -10.34576 -10.34342 -10.34300
 Alpha  occ. eigenvalues --  -10.34172 -10.34140 -10.34038 -10.33721 -10.33375
 Alpha  occ. eigenvalues --  -10.33343 -10.33121 -10.32975 -10.32780 -10.32720
 Alpha  occ. eigenvalues --  -10.32645 -10.32557 -10.32450 -10.32369 -10.32249
 Alpha  occ. eigenvalues --  -10.32204 -10.32164 -10.32071 -10.31969 -10.31934
 Alpha  occ. eigenvalues --  -10.31697 -10.31523 -10.31506 -10.31326 -10.31161
 Alpha  occ. eigenvalues --  -10.31122 -10.31052 -10.31022 -10.30991 -10.30907
 Alpha  occ. eigenvalues --  -10.30889 -10.30784 -10.30749 -10.30737 -10.30730
 Alpha  occ. eigenvalues --  -10.30718 -10.30457 -10.30441 -10.30380 -10.30271
 Alpha  occ. eigenvalues --  -10.30243 -10.30155 -10.29839 -10.29762 -10.29577
 Alpha  occ. eigenvalues --  -10.29577 -10.29489 -10.29438 -10.29095 -10.29005
 Alpha  occ. eigenvalues --  -10.26936  -3.21600  -3.21565  -1.95169  -1.95096
 Alpha  occ. eigenvalues --   -1.94725  -1.94687  -1.94571  -1.94538  -1.17486
 Alpha  occ. eigenvalues --   -1.17415  -1.13870  -1.12224  -1.11866  -1.11405
 Alpha  occ. eigenvalues --   -1.09987  -1.09964  -1.06559  -1.06444  -1.05823
 Alpha  occ. eigenvalues --   -1.05457  -1.05233  -1.04667  -1.04489  -1.03400
 Alpha  occ. eigenvalues --   -0.94625  -0.93413  -0.91141  -0.90984  -0.90633
 Alpha  occ. eigenvalues --   -0.90309  -0.90218  -0.89904  -0.89401  -0.88956
 Alpha  occ. eigenvalues --   -0.88656  -0.88035  -0.87660  -0.87442  -0.86360
 Alpha  occ. eigenvalues --   -0.86265  -0.85731  -0.85499  -0.85084  -0.84280
 Alpha  occ. eigenvalues --   -0.83941  -0.83589  -0.82565  -0.82365  -0.82094
 Alpha  occ. eigenvalues --   -0.82043  -0.79963  -0.79541  -0.79295  -0.79054
 Alpha  occ. eigenvalues --   -0.78612  -0.78599  -0.78131  -0.77208  -0.77038
 Alpha  occ. eigenvalues --   -0.77027  -0.74511  -0.74300  -0.73628  -0.73621
 Alpha  occ. eigenvalues --   -0.71614  -0.71329  -0.71051  -0.70766  -0.69797
 Alpha  occ. eigenvalues --   -0.69791  -0.69326  -0.68546  -0.67730  -0.67502
 Alpha  occ. eigenvalues --   -0.67346  -0.66933  -0.66650  -0.66420  -0.66184
 Alpha  occ. eigenvalues --   -0.65974  -0.64224  -0.63610  -0.61987  -0.61667
 Alpha  occ. eigenvalues --   -0.61379  -0.61375  -0.61051  -0.60985  -0.60918
 Alpha  occ. eigenvalues --   -0.60422  -0.60196  -0.59703  -0.59494  -0.59267
 Alpha  occ. eigenvalues --   -0.58417  -0.58349  -0.57476  -0.57352  -0.57286
 Alpha  occ. eigenvalues --   -0.56911  -0.56113  -0.56034  -0.55878  -0.55710
 Alpha  occ. eigenvalues --   -0.55614  -0.55211  -0.55184  -0.55063  -0.54931
 Alpha  occ. eigenvalues --   -0.54726  -0.54649  -0.54043  -0.53898  -0.53638
 Alpha  occ. eigenvalues --   -0.53526  -0.53446  -0.53112  -0.52923  -0.52877
 Alpha  occ. eigenvalues --   -0.52710  -0.52613  -0.52449  -0.52215  -0.52083
 Alpha  occ. eigenvalues --   -0.51916  -0.51739  -0.51688  -0.51679  -0.51541
 Alpha  occ. eigenvalues --   -0.51360  -0.51089  -0.50925  -0.50883  -0.50555
 Alpha  occ. eigenvalues --   -0.50483  -0.50394  -0.50335  -0.50078  -0.49964
 Alpha  occ. eigenvalues --   -0.49477  -0.49474  -0.49234  -0.49122  -0.48878
 Alpha  occ. eigenvalues --   -0.48804  -0.48458  -0.48229  -0.48204  -0.48072
 Alpha  occ. eigenvalues --   -0.47987  -0.47975  -0.47867  -0.47851  -0.47766
 Alpha  occ. eigenvalues --   -0.47613  -0.47075  -0.47072  -0.47055  -0.46906
 Alpha  occ. eigenvalues --   -0.46767  -0.46739  -0.46548  -0.46459  -0.46213
 Alpha  occ. eigenvalues --   -0.45794  -0.45583  -0.45446  -0.45435  -0.45276
 Alpha  occ. eigenvalues --   -0.45258  -0.45095  -0.45036  -0.44729  -0.44678
 Alpha  occ. eigenvalues --   -0.44425  -0.44404  -0.44394  -0.44365  -0.44272
 Alpha  occ. eigenvalues --   -0.44031  -0.43923  -0.43700  -0.43451  -0.43386
 Alpha  occ. eigenvalues --   -0.42891  -0.42599  -0.42592  -0.42345  -0.42284
 Alpha  occ. eigenvalues --   -0.42029  -0.42026  -0.41711  -0.41179  -0.41060
 Alpha  occ. eigenvalues --   -0.40839  -0.40293  -0.39952  -0.39519  -0.39224
 Alpha  occ. eigenvalues --   -0.39221  -0.39036  -0.38547  -0.38480  -0.38252
 Alpha  occ. eigenvalues --   -0.37642  -0.37225  -0.36877  -0.36336  -0.36256
 Alpha  occ. eigenvalues --   -0.36076  -0.35319  -0.35283  -0.34437  -0.34082
 Alpha  occ. eigenvalues --   -0.33505  -0.33185  -0.33014  -0.32223  -0.31725
 Alpha  occ. eigenvalues --   -0.31535  -0.31094  -0.30762  -0.26089  -0.25998
 Alpha  occ. eigenvalues --   -0.23294  -0.22781
 Alpha virt. eigenvalues --   -0.07202  -0.06687   0.00200   0.00572   0.02230
 Alpha virt. eigenvalues --    0.02861   0.04154   0.04379   0.04971   0.04977
 Alpha virt. eigenvalues --    0.06633   0.07028   0.07669   0.08111   0.08242

 Mulliken charges:
               1
     1  Mg   0.966560
     2  C   -0.041479
     3  C   -0.128864
     4  C   -0.109040
     5  C   -0.042015
     6  N   -0.332917
     7  C   -0.011462
     8  C   -0.074731
     9  C   -0.075893
    10  C    0.063490
    11  C    0.034921
    12  C    0.028434
    13  C   -0.107075
    14  H    0.024478
    15  N   -0.466173
    16  C    0.186045
    17  C   -0.153076
    18  C   -0.065571
    19  C    0.142217
    20  C    0.072296
    21  C    0.052351
    22  O   -0.254118
    23  C    0.003687
    24  N   -0.330898
    25  C    0.128465
    26  C   -0.083383
    27  C   -0.090954
    28  C    0.027235
    29  C    0.020538
    30  C    0.009821
    31  C   -0.034510
    32  N   -0.438632
    33  C    0.046145
    34  C   -0.148022
    35  C    0.002842
    36  C    0.157966
    37  C    0.059535
    38  C    0.058046
    39  O   -0.194542
    40  C   -0.117818
    41  C    0.296934
    42  O   -0.238765
    43  O   -0.364191
    44  C    0.141237
    45  H   -0.003673
    46  H   -0.019592
    47  H   -0.016742
    48  H    0.023214
    49  H    0.032685
    50  H    0.024977
    51  H    0.044537
    52  H    0.053828
    53  H    0.020193
    54  H    0.052837
    55  H    0.048333
    56  H    0.048608
    57  H    0.019511
    58  H    0.064543
    59  H    0.059372
    60  H    0.061855
    61  H    0.091271
    62  H    0.054953
    63  H    0.038330
    64  H    0.031509
    65  H    0.030188
    66  H    0.041529
    67  H    0.029066
    68  H    0.042187
    69  H    0.025707
    70  H    0.032437
    71  H    0.042979
    72  H    0.051916
    73  H    0.059011
    74  H    0.038391
    75  H    0.040595
    76  H    0.054704
    77  H    0.058761
    78  H    0.060652
    79  H    0.042217
    80  Mg   0.981511
    81  C   -0.076451
    82  C   -0.053886
    83  C   -0.079952
    84  C   -0.124565
    85  N   -0.312967
    86  C   -0.016008
    87  C   -0.065987
    88  C   -0.119803
    89  C    0.048997
    90  C    0.041468
    91  C    0.037411
    92  C   -0.107493
    93  H    0.023323
    94  N   -0.419772
    95  C    0.112542
    96  C   -0.143475
    97  C   -0.073553
    98  C    0.168759
    99  C    0.081087
   100  C    0.035611
   101  O   -0.233916
   102  C   -0.012013
   103  N   -0.451763
   104  C    0.092277
   105  C   -0.128710
   106  C   -0.033705
   107  C    0.089081
   108  C    0.013846
   109  C    0.001181
   110  C   -0.047177
   111  N   -0.441901
   112  C    0.135132
   113  C   -0.189684
   114  C   -0.106424
   115  C    0.177976
   116  C    0.090749
   117  C    0.132514
   118  O   -0.174463
   119  C   -0.015170
   120  C    0.278245
   121  O   -0.234367
   122  O   -0.405034
   123  C    0.133364
   124  H   -0.005782
   125  H   -0.037509
   126  H   -0.012122
   127  H    0.025562
   128  H    0.028677
   129  H    0.043464
   130  H    0.042986
   131  H    0.036613
   132  H    0.037308
   133  H    0.040524
   134  H    0.055314
   135  H    0.048078
   136  H    0.056834
   137  H    0.053994
   138  H    0.036706
   139  H    0.051438
   140  H    0.050144
   141  H    0.057519
   142  H    0.051375
   143  H    0.033534
   144  H    0.045084
   145  H    0.038125
   146  H    0.030960
   147  H    0.038530
   148  H    0.025203
   149  H    0.036144
   150  H    0.036681
   151  H    0.035796
   152  H    0.071370
   153  H    0.053590
   154  H    0.034283
   155  H    0.072514
   156  H    0.063629
   157  H    0.051637
   158  H    0.064962
 Sum of Mulliken charges =  -0.00000

 Dipole moment (field-independent basis, Debye):
    X=             -3.8657    Y=              3.5382    Z=             -1.2639  Tot=              5.3907
 Quadrupole moment (field-independent basis, Debye-Ang):
   XX=           -487.1948   YY=           -430.5539   ZZ=           -515.1322
   XY=             11.3871   XZ=             30.4624   YZ=             -9.4911

 Normal termination of Gaussian 16 at Sun Sep 19 12:04:37 2021.
