 Gaussian 16, Revision A.03,
 Gaussian 16:  ES64L-G16RevA.03 25-Dec-2016

 --------------------------------
 #p wB97XD/Def2SVP td=(nstates=5)
 --------------------------------

 --------------------------------
 TDDFT excited states in gaussian
 --------------------------------
 Symbolic Z-matrix:
 Charge =  0 Multiplicity = 1

                         Standard orientation:
 ---------------------------------------------------------------------
 Center     Atomic      Atomic             Coordinates (Angstroms)
 Number     Number       Type             X           Y           Z
 ---------------------------------------------------------------------
      1         12           0      -17.809904   -0.676301    0.137971
      2          6           0      -17.446932    2.726432   -0.269081
      3          6           0      -16.875901   -0.248624    3.401677
      4          6           0      -17.879749   -4.035909    0.473484
      5          6           0      -18.170905   -1.052291   -3.299679
      6          7           0      -17.094265    1.113992    1.339483
      7          6           0      -17.219807    2.350897    1.046560
      8          6           0      -16.893768    3.408365    2.222928
      9          6           0      -16.415901    2.375437    3.318516
     10          6           0      -16.727552    0.953976    2.648745
     11          6           0      -14.836079    2.423044    3.663456
     12          6           0      -18.114817    4.317177    2.682719
     13          6           0      -17.794634    5.764488    3.199817
     14          1           0      -16.352960    6.081190    3.460396
     15          7           0      -17.517446   -1.934172    1.684879
     16          6           0      -17.202809   -1.571744    3.053390
     17          6           0      -17.180805   -2.802708    3.836670
     18          6           0      -17.358252   -3.919222    2.982060
     19          6           0      -17.641666   -3.322455    1.657233
     20          6           0      -17.007194   -2.664391    5.306355
     21          6           0      -17.406573   -5.435400    3.283945
     22          8           0      -17.463365   -6.307752    2.469087
     23          6           0      -17.186545   -5.809962    4.763594
     24          7           0      -17.890280   -2.379875   -1.200971
     25          6           0      -17.903356   -3.629792   -0.860659
     26          6           0      -17.784046   -4.564809   -2.097487
     27          6           0      -17.991938   -3.614448   -3.300991
     28          6           0      -18.043550   -2.243476   -2.586476
     29          6           0      -16.428029   -5.302118   -2.106838
     30          6           0      -19.256270   -3.978096   -4.138485
     31          6           0      -19.134943   -5.263774   -4.972447
     32          7           0      -17.817320    0.566256   -1.509051
     33          6           0      -18.079305    0.264341   -2.833609
     34          6           0      -18.109222    1.517277   -3.541195
     35          6           0      -17.826540    2.564794   -2.614204
     36          6           0      -17.699237    1.866670   -1.382453
     37          6           0      -18.315248    1.658469   -4.935852
     38          6           0      -17.708957    3.968249   -2.376897
     39          8           0      -17.717710    4.913235   -3.220996
     40          6           0      -17.338549    4.097118   -0.848491
     41          6           0      -16.048663    4.748995   -0.770801
     42          8           0      -14.969396    4.174649   -0.912427
     43          8           0      -16.282826    6.096996   -0.672895
     44          6           0      -15.061400    6.911544   -0.845381
     45          1           0      -16.556065   -0.146673    4.440353
     46          1           0      -17.911422   -5.111486    0.663074
     47          1           0      -18.359006   -1.219213   -4.362757
     48          1           0      -16.039546    3.962839    1.833552
     49          1           0      -16.944503    2.551982    4.255063
     50          1           0      -14.326634    2.916263    2.835140
     51          1           0      -14.455486    1.408463    3.780228
     52          1           0      -14.556601    2.941896    4.580981
     53          1           0      -18.548764    3.758193    3.511345
     54          1           0      -18.994820    4.307707    2.038677
     55          1           0      -18.329308    6.034114    4.110520
     56          1           0      -18.062579    6.483646    2.425735
     57          1           0      -15.949885   -2.594667    5.563567
     58          1           0      -17.581759   -3.396276    5.874264
     59          1           0      -17.479176   -1.724072    5.590202
     60          1           0      -18.036808   -5.606847    5.415415
     61          1           0      -16.314279   -5.204669    5.008246
     62          1           0      -16.880368   -6.838378    4.952883
     63          1           0      -18.638555   -5.228970   -1.970077
     64          1           0      -17.097578   -3.614141   -3.924020
     65          1           0      -15.619773   -4.813873   -1.561936
     66          1           0      -15.928501   -5.444129   -3.065749
     67          1           0      -16.629085   -6.275841   -1.660231
     68          1           0      -19.442188   -3.179434   -4.855254
     69          1           0      -20.124261   -4.050431   -3.482280
     70          1           0      -18.181405   -5.728778   -4.722133
     71          1           0      -18.957089   -4.991214   -6.012834
     72          1           0      -19.963396   -5.971713   -4.975442
     73          1           0      -19.143573    0.985338   -5.157262
     74          1           0      -17.489581    1.355888   -5.579709
     75          1           0      -18.462968    2.715866   -5.157784
     76          1           0      -18.103407    4.776412   -0.471206
     77          1           0      -14.748266    6.768794   -1.880013
     78          1           0      -14.316656    6.696290   -0.079858
     79          1           0      -15.350347    7.955283   -0.721030
     80         12           0       17.674162   -0.828365    0.104833
     81          6           0       15.923224    2.449258    0.174973
     82          6           0       20.486677    1.045052    0.167923
     83          6           0       19.056600   -3.658870   -0.248341
     84          6           0       14.517702   -2.224282   -0.768150
     85          7           0       18.108051    1.464269    0.111936
     86          6           0       17.260973    2.538973    0.323218
     87          6           0       17.971487    3.856718    0.652976
     88          6           0       19.410185    3.469688    0.190697
     89          6           0       19.375162    1.893382    0.135533
     90          6           0       19.839560    4.057195   -1.116735
     91          6           0       17.844919    4.390748    2.119162
     92          6           0       17.880099    5.866916    2.334596
     93          1           0       18.602582    6.324739    3.597620
     94          7           0       19.572491   -1.289533    0.019081
     95          6           0       20.644198   -0.378055    0.121419
     96          6           0       21.855127   -1.140022    0.225943
     97          6           0       21.393086   -2.527091    0.260919
     98          6           0       19.996043   -2.505704    0.016705
     99          6           0       23.289459   -0.533264    0.450400
    100          6           0       22.264048   -3.722139    0.500929
    101          8           0       21.815115   -4.893410    0.456325
    102          6           0       23.702093   -3.622437    0.858255
    103          7           0       16.984328   -2.657839   -0.578674
    104          6           0       17.768027   -3.737137   -0.622051
    105          6           0       17.022868   -5.045088   -1.040459
    106          6           0       15.548005   -4.585222   -0.738358
    107          6           0       15.663095   -3.036266   -0.733692
    108          6           0       17.223725   -5.382035   -2.553048
    109          6           0       15.034097   -5.096639    0.672692
    110          6           0       15.111235   -6.600970    1.008007
    111          7           0       15.625634   -0.089217   -0.191166
    112          6           0       14.473435   -0.813680   -0.474574
    113          6           0       13.349135    0.086310   -0.582680
    114          6           0       13.862814    1.358287   -0.299463
    115          6           0       15.271202    1.231956   -0.149595
    116          6           0       11.919824   -0.287065   -0.790031
    117          6           0       13.496546    2.760096   -0.145577
    118          8           0       12.435286    3.369130   -0.173180
    119          6           0       14.886938    3.472033    0.268370
    120          6           0       15.027396    4.605622   -0.629383
    121          8           0       15.143520    4.568237   -1.864453
    122          8           0       14.576059    5.713875    0.028330
    123          6           0       14.542740    6.967832   -0.653538
    124          1           0       21.343811    1.700123    0.338257
    125          1           0       19.490508   -4.652830   -0.374232
    126          1           0       13.574713   -2.713036   -1.023321
    127          1           0       17.574583    4.612042   -0.025630
    128          1           0       20.133575    3.676310    0.978884
    129          1           0       19.822498    3.249273   -1.848249
    130          1           0       20.874411    4.391903   -1.046393
    131          1           0       19.242320    4.876004   -1.517449
    132          1           0       18.699864    3.999907    2.670163
    133          1           0       16.951295    3.940650    2.550705
    134          1           0       16.826900    6.136749    2.409824
    135          1           0       18.151504    6.415908    1.432799
    136          1           0       23.699445   -0.654246    1.452648
    137          1           0       23.331186    0.511628    0.144060
    138          1           0       23.873347   -1.098925   -0.276750
    139          1           0       24.260069   -3.363860   -0.042054
    140          1           0       23.984939   -4.614108    1.212417
    141          1           0       23.767694   -2.905896    1.676339
    142          1           0       17.422120   -5.831543   -0.399114
    143          1           0       14.805702   -4.856363   -1.488458
    144          1           0       17.818269   -6.295300   -2.587479
    145          1           0       17.658317   -4.591316   -3.163738
    146          1           0       16.200458   -5.597709   -2.863736
    147          1           0       13.971129   -4.870566    0.753458
    148          1           0       15.530429   -4.473490    1.416416
    149          1           0       15.728330   -6.650796    1.904995
    150          1           0       15.653809   -7.031872    0.166069
    151          1           0       14.132426   -7.037663    1.205760
    152          1           0       11.896046   -1.363144   -0.616485
    153          1           0       11.697790   -0.056290   -1.831887
    154          1           0       11.218402    0.277237   -0.175507
    155          1           0       14.832335    3.801876    1.305670
    156          1           0       14.935616    6.887771   -1.667355
    157          1           0       15.213007    7.614154   -0.086734
    158          1           0       13.558751    7.429529   -0.585166
 ---------------------------------------------------------------------

 SCF Done:  E(RwB97XD) =  -4070.61931159     A.U. after   19 cycles

 Excitation energies and oscillator strengths:

 Excited State   1:      Singlet-A      1.6008 eV  774.50 nm  f=0.3895  <S**2>=0.000
     309 -> 316       -0.16170
     311 -> 313        0.68933
     309 <- 316       -0.11299
 This state for optimization and/or second-order correction.
 Total Energy, E(TD-HF/TD-DFT) =  -4070.56048186
 Copying the excited state density for this state as the 1-particle RhoCI density.

 Excited State   2:      Singlet-A      1.7221 eV  719.95 nm  f=0.3794  <S**2>=0.000
     310 -> 315       -0.20376
     312 -> 314        0.67764
     310 <- 315       -0.11868

 Excited State   3:      Singlet-A      2.1247 eV  583.55 nm  f=0.2084  <S**2>=0.000
     309 -> 313        0.66537
     311 -> 316        0.22067

 Excited State   4:      Singlet-A      2.1613 eV  573.66 nm  f=0.1097  <S**2>=0.000
     310 -> 314        0.64084
     312 -> 315        0.28350

 Excited State   5:      Singlet-A      3.1830 eV  389.52 nm  f=0.0051  <S**2>=0.000
     304 -> 313        0.17954
     306 -> 313        0.66152

 The electronic state is 1-A.
 Alpha  occ. eigenvalues --  -46.95232 -46.94712 -19.30045 -19.29969 -19.25173
 Alpha  occ. eigenvalues --  -19.24988 -19.24393 -19.24197 -19.23253 -19.22439
 Alpha  occ. eigenvalues --  -14.46929 -14.46758 -14.46074 -14.45996 -14.44307
 Alpha  occ. eigenvalues --  -14.44271 -14.44189 -14.43468 -10.43010 -10.42341
 Alpha  occ. eigenvalues --  -10.40240 -10.40046 -10.38745 -10.37920 -10.35899
 Alpha  occ. eigenvalues --  -10.35452 -10.34948 -10.34843 -10.34787 -10.34778
 Alpha  occ. eigenvalues --  -10.34769 -10.34732 -10.34685 -10.34475 -10.34440
 Alpha  occ. eigenvalues --  -10.34433 -10.34407 -10.34275 -10.33837 -10.33594
 Alpha  occ. eigenvalues --  -10.33201 -10.33118 -10.33111 -10.33029 -10.32971
 Alpha  occ. eigenvalues --  -10.32908 -10.32850 -10.32387 -10.32263 -10.32213
 Alpha  occ. eigenvalues --  -10.32177 -10.32159 -10.32101 -10.32053 -10.32035
 Alpha  occ. eigenvalues --  -10.31992 -10.31814 -10.31701 -10.31700 -10.31609
 Alpha  occ. eigenvalues --  -10.31553 -10.31534 -10.31407 -10.31122 -10.31116
 Alpha  occ. eigenvalues --  -10.31112 -10.31001 -10.30987 -10.30765 -10.30636
 Alpha  occ. eigenvalues --  -10.30453 -10.30319 -10.30138 -10.30079 -10.29994
 Alpha  occ. eigenvalues --  -10.29777 -10.29635 -10.29614 -10.29551 -10.29491
 Alpha  occ. eigenvalues --  -10.29431 -10.29372 -10.29344 -10.29168 -10.28434
 Alpha  occ. eigenvalues --  -10.28426  -3.21334  -3.20755  -1.94893  -1.94456
 Alpha  occ. eigenvalues --   -1.94339  -1.94322  -1.93886  -1.93728  -1.18730
 Alpha  occ. eigenvalues --   -1.17633  -1.14734  -1.12506  -1.09631  -1.09359
 Alpha  occ. eigenvalues --   -1.09221  -1.08908  -1.07361  -1.06922  -1.06270
 Alpha  occ. eigenvalues --   -1.06050  -1.05659  -1.05438  -1.04589  -1.02909
 Alpha  occ. eigenvalues --   -0.95705  -0.94456  -0.91411  -0.91162  -0.90674
 Alpha  occ. eigenvalues --   -0.90240  -0.89951  -0.89687  -0.89386  -0.89354
 Alpha  occ. eigenvalues --   -0.88860  -0.88782  -0.88761  -0.88174  -0.86627
 Alpha  occ. eigenvalues --   -0.85971  -0.85816  -0.85312  -0.85019  -0.84189
 Alpha  occ. eigenvalues --   -0.84014  -0.83613  -0.83027  -0.82953  -0.82776
 Alpha  occ. eigenvalues --   -0.82207  -0.80504  -0.80501  -0.79413  -0.79263
 Alpha  occ. eigenvalues --   -0.79210  -0.78253  -0.78164  -0.77625  -0.77378
 Alpha  occ. eigenvalues --   -0.76734  -0.75356  -0.74156  -0.73409  -0.72893
 Alpha  occ. eigenvalues --   -0.71279  -0.71208  -0.70698  -0.70588  -0.70171
 Alpha  occ. eigenvalues --   -0.70125  -0.68971  -0.68909  -0.67714  -0.67649
 Alpha  occ. eigenvalues --   -0.67274  -0.67080  -0.66893  -0.66733  -0.66454
 Alpha  occ. eigenvalues --   -0.66042  -0.64045  -0.63499  -0.62731  -0.62012
 Alpha  occ. eigenvalues --   -0.61778  -0.61492  -0.61332  -0.61048  -0.60834
 Alpha  occ. eigenvalues --   -0.60383  -0.60230  -0.59818  -0.59693  -0.59591
 Alpha  occ. eigenvalues --   -0.57955  -0.57851  -0.57599  -0.57554  -0.57130
 Alpha  occ. eigenvalues --   -0.56854  -0.56609  -0.56412  -0.56093  -0.55852
 Alpha  occ. eigenvalues --   -0.55658  -0.55280  -0.55178  -0.55084  -0.54874
 Alpha  occ. eigenvalues --   -0.54768  -0.54650  -0.54463  -0.54345  -0.53978
 Alpha  occ. eigenvalues --   -0.53768  -0.53692  -0.53343  -0.53214  -0.53178
 Alpha  occ. eigenvalues --   -0.53040  -0.52930  -0.52817  -0.52621  -0.52327
 Alpha  occ. eigenvalues --   -0.52214  -0.51836  -0.51814  -0.51633  -0.51442
 Alpha  occ. eigenvalues --   -0.51286  -0.51152  -0.51029  -0.50806  -0.50645
 Alpha  occ. eigenvalues --   -0.50454  -0.50341  -0.50247  -0.50095  -0.50067
 Alpha  occ. eigenvalues --   -0.49780  -0.49721  -0.49667  -0.49511  -0.49164
 Alpha  occ. eigenvalues --   -0.48938  -0.48539  -0.48447  -0.48347  -0.48334
 Alpha  occ. eigenvalues --   -0.48136  -0.48118  -0.47926  -0.47889  -0.47503
 Alpha  occ. eigenvalues --   -0.47371  -0.47041  -0.47030  -0.46913  -0.46735
 Alpha  occ. eigenvalues --   -0.46733  -0.46289  -0.46279  -0.46174  -0.46045
 Alpha  occ. eigenvalues --   -0.45913  -0.45707  -0.45662  -0.45428  -0.45174
 Alpha  occ. eigenvalues --   -0.45135  -0.45054  -0.44851  -0.44757  -0.44639
 Alpha  occ. eigenvalues --   -0.44589  -0.44522  -0.44179  -0.44030  -0.43908
 Alpha  occ. eigenvalues --   -0.43623  -0.43594  -0.43594  -0.43349  -0.43232
 Alpha  occ. eigenvalues --   -0.43057  -0.42651  -0.42582  -0.42493  -0.42081
 Alpha  occ. eigenvalues --   -0.41738  -0.41670  -0.41367  -0.41235  -0.41227
 Alpha  occ. eigenvalues --   -0.40471  -0.40158  -0.40100  -0.39857  -0.39681
 Alpha  occ. eigenvalues --   -0.39498  -0.39226  -0.39018  -0.38516  -0.38399
 Alpha  occ. eigenvalues --   -0.38200  -0.37852  -0.36619  -0.36265  -0.36257
 Alpha  occ. eigenvalues --   -0.35835  -0.35582  -0.35391  -0.33786  -0.33776
 Alpha  occ. eigenvalues --   -0.33435  -0.33314  -0.32408  -0.32240  -0.32236
 Alpha  occ. eigenvalues --   -0.32067  -0.31764  -0.31270  -0.26170  -0.25561
 Alpha  occ. eigenvalues --   -0.23543  -0.23020
 Alpha virt. eigenvalues --   -0.08019  -0.06731   0.00257   0.01145   0.02060
 Alpha virt. eigenvalues --    0.02363   0.04236   0.04285   0.04946   0.05735
 Alpha virt. eigenvalues --    0.06108   0.07650   0.07690   0.08310   0.08324

 Mulliken charges:
               1
     1  Mg   0.972933
     2  C    0.036814
     3  C   -0.076556
     4  C   -0.083512
     5  C   -0.099884
     6  N   -0.274771
     7  C   -0.097138
     8  C   -0.014365
     9  C   -0.137558
    10  C    0.065951
    11  C    0.000628
    12  C    0.023650
    13  C   -0.131719
    14  H    0.035276
    15  N   -0.532139
    16  C    0.160579
    17  C   -0.146718
    18  C   -0.099975
    19  C    0.147786
    20  C    0.050108
    21  C    0.084598
    22  O   -0.192573
    23  C   -0.045065
    24  N   -0.332432
    25  C    0.040039
    26  C   -0.054390
    27  C   -0.067615
    28  C    0.054789
    29  C    0.016560
    30  C   -0.022519
    31  C   -0.039125
    32  N   -0.427719
    33  C    0.163713
    34  C   -0.180242
    35  C    0.016162
    36  C    0.116521
    37  C    0.057388
    38  C    0.086162
    39  O   -0.253822
    40  C   -0.075552
    41  C    0.267924
    42  O   -0.262063
    43  O   -0.366901
    44  C    0.144951
    45  H   -0.003084
    46  H    0.012701
    47  H   -0.006255
    48  H    0.049167
    49  H    0.040243
    50  H    0.048230
    51  H    0.038272
    52  H    0.039847
    53  H    0.016271
    54  H    0.039502
    55  H    0.057624
    56  H    0.064735
    57  H    0.067870
    58  H    0.043804
    59  H    0.042705
    60  H    0.070830
    61  H    0.053219
    62  H    0.049620
    63  H    0.038193
    64  H    0.035351
    65  H    0.043628
    66  H    0.034039
    67  H    0.050511
    68  H    0.028768
    69  H    0.032065
    70  H    0.024466
    71  H    0.026129
    72  H    0.050534
    73  H    0.038254
    74  H    0.050070
    75  H    0.057922
    76  H    0.063341
    77  H    0.068141
    78  H    0.056097
    79  H    0.049012
    80  Mg   0.983645
    81  C   -0.013752
    82  C   -0.065880
    83  C   -0.042945
    84  C   -0.083005
    85  N   -0.296703
    86  C   -0.036540
    87  C   -0.083951
    88  C   -0.102319
    89  C   -0.016806
    90  C    0.047877
    91  C    0.043110
    92  C   -0.116508
    93  H    0.053818
    94  N   -0.496827
    95  C    0.190287
    96  C   -0.170702
    97  C   -0.082115
    98  C    0.148083
    99  C    0.071648
   100  C    0.008493
   101  O   -0.274960
   102  C    0.010248
   103  N   -0.391906
   104  C    0.045122
   105  C   -0.110631
   106  C   -0.102322
   107  C    0.088985
   108  C    0.051799
   109  C   -0.033940
   110  C   -0.032692
   111  N   -0.399989
   112  C    0.123039
   113  C   -0.202520
   114  C   -0.040091
   115  C    0.129334
   116  C    0.087873
   117  C    0.156499
   118  O   -0.192205
   119  C   -0.059953
   120  C    0.245435
   121  O   -0.268726
   122  O   -0.350398
   123  C    0.133701
   124  H   -0.007717
   125  H    0.013668
   126  H    0.005038
   127  H    0.033333
   128  H    0.025401
   129  H    0.044503
   130  H    0.034239
   131  H    0.048420
   132  H    0.032010
   133  H    0.031260
   134  H    0.048031
   135  H    0.042927
   136  H    0.068014
   137  H    0.040305
   138  H    0.043069
   139  H    0.063893
   140  H    0.055037
   141  H    0.045387
   142  H    0.047110
   143  H    0.025454
   144  H    0.046361
   145  H    0.060266
   146  H    0.027983
   147  H    0.024672
   148  H    0.033406
   149  H    0.042527
   150  H    0.036210
   151  H    0.048597
   152  H    0.031159
   153  H    0.060088
   154  H    0.065049
   155  H    0.071907
   156  H    0.066095
   157  H    0.033711
   158  H    0.061975
 Sum of Mulliken charges =  -0.00000

 Dipole moment (field-independent basis, Debye):
    X=              1.3632    Y=             -0.8363    Z=              6.7667  Tot=              6.9531
 Quadrupole moment (field-independent basis, Debye-Ang):
   XX=           -388.3339   YY=           -509.6513   ZZ=           -486.1641
   XY=             77.6753   XZ=            -36.6867   YZ=             34.2029

 Normal termination of Gaussian 16 at Mon Sep 20 08:30:41 2021.
