 Gaussian 16, Revision A.03,
 Gaussian 16:  ES64L-G16RevA.03 25-Dec-2016

 --------------------------------
 #p wB97XD/Def2SVP td=(nstates=5)
 --------------------------------

 --------------------------------
 TDDFT excited states in gaussian
 --------------------------------
 Symbolic Z-matrix:
 Charge =  0 Multiplicity = 1

                         Standard orientation:
 ---------------------------------------------------------------------
 Center     Atomic      Atomic             Coordinates (Angstroms)
 Number     Number       Type             X           Y           Z
 ---------------------------------------------------------------------
      1         12           0       22.019403   -0.676792    0.395776
      2          6           0       22.001177    2.290888   -1.437437
      3          6           0       22.310526    1.063624    3.217668
      4          6           0       23.343536   -3.478119    1.839498
      5          6           0       21.765132   -2.455423   -2.588866
      6          7           0       21.975226    1.472890    0.853317
      7          6           0       21.946257    2.457778   -0.036259
      8          6           0       21.802289    3.826447    0.722534
      9          6           0       22.017270    3.405618    2.196105
     10          6           0       22.135138    1.886785    2.111580
     11          6           0       23.394303    3.938618    2.835030
     12          6           0       20.407420    4.574609    0.517783
     13          6           0       20.574387    6.045055    0.342241
     14          1           0       19.756424    6.999598    1.198410
     15          7           0       22.701760   -1.130715    2.278734
     16          6           0       22.722405   -0.265512    3.340427
     17          6           0       22.953554   -1.037421    4.569356
     18          6           0       23.254812   -2.363787    4.151608
     19          6           0       23.150655   -2.339696    2.683149
     20          6           0       22.978402   -0.391870    5.991568
     21          6           0       23.687358   -3.583700    5.019663
     22          8           0       23.923603   -4.699357    4.569832
     23          6           0       23.794688   -3.390192    6.485026
     24          7           0       22.507138   -2.609877   -0.248059
     25          6           0       23.116649   -3.622939    0.498217
     26          6           0       23.506958   -4.794995   -0.439793
     27          6           0       22.442392   -4.675626   -1.616771
     28          6           0       22.226940   -3.145074   -1.446169
     29          6           0       24.992773   -4.771463   -0.858297
     30          6           0       21.152902   -5.429573   -1.456236
     31          6           0       20.056581   -4.910361   -0.574129
     32          7           0       21.701550   -0.260908   -1.602135
     33          6           0       21.656809   -1.064083   -2.718178
     34          6           0       21.465326   -0.287932   -3.945481
     35          6           0       21.697567    1.093256   -3.508134
     36          6           0       21.843867    1.018443   -2.068243
     37          6           0       21.357080   -0.810122   -5.285497
     38          6           0       21.836927    2.479475   -3.937425
     39          8           0       21.865364    2.982824   -4.997361
     40          6           0       21.963234    3.328173   -2.567063
     41          6           0       23.088352    4.331968   -2.559166
     42          8           0       24.223473    4.120257   -2.142810
     43          8           0       22.594144    5.555535   -3.010047
     44          6           0       23.528485    6.694982   -3.052120
     45          1           0       22.229838    1.448926    4.236593
     46          1           0       23.786721   -4.328488    2.362634
     47          1           0       21.593488   -3.073842   -3.471940
     48          1           0       22.606344    4.520051    0.475287
     49          1           0       21.257644    3.730084    2.907272
     50          1           0       23.168037    4.889101    3.318662
     51          1           0       24.181949    4.170652    2.118643
     52          1           0       23.713376    3.217174    3.588147
     53          1           0       19.741659    4.426570    1.368210
     54          1           0       19.802278    4.220739   -0.317011
     55          1           0       20.203087    6.213781   -0.668216
     56          1           0       21.584644    6.452161    0.373236
     57          1           0       24.014408   -0.101417    6.163737
     58          1           0       22.571763   -1.065608    6.746156
     59          1           0       22.531807    0.602001    6.036348
     60          1           0       24.224222   -2.484454    6.912804
     61          1           0       24.367889   -4.208091    6.920878
     62          1           0       22.845136   -3.655916    6.950493
     63          1           0       23.280250   -5.678850    0.155758
     64          1           0       22.860754   -4.955334   -2.583477
     65          1           0       25.199435   -4.799914   -1.928166
     66          1           0       25.616969   -5.464291   -0.293520
     67          1           0       25.447919   -3.829792   -0.551886
     68          1           0       21.273716   -6.452571   -1.101948
     69          1           0       20.710317   -5.538579   -2.446460
     70          1           0       19.420895   -4.382888   -1.285083
     71          1           0       20.355880   -4.182380    0.180223
     72          1           0       19.535457   -5.751626   -0.116038
     73          1           0       20.656472   -0.153737   -5.801963
     74          1           0       20.921677   -1.805950   -5.206517
     75          1           0       22.327655   -0.782914   -5.779838
     76          1           0       21.035076    3.888862   -2.456294
     77          1           0       24.401575    6.367379   -3.617116
     78          1           0       23.868505    6.955087   -2.050051
     79          1           0       23.200654    7.645097   -3.474235
     80         12           0      -22.046871   -0.635672   -0.480828
     81          6           0      -23.681217    2.014661    1.137727
     82          6           0      -20.477097    1.485388   -2.520050
     83          6           0      -20.698808   -3.211879   -1.901920
     84          6           0      -24.535788   -2.766951    1.052671
     85          7           0      -22.193365    1.503162   -0.695805
     86          6           0      -22.749829    2.402344    0.125553
     87          6           0      -22.545766    3.813575   -0.361910
     88          6           0      -21.860879    3.590292   -1.769687
     89          6           0      -21.469275    2.128891   -1.666974
     90          6           0      -22.685912    3.909011   -3.058598
     91          6           0      -21.539503    4.609919    0.616201
     92          6           0      -22.059411    6.027610    1.023136
     93          1           0      -21.184515    6.658704    2.236670
     94          7           0      -20.620404   -0.818256   -1.788896
     95          6           0      -20.029527    0.188743   -2.532924
     96          6           0      -18.877014   -0.353350   -3.198440
     97          6           0      -18.847866   -1.798319   -3.031587
     98          6           0      -20.025699   -2.025771   -2.109457
     99          6           0      -18.007634    0.587051   -4.081708
    100          6           0      -17.955449   -2.936608   -3.513047
    101          8           0      -18.042176   -4.133180   -3.182962
    102          6           0      -16.837381   -2.461124   -4.371627
    103          7           0      -22.700301   -2.636837   -0.504280
    104          6           0      -21.893978   -3.485890   -1.221355
    105          6           0      -22.468821   -4.902741   -1.237558
    106          6           0      -23.482012   -4.833431   -0.064936
    107          6           0      -23.647910   -3.328205    0.152954
    108          6           0      -23.003400   -5.252639   -2.682875
    109          6           0      -23.061360   -5.589150    1.266420
    110          6           0      -24.199331   -6.030579    2.200638
    111          7           0      -23.750201   -0.470697    0.861445
    112          6           0      -24.605926   -1.407462    1.356628
    113          6           0      -25.506776   -0.830666    2.329292
    114          6           0      -25.103412    0.517006    2.306928
    115          6           0      -24.084405    0.703922    1.361996
    116          6           0      -26.627469   -1.446535    3.198165
    117          6           0      -25.365195    1.790707    2.916950
    118          8           0      -26.013504    2.133560    3.870751
    119          6           0      -24.536008    2.856926    2.029666
    120          6           0      -23.966285    3.702139    3.082332
    121          8           0      -22.935366    3.514966    3.776754
    122          8           0      -24.802467    4.750494    3.175099
    123          6           0      -24.522543    5.772916    4.184231
    124          1           0      -19.891145    2.176696   -3.129558
    125          1           0      -20.199918   -4.088968   -2.319861
    126          1           0      -25.200164   -3.470205    1.559122
    127          1           0      -23.449720    4.420659   -0.418360
    128          1           0      -20.912800    4.104647   -1.927934
    129          1           0      -22.909762    2.962374   -3.550370
    130          1           0      -22.017724    4.504268   -3.680682
    131          1           0      -23.642719    4.419364   -2.954029
    132          1           0      -20.511204    4.705841    0.265636
    133          1           0      -21.374538    3.958082    1.474175
    134          1           0      -23.099427    5.975771    1.344624
    135          1           0      -21.975266    6.792131    0.251159
    136          1           0      -17.226592    1.009746   -3.451227
    137          1           0      -18.507140    1.517609   -4.354043
    138          1           0      -17.718752    0.217122   -5.065199
    139          1           0      -16.151142   -1.770491   -3.882800
    140          1           0      -17.372432   -2.028570   -5.217917
    141          1           0      -16.234807   -3.266571   -4.792412
    142          1           0      -21.624030   -5.555478   -1.017246
    143          1           0      -24.415094   -5.307262   -0.369664
    144          1           0      -24.093293   -5.255623   -2.690950
    145          1           0      -22.732589   -6.211999   -3.123011
    146          1           0      -22.798827   -4.526942   -3.470307
    147          1           0      -22.547444   -4.809413    1.829215
    148          1           0      -22.409582   -6.457724    1.169824
    149          1           0      -24.180105   -5.497299    3.151969
    150          1           0      -24.284862   -7.082382    2.474346
    151          1           0      -25.112934   -5.676407    1.725217
    152          1           0      -26.956707   -2.338253    2.664737
    153          1           0      -27.451492   -0.744444    3.331982
    154          1           0      -26.160452   -1.731154    4.140968
    155          1           0      -25.228766    3.463510    1.446094
    156          1           0      -24.212069    6.684662    3.674211
    157          1           0      -23.846150    5.413812    4.959154
    158          1           0      -25.464124    6.045206    4.660918
 ---------------------------------------------------------------------

 SCF Done:  E(RwB97XD) =  -4070.60964913     A.U. after   19 cycles

 Excitation energies and oscillator strengths:

 Excited State   1:      Singlet-A      1.6238 eV  763.56 nm  f=0.3736  <S**2>=0.000
     310 -> 316       -0.18255
     312 -> 313        0.68419
     310 <- 316       -0.11751
 This state for optimization and/or second-order correction.
 Total Energy, E(TD-HF/TD-DFT) =  -4070.54997680
 Copying the excited state density for this state as the 1-particle RhoCI density.

 Excited State   2:      Singlet-A      1.6707 eV  742.09 nm  f=0.3808  <S**2>=0.000
     309 -> 315        0.20302
     311 -> 314        0.67876
     309 <- 315        0.12001

 Excited State   3:      Singlet-A      2.1930 eV  565.35 nm  f=0.0594  <S**2>=0.000
     309 -> 314        0.61589
     311 -> 315       -0.33608

 Excited State   4:      Singlet-A      2.2000 eV  563.57 nm  f=0.1032  <S**2>=0.000
     310 -> 313        0.63105
     312 -> 316        0.30777

 Excited State   5:      Singlet-A      3.3922 eV  365.50 nm  f=0.0179  <S**2>=0.000
     308 -> 313        0.66087
     312 -> 316       -0.17969

 The electronic state is 1-A.
 Alpha  occ. eigenvalues --  -46.94265 -46.93933 -19.30279 -19.30093 -19.25057
 Alpha  occ. eigenvalues --  -19.24763 -19.24744 -19.24186 -19.24079 -19.23414
 Alpha  occ. eigenvalues --  -14.47196 -14.46770 -14.46326 -14.46032 -14.44104
 Alpha  occ. eigenvalues --  -14.43912 -14.43803 -14.43004 -10.43568 -10.42434
 Alpha  occ. eigenvalues --  -10.40001 -10.39598 -10.39557 -10.38672 -10.35770
 Alpha  occ. eigenvalues --  -10.35557 -10.35372 -10.35210 -10.34835 -10.34751
 Alpha  occ. eigenvalues --  -10.34681 -10.34621 -10.34567 -10.34266 -10.34262
 Alpha  occ. eigenvalues --  -10.34162 -10.34028 -10.33885 -10.33810 -10.33537
 Alpha  occ. eigenvalues --  -10.33470 -10.33382 -10.33234 -10.32916 -10.32853
 Alpha  occ. eigenvalues --  -10.32803 -10.32703 -10.32473 -10.32427 -10.32383
 Alpha  occ. eigenvalues --  -10.32363 -10.32239 -10.32002 -10.31940 -10.31895
 Alpha  occ. eigenvalues --  -10.31804 -10.31786 -10.31767 -10.31712 -10.31692
 Alpha  occ. eigenvalues --  -10.31664 -10.31617 -10.31471 -10.31345 -10.31151
 Alpha  occ. eigenvalues --  -10.30829 -10.30775 -10.30743 -10.30530 -10.30366
 Alpha  occ. eigenvalues --  -10.30365 -10.30273 -10.30193 -10.30164 -10.29985
 Alpha  occ. eigenvalues --  -10.29944 -10.29879 -10.29800 -10.29739 -10.29666
 Alpha  occ. eigenvalues --  -10.29481 -10.29386 -10.29374 -10.29198 -10.28490
 Alpha  occ. eigenvalues --  -10.28365  -3.20387  -3.20176  -1.93984  -1.93759
 Alpha  occ. eigenvalues --   -1.93490  -1.93389  -1.93320  -1.93166  -1.18127
 Alpha  occ. eigenvalues --   -1.17343  -1.15235  -1.13014  -1.12349  -1.11641
 Alpha  occ. eigenvalues --   -1.09674  -1.07730  -1.07211  -1.07176  -1.06323
 Alpha  occ. eigenvalues --   -1.05623  -1.05578  -1.04901  -1.04480  -1.04183
 Alpha  occ. eigenvalues --   -0.94703  -0.93862  -0.91068  -0.90896  -0.90474
 Alpha  occ. eigenvalues --   -0.90134  -0.89951  -0.89906  -0.89386  -0.89147
 Alpha  occ. eigenvalues --   -0.88943  -0.88824  -0.88224  -0.88218  -0.86463
 Alpha  occ. eigenvalues --   -0.86063  -0.85742  -0.85496  -0.84454  -0.84401
 Alpha  occ. eigenvalues --   -0.84178  -0.83769  -0.83243  -0.82960  -0.82338
 Alpha  occ. eigenvalues --   -0.82254  -0.80197  -0.80195  -0.79246  -0.79172
 Alpha  occ. eigenvalues --   -0.78837  -0.78686  -0.77860  -0.77766  -0.77330
 Alpha  occ. eigenvalues --   -0.76792  -0.74785  -0.74259  -0.74125  -0.73440
 Alpha  occ. eigenvalues --   -0.71234  -0.71145  -0.70727  -0.70514  -0.69860
 Alpha  occ. eigenvalues --   -0.69688  -0.69209  -0.68706  -0.68000  -0.67646
 Alpha  occ. eigenvalues --   -0.67474  -0.66890  -0.66621  -0.66448  -0.66248
 Alpha  occ. eigenvalues --   -0.66041  -0.63814  -0.63766  -0.62273  -0.62139
 Alpha  occ. eigenvalues --   -0.61804  -0.61553  -0.61156  -0.60883  -0.60630
 Alpha  occ. eigenvalues --   -0.60106  -0.59999  -0.59762  -0.59217  -0.59119
 Alpha  occ. eigenvalues --   -0.58333  -0.57858  -0.57796  -0.57487  -0.57452
 Alpha  occ. eigenvalues --   -0.57305  -0.56762  -0.56296  -0.56061  -0.55853
 Alpha  occ. eigenvalues --   -0.55527  -0.55390  -0.55317  -0.55187  -0.54869
 Alpha  occ. eigenvalues --   -0.54767  -0.54501  -0.54433  -0.54160  -0.54097
 Alpha  occ. eigenvalues --   -0.53705  -0.53556  -0.53534  -0.53348  -0.53315
 Alpha  occ. eigenvalues --   -0.53212  -0.52989  -0.52691  -0.52337  -0.52321
 Alpha  occ. eigenvalues --   -0.52134  -0.52128  -0.52015  -0.51959  -0.51556
 Alpha  occ. eigenvalues --   -0.51437  -0.51369  -0.51050  -0.51027  -0.50851
 Alpha  occ. eigenvalues --   -0.50530  -0.50410  -0.50234  -0.50094  -0.49940
 Alpha  occ. eigenvalues --   -0.49906  -0.49731  -0.49326  -0.49199  -0.48897
 Alpha  occ. eigenvalues --   -0.48822  -0.48778  -0.48516  -0.48422  -0.48269
 Alpha  occ. eigenvalues --   -0.48191  -0.48046  -0.47852  -0.47753  -0.47659
 Alpha  occ. eigenvalues --   -0.47467  -0.47427  -0.47138  -0.47076  -0.46876
 Alpha  occ. eigenvalues --   -0.46861  -0.46556  -0.46282  -0.46101  -0.45971
 Alpha  occ. eigenvalues --   -0.45698  -0.45660  -0.45513  -0.45426  -0.45266
 Alpha  occ. eigenvalues --   -0.45204  -0.45022  -0.44821  -0.44790  -0.44717
 Alpha  occ. eigenvalues --   -0.44603  -0.44596  -0.44171  -0.44036  -0.43885
 Alpha  occ. eigenvalues --   -0.43791  -0.43519  -0.43448  -0.43364  -0.43267
 Alpha  occ. eigenvalues --   -0.43162  -0.43089  -0.42717  -0.42473  -0.42385
 Alpha  occ. eigenvalues --   -0.42212  -0.42121  -0.41512  -0.41043  -0.40735
 Alpha  occ. eigenvalues --   -0.40599  -0.39963  -0.39779  -0.39607  -0.39472
 Alpha  occ. eigenvalues --   -0.38958  -0.38949  -0.38657  -0.38603  -0.37846
 Alpha  occ. eigenvalues --   -0.37524  -0.37230  -0.36431  -0.36282  -0.36165
 Alpha  occ. eigenvalues --   -0.35984  -0.35069  -0.34969  -0.33732  -0.33513
 Alpha  occ. eigenvalues --   -0.33405  -0.33282  -0.33134  -0.32629  -0.32473
 Alpha  occ. eigenvalues --   -0.32192  -0.31783  -0.31771  -0.26128  -0.25910
 Alpha  occ. eigenvalues --   -0.22942  -0.22590
 Alpha virt. eigenvalues --   -0.06816  -0.06797  -0.00406   0.00533   0.01741
 Alpha virt. eigenvalues --    0.02479   0.04535   0.04551   0.05907   0.06207
 Alpha virt. eigenvalues --    0.06724   0.07361   0.07590   0.08069   0.08232

 Mulliken charges:
               1
     1  Mg   0.983662
     2  C    0.016731
     3  C   -0.089952
     4  C   -0.082489
     5  C   -0.106066
     6  N   -0.316813
     7  C    0.009816
     8  C   -0.040718
     9  C   -0.128939
    10  C    0.104168
    11  C   -0.004728
    12  C    0.028257
    13  C   -0.147831
    14  H    0.026093
    15  N   -0.453074
    16  C    0.111725
    17  C   -0.155598
    18  C   -0.103449
    19  C    0.123681
    20  C    0.045754
    21  C    0.084857
    22  O   -0.233052
    23  C   -0.023502
    24  N   -0.364497
    25  C    0.051549
    26  C   -0.053065
    27  C   -0.060037
    28  C    0.046763
    29  C    0.044643
    30  C   -0.025436
    31  C   -0.034933
    32  N   -0.448068
    33  C    0.163649
    34  C   -0.168887
    35  C   -0.084434
    36  C    0.117495
    37  C    0.076973
    38  C    0.137551
    39  O   -0.142233
    40  C   -0.138983
    41  C    0.283417
    42  O   -0.249093
    43  O   -0.383350
    44  C    0.147015
    45  H   -0.013055
    46  H    0.021633
    47  H   -0.009724
    48  H    0.043029
    49  H    0.044057
    50  H    0.031221
    51  H    0.051237
    52  H    0.038074
    53  H    0.037909
    54  H    0.036929
    55  H    0.053886
    56  H    0.051447
    57  H    0.057698
    58  H    0.063577
    59  H    0.032708
    60  H    0.059378
    61  H    0.038699
    62  H    0.062608
    63  H    0.024383
    64  H    0.023872
    65  H    0.039145
    66  H    0.044491
    67  H    0.032107
    68  H    0.026719
    69  H    0.023431
    70  H    0.026950
    71  H    0.051693
    72  H    0.040168
    73  H    0.057359
    74  H    0.036680
    75  H    0.074602
    76  H    0.075943
    77  H    0.054260
    78  H    0.040559
    79  H    0.061758
    80  Mg   0.994475
    81  C    0.048481
    82  C   -0.082817
    83  C   -0.068762
    84  C   -0.108709
    85  N   -0.341623
    86  C    0.046017
    87  C   -0.121675
    88  C   -0.075860
    89  C    0.029447
    90  C    0.026887
    91  C    0.024030
    92  C   -0.140378
    93  H    0.018687
    94  N   -0.559206
    95  C    0.189618
    96  C   -0.126454
    97  C   -0.130515
    98  C    0.181188
    99  C    0.043829
   100  C    0.089157
   101  O   -0.240706
   102  C   -0.020739
   103  N   -0.364160
   104  C    0.073100
   105  C   -0.083656
   106  C   -0.059668
   107  C    0.063305
   108  C    0.017229
   109  C   -0.011382
   110  C   -0.064785
   111  N   -0.360296
   112  C    0.130489
   113  C   -0.202683
   114  C   -0.017972
   115  C    0.092263
   116  C    0.097848
   117  C    0.101679
   118  O   -0.185095
   119  C   -0.133250
   120  C    0.263432
   121  O   -0.285005
   122  O   -0.350113
   123  C    0.138316
   124  H   -0.014481
   125  H    0.026589
   126  H   -0.019334
   127  H    0.037184
   128  H    0.028906
   129  H    0.042207
   130  H    0.037584
   131  H    0.043000
   132  H    0.031542
   133  H    0.058120
   134  H    0.053273
   135  H    0.056598
   136  H    0.054074
   137  H    0.028119
   138  H    0.054157
   139  H    0.074551
   140  H    0.050213
   141  H    0.047486
   142  H    0.043279
   143  H    0.027351
   144  H    0.021189
   145  H    0.043995
   146  H    0.041027
   147  H    0.036392
   148  H    0.043298
   149  H    0.035198
   150  H    0.044636
   151  H    0.027536
   152  H    0.034224
   153  H    0.066266
   154  H    0.064439
   155  H    0.073473
   156  H    0.048559
   157  H    0.075941
   158  H    0.049438
 Sum of Mulliken charges =  -0.00000

 Dipole moment (field-independent basis, Debye):
    X=             -1.2834    Y=              1.8954    Z=             -1.8362  Tot=              2.9345
 Quadrupole moment (field-independent basis, Debye-Ang):
   XX=           -620.9986   YY=           -476.6066   ZZ=           -503.4876
   XY=             11.4562   XZ=            165.9295   YZ=              5.0722

 Normal termination of Gaussian 16 at Sat Sep 18 20:10:54 2021.
