 Gaussian 16, Revision A.03,
 Gaussian 16:  ES64L-G16RevA.03 25-Dec-2016

 --------------------------------
 #p wB97XD/Def2SVP td=(nstates=5)
 --------------------------------

 --------------------------------
 TDDFT excited states in gaussian
 --------------------------------
 Symbolic Z-matrix:
 Charge =  0 Multiplicity = 1

                         Standard orientation:
 ---------------------------------------------------------------------
 Center     Atomic      Atomic             Coordinates (Angstroms)
 Number     Number       Type             X           Y           Z
 ---------------------------------------------------------------------
      1         12           0       25.185136   -0.280386   -0.374477
      2          6           0       21.853900   -0.397165    0.601367
      3          6           0       24.361695    2.342615   -2.610627
      4          6           0       28.395685    0.638016   -0.488789
      5          6           0       25.926230   -2.386307    2.353992
      6          7           0       23.307857    1.109173   -0.685995
      7          6           0       22.062219    0.641554   -0.342411
      8          6           0       20.976763    1.478002   -0.943838
      9          6           0       21.746710    2.175597   -2.157479
     10          6           0       23.256494    1.908916   -1.821006
     11          6           0       21.352363    1.660039   -3.632391
     12          6           0       20.298502    2.422291    0.176751
     13          6           0       18.935565    2.810231   -0.102747
     14          1           0       18.713683    4.337595   -0.097017
     15          7           0       26.269586    1.130604   -1.518582
     16          6           0       25.744390    2.123189   -2.392632
     17          6           0       26.871010    2.825524   -2.983515
     18          6           0       28.069940    2.341448   -2.405914
     19          6           0       27.615090    1.253253   -1.476582
     20          6           0       26.686867    3.976567   -3.900740
     21          6           0       29.510335    2.931931   -2.709109
     22          8           0       29.572816    3.858520   -3.515657
     23          6           0       30.785592    2.207345   -2.292253
     24          7           0       26.844218   -0.749683    0.849383
     25          6           0       28.074345   -0.311889    0.479269
     26          6           0       29.261622   -0.778100    1.530198
     27          6           0       28.482571   -1.936076    2.319987
     28          6           0       27.008847   -1.744908    1.840649
     29          6           0       30.578162   -1.341784    0.873228
     30          6           0       28.598370   -1.809745    3.840204
     31          6           0       29.201450   -2.955410    4.687895
     32          7           0       24.111199   -1.421355    0.970398
     33          6           0       24.544785   -2.238391    1.973816
     34          6           0       23.414366   -2.906260    2.557723
     35          6           0       22.308045   -2.127410    2.048480
     36          6           0       22.829974   -1.212916    1.117769
     37          6           0       23.449424   -3.921996    3.662848
     38          6           0       20.883664   -1.910789    2.193533
     39          8           0       20.061109   -2.567336    2.756327
     40          6           0       20.456984   -0.771379    1.188066
     41          6           0       19.523859   -1.232964    0.046991
     42          8           0       19.727280   -2.194107   -0.663212
     43          8           0       18.364469   -0.430397    0.030862
     44          6           0       17.314032   -0.832521   -0.855052
     45          1           0       24.033778    3.094127   -3.330760
     46          1           0       29.390550    1.052855   -0.314823
     47          1           0       26.202903   -3.047959    3.176869
     48          1           0       20.253057    0.881861   -1.500649
     49          1           0       21.556089    3.248074   -2.104000
     50          1           0       20.978537    2.542846   -4.150893
     51          1           0       20.608028    0.864472   -3.618840
     52          1           0       22.280792    1.323427   -4.094614
     53          1           0       20.927136    3.312530    0.166137
     54          1           0       20.499632    1.846440    1.080506
     55          1           0       18.326057    2.343189    0.669934
     56          1           0       18.648229    2.474988   -1.099279
     57          1           0       25.659008    4.047313   -4.256109
     58          1           0       27.271496    3.825600   -4.808563
     59          1           0       26.922335    4.919080   -3.405891
     60          1           0       30.930537    2.158560   -1.212575
     61          1           0       31.621893    2.719379   -2.769327
     62          1           0       30.740122    1.204613   -2.717331
     63          1           0       29.387361    0.098454    2.165172
     64          1           0       28.708469   -2.950009    1.989100
     65          1           0       31.405775   -0.659693    1.065747
     66          1           0       30.437071   -1.429059   -0.204739
     67          1           0       30.762526   -2.313896    1.331775
     68          1           0       27.652127   -1.512592    4.291769
     69          1           0       29.151667   -0.935798    4.183601
     70          1           0       28.525093   -3.510571    5.338416
     71          1           0       29.904971   -2.463645    5.360136
     72          1           0       29.699568   -3.693508    4.058103
     73          1           0       22.489361   -4.438540    3.649637
     74          1           0       23.333224   -3.516370    4.667375
     75          1           0       24.322007   -4.574686    3.662373
     76          1           0       19.905511   -0.080684    1.826583
     77          1           0       16.840823    0.132293   -1.040423
     78          1           0       16.545009   -1.409734   -0.342000
     79          1           0       17.712309   -1.380705   -1.707911
     80         12           0      -25.135730    0.358507    0.139871
     81          6           0      -22.025372   -1.180436   -0.362217
     82          6           0      -26.565825   -2.144200   -1.743076
     83          6           0      -28.047230    1.842647    0.600496
     84          6           0      -23.479802    2.909162    1.899064
     85          7           0      -24.342401   -1.468873   -0.829015
     86          6           0      -23.030041   -1.926703   -0.947833
     87          6           0      -22.932424   -3.413262   -1.471547
     88          6           0      -24.343247   -3.562474   -2.007290
     89          6           0      -25.165808   -2.310180   -1.491639
     90          6           0      -24.351277   -3.501457   -3.603370
     91          6           0      -22.740419   -4.276934   -0.146698
     92          6           0      -21.695727   -5.476476   -0.208467
     93          1           0      -21.687109   -6.070870   -1.593634
     94          7           0      -26.961067   -0.008270   -0.594680
     95          6           0      -27.365476   -1.037811   -1.333329
     96          6           0      -28.779608   -1.008368   -1.597985
     97          6           0      -29.280138    0.030447   -0.788347
     98          6           0      -28.056329    0.732570   -0.246439
     99          6           0      -29.527002   -1.948840   -2.470693
    100          6           0      -30.703651    0.380518   -0.406602
    101          8           0      -30.979947    1.160385    0.512022
    102          6           0      -31.871117   -0.154431   -1.240536
    103          7           0      -25.662158    2.180987    1.090444
    104          6           0      -26.999853    2.487551    1.174383
    105          6           0      -27.161244    3.694945    2.095536
    106          6           0      -25.677440    3.991064    2.634005
    107          6           0      -24.871515    2.951197    1.900860
    108          6           0      -27.905681    4.848900    1.335387
    109          6           0      -25.479838    3.993559    4.141770
    110          6           0      -24.779972    5.279886    4.681885
    111          7           0      -23.163932    0.793983    0.642117
    112          6           0      -22.623523    1.905474    1.361964
    113          6           0      -21.209517    1.806472    1.434551
    114          6           0      -20.949899    0.598410    0.765661
    115          6           0      -22.162695    0.072835    0.273789
    116          6           0      -20.200896    2.694033    2.089805
    117          6           0      -19.926493   -0.314534    0.367996
    118          8           0      -18.723707   -0.302133    0.485876
    119          6           0      -20.618012   -1.547651   -0.279305
    120          6           0      -19.928804   -1.871710   -1.554819
    121          8           0      -19.954422   -1.234284   -2.603849
    122          8           0      -19.305050   -3.039407   -1.370950
    123          6           0      -18.624799   -3.607165   -2.516056
    124          1           0      -27.162350   -2.937251   -2.198513
    125          1           0      -29.038839    2.289714    0.706639
    126          1           0      -22.931742    3.646024    2.490038
    127          1           0      -22.032649   -3.434440   -2.085633
    128          1           0      -24.796557   -4.476231   -1.624483
    129          1           0      -23.356476   -3.338350   -4.018410
    130          1           0      -25.002575   -2.683385   -3.910451
    131          1           0      -24.772575   -4.461804   -3.900797
    132          1           0      -23.660392   -4.748954    0.196915
    133          1           0      -22.466448   -3.569833    0.636713
    134          1           0      -22.052896   -6.325609    0.374319
    135          1           0      -20.762156   -5.220506    0.293225
    136          1           0      -30.162408   -2.542963   -1.812487
    137          1           0      -28.854944   -2.632762   -2.987171
    138          1           0      -30.148998   -1.449210   -3.212791
    139          1           0      -32.644173    0.553824   -0.943332
    140          1           0      -32.124847   -1.194487   -1.032207
    141          1           0      -31.812300   -0.029054   -2.321537
    142          1           0      -27.787498    3.538378    2.973779
    143          1           0      -25.365800    4.965295    2.257145
    144          1           0      -28.661581    5.216648    2.029363
    145          1           0      -28.329353    4.547476    0.377344
    146          1           0      -27.287508    5.745407    1.275142
    147          1           0      -24.934056    3.131415    4.523797
    148          1           0      -26.492119    4.088224    4.537277
    149          1           0      -24.657571    6.015153    3.886418
    150          1           0      -23.740697    5.090355    4.949609
    151          1           0      -25.349239    5.728834    5.496076
    152          1           0      -20.355629    2.448584    3.140842
    153          1           0      -20.431756    3.711260    1.774256
    154          1           0      -19.177149    2.414443    1.845070
    155          1           0      -20.365227   -2.358464    0.405211
    156          1           0      -17.928679   -2.879365   -2.933916
    157          1           0      -19.243733   -3.871572   -3.374106
    158          1           0      -18.080153   -4.474816   -2.143270
 ---------------------------------------------------------------------

 SCF Done:  E(RwB97XD) =  -4070.60653013     A.U. after   19 cycles

 Excitation energies and oscillator strengths:

 Excited State   1:      Singlet-A      1.6351 eV  758.26 nm  f=0.3916  <S**2>=0.000
     309 -> 316        0.17852
     311 -> 313        0.68607
     309 <- 316        0.11658
 This state for optimization and/or second-order correction.
 Total Energy, E(TD-HF/TD-DFT) =  -4070.54644104
 Copying the excited state density for this state as the 1-particle RhoCI density.

 Excited State   2:      Singlet-A      1.6810 eV  737.57 nm  f=0.3799  <S**2>=0.000
     310 -> 315       -0.16571
     312 -> 314        0.68556
     310 <- 315       -0.10524

 Excited State   3:      Singlet-A      2.1962 eV  564.53 nm  f=0.1046  <S**2>=0.000
     309 -> 313        0.63436
     311 -> 316       -0.29408

 Excited State   4:      Singlet-A      2.2342 eV  554.94 nm  f=0.1199  <S**2>=0.000
     310 -> 314        0.63518
     312 -> 315        0.28431

 Excited State   5:      Singlet-A      3.3902 eV  365.71 nm  f=0.0204  <S**2>=0.000
     304 -> 313        0.55860
     305 -> 313       -0.12133
     308 -> 313       -0.35832
     311 -> 316        0.15303

 The electronic state is 1-A.
 Alpha  occ. eigenvalues --  -46.96126 -46.94098 -19.30425 -19.30317 -19.25627
 Alpha  occ. eigenvalues --  -19.24999 -19.24742 -19.23705 -19.23220 -19.22361
 Alpha  occ. eigenvalues --  -14.46903 -14.46835 -14.46592 -14.46208 -14.44840
 Alpha  occ. eigenvalues --  -14.44809 -14.43596 -14.43012 -10.43913 -10.42119
 Alpha  occ. eigenvalues --  -10.40396 -10.40260 -10.37949 -10.37078 -10.35985
 Alpha  occ. eigenvalues --  -10.35881 -10.35683 -10.35274 -10.35144 -10.35131
 Alpha  occ. eigenvalues --  -10.35092 -10.35066 -10.34729 -10.34727 -10.34502
 Alpha  occ. eigenvalues --  -10.34442 -10.34431 -10.34038 -10.33575 -10.33332
 Alpha  occ. eigenvalues --  -10.33276 -10.32948 -10.32849 -10.32688 -10.32674
 Alpha  occ. eigenvalues --  -10.32534 -10.32523 -10.32488 -10.32378 -10.32320
 Alpha  occ. eigenvalues --  -10.32230 -10.32151 -10.32068 -10.31999 -10.31971
 Alpha  occ. eigenvalues --  -10.31806 -10.31683 -10.31655 -10.31616 -10.31592
 Alpha  occ. eigenvalues --  -10.31410 -10.31107 -10.31085 -10.31082 -10.30929
 Alpha  occ. eigenvalues --  -10.30721 -10.30670 -10.30578 -10.30557 -10.30538
 Alpha  occ. eigenvalues --  -10.30471 -10.30340 -10.30339 -10.30180 -10.30142
 Alpha  occ. eigenvalues --  -10.30121 -10.29936 -10.29892 -10.29646 -10.29598
 Alpha  occ. eigenvalues --  -10.29573 -10.29504 -10.29402 -10.29221 -10.28607
 Alpha  occ. eigenvalues --  -10.27525  -3.22010  -3.20217  -1.95540  -1.95183
 Alpha  occ. eigenvalues --   -1.94941  -1.93824  -1.93327  -1.93220  -1.19244
 Alpha  occ. eigenvalues --   -1.18199  -1.12962  -1.12614  -1.12534  -1.11516
 Alpha  occ. eigenvalues --   -1.10893  -1.09227  -1.07065  -1.06870  -1.05882
 Alpha  occ. eigenvalues --   -1.04945  -1.04899  -1.04360  -1.04339  -1.03610
 Alpha  occ. eigenvalues --   -0.94576  -0.94166  -0.91597  -0.91080  -0.90398
 Alpha  occ. eigenvalues --   -0.90272  -0.90243  -0.90043  -0.89878  -0.88922
 Alpha  occ. eigenvalues --   -0.88781  -0.88567  -0.88361  -0.87741  -0.85971
 Alpha  occ. eigenvalues --   -0.85859  -0.85404  -0.85217  -0.84593  -0.84243
 Alpha  occ. eigenvalues --   -0.84138  -0.83754  -0.83193  -0.83074  -0.82298
 Alpha  occ. eigenvalues --   -0.82199  -0.80897  -0.79729  -0.79318  -0.79276
 Alpha  occ. eigenvalues --   -0.78665  -0.78655  -0.78025  -0.77485  -0.76895
 Alpha  occ. eigenvalues --   -0.76868  -0.75067  -0.74628  -0.73371  -0.73307
 Alpha  occ. eigenvalues --   -0.71155  -0.71120  -0.70773  -0.70387  -0.69592
 Alpha  occ. eigenvalues --   -0.69380  -0.69313  -0.68452  -0.67827  -0.67353
 Alpha  occ. eigenvalues --   -0.67146  -0.66978  -0.66810  -0.66468  -0.66428
 Alpha  occ. eigenvalues --   -0.66074  -0.64767  -0.64409  -0.62812  -0.61675
 Alpha  occ. eigenvalues --   -0.61520  -0.61411  -0.61132  -0.60959  -0.60585
 Alpha  occ. eigenvalues --   -0.60500  -0.59955  -0.59688  -0.59431  -0.59261
 Alpha  occ. eigenvalues --   -0.58649  -0.58309  -0.57554  -0.57285  -0.57258
 Alpha  occ. eigenvalues --   -0.56918  -0.56659  -0.56339  -0.55904  -0.55733
 Alpha  occ. eigenvalues --   -0.55480  -0.55156  -0.55135  -0.54653  -0.54535
 Alpha  occ. eigenvalues --   -0.54472  -0.54460  -0.54387  -0.54040  -0.54016
 Alpha  occ. eigenvalues --   -0.53668  -0.53657  -0.53563  -0.53199  -0.53006
 Alpha  occ. eigenvalues --   -0.52933  -0.52681  -0.52672  -0.52322  -0.52202
 Alpha  occ. eigenvalues --   -0.52136  -0.51992  -0.51933  -0.51658  -0.51555
 Alpha  occ. eigenvalues --   -0.51526  -0.51184  -0.51124  -0.51023  -0.50687
 Alpha  occ. eigenvalues --   -0.50594  -0.50472  -0.50425  -0.50338  -0.49899
 Alpha  occ. eigenvalues --   -0.49788  -0.49777  -0.49542  -0.49442  -0.49196
 Alpha  occ. eigenvalues --   -0.49082  -0.48969  -0.48896  -0.48629  -0.48440
 Alpha  occ. eigenvalues --   -0.48327  -0.48293  -0.48051  -0.47987  -0.47857
 Alpha  occ. eigenvalues --   -0.47551  -0.47192  -0.47143  -0.46915  -0.46856
 Alpha  occ. eigenvalues --   -0.46713  -0.46606  -0.46461  -0.46403  -0.46368
 Alpha  occ. eigenvalues --   -0.46213  -0.45998  -0.45870  -0.45647  -0.45581
 Alpha  occ. eigenvalues --   -0.45425  -0.45329  -0.45049  -0.44965  -0.44883
 Alpha  occ. eigenvalues --   -0.44698  -0.44592  -0.44521  -0.44398  -0.44255
 Alpha  occ. eigenvalues --   -0.44148  -0.43839  -0.43526  -0.43361  -0.43001
 Alpha  occ. eigenvalues --   -0.42924  -0.42856  -0.42682  -0.42331  -0.42284
 Alpha  occ. eigenvalues --   -0.41960  -0.41686  -0.41604  -0.40704  -0.40586
 Alpha  occ. eigenvalues --   -0.40174  -0.40150  -0.39665  -0.39594  -0.39349
 Alpha  occ. eigenvalues --   -0.39012  -0.38868  -0.38644  -0.38431  -0.38303
 Alpha  occ. eigenvalues --   -0.38207  -0.37541  -0.36719  -0.36217  -0.36206
 Alpha  occ. eigenvalues --   -0.35856  -0.35510  -0.34945  -0.34294  -0.33559
 Alpha  occ. eigenvalues --   -0.33559  -0.33425  -0.33101  -0.32405  -0.31911
 Alpha  occ. eigenvalues --   -0.31657  -0.31285  -0.31268  -0.26231  -0.26033
 Alpha  occ. eigenvalues --   -0.22955  -0.22858
 Alpha virt. eigenvalues --   -0.07094  -0.06908   0.00249   0.00281   0.02541
 Alpha virt. eigenvalues --    0.02554   0.04284   0.04523   0.04983   0.06473
 Alpha virt. eigenvalues --    0.06759   0.07116   0.08134   0.08455   0.08463

 Mulliken charges:
               1
     1  Mg   0.961090
     2  C   -0.078112
     3  C   -0.075552
     4  C   -0.094007
     5  C   -0.091039
     6  N   -0.325359
     7  C   -0.039556
     8  C   -0.084255
     9  C   -0.134147
    10  C    0.034740
    11  C    0.014935
    12  C    0.053057
    13  C   -0.094498
    14  H    0.019914
    15  N   -0.466636
    16  C    0.174612
    17  C   -0.161895
    18  C   -0.102829
    19  C    0.203763
    20  C    0.095563
    21  C    0.076017
    22  O   -0.234495
    23  C   -0.028042
    24  N   -0.403952
    25  C    0.073632
    26  C   -0.123939
    27  C   -0.024124
    28  C    0.034665
    29  C    0.024337
    30  C   -0.029756
    31  C   -0.054233
    32  N   -0.416156
    33  C    0.139360
    34  C   -0.160896
    35  C   -0.085651
    36  C    0.221668
    37  C    0.066571
    38  C    0.108982
    39  O   -0.181712
    40  C   -0.079508
    41  C    0.276007
    42  O   -0.220960
    43  O   -0.387128
    44  C    0.130545
    45  H    0.011427
    46  H   -0.019734
    47  H   -0.007344
    48  H    0.027397
    49  H    0.037147
    50  H    0.043882
    51  H    0.052454
    52  H    0.042156
    53  H    0.036880
    54  H    0.036936
    55  H    0.063503
    56  H    0.049732
    57  H    0.010700
    58  H    0.056728
    59  H    0.066334
    60  H    0.071034
    61  H    0.057594
    62  H    0.067747
    63  H    0.055943
    64  H    0.043557
    65  H    0.039913
    66  H    0.046114
    67  H    0.045208
    68  H    0.031565
    69  H    0.018901
    70  H    0.040056
    71  H    0.034057
    72  H    0.032244
    73  H    0.049883
    74  H    0.043572
    75  H    0.043535
    76  H    0.072493
    77  H    0.046081
    78  H    0.054257
    79  H    0.067030
    80  Mg   0.983988
    81  C    0.006644
    82  C   -0.113459
    83  C   -0.075908
    84  C   -0.074281
    85  N   -0.350911
    86  C   -0.049256
    87  C   -0.050120
    88  C   -0.097959
    89  C    0.098224
    90  C    0.023323
    91  C    0.001634
    92  C   -0.114948
    93  H    0.031941
    94  N   -0.466390
    95  C    0.154037
    96  C   -0.174365
    97  C   -0.070264
    98  C    0.137957
    99  C    0.077977
   100  C    0.062827
   101  O   -0.243533
   102  C   -0.045589
   103  N   -0.389971
   104  C    0.116201
   105  C   -0.106975
   106  C   -0.048715
   107  C    0.073223
   108  C    0.009955
   109  C    0.001441
   110  C   -0.071381
   111  N   -0.414455
   112  C    0.082262
   113  C   -0.193404
   114  C   -0.037924
   115  C    0.139249
   116  C    0.088168
   117  C    0.083182
   118  O   -0.205348
   119  C   -0.074182
   120  C    0.226141
   121  O   -0.256844
   122  O   -0.333914
   123  C    0.142513
   124  H   -0.000075
   125  H    0.028355
   126  H   -0.008048
   127  H    0.049747
   128  H    0.040040
   129  H    0.051989
   130  H    0.043564
   131  H    0.040180
   132  H    0.030996
   133  H    0.043358
   134  H    0.042789
   135  H    0.062671
   136  H    0.053168
   137  H    0.041045
   138  H    0.058432
   139  H    0.058583
   140  H    0.065461
   141  H    0.052920
   142  H    0.043230
   143  H    0.032372
   144  H    0.027636
   145  H    0.060864
   146  H    0.025926
   147  H    0.049353
   148  H    0.028154
   149  H    0.020854
   150  H    0.037417
   151  H    0.045756
   152  H    0.054243
   153  H    0.052865
   154  H    0.061484
   155  H    0.067081
   156  H    0.054653
   157  H    0.045135
   158  H    0.057014
 Sum of Mulliken charges =  -0.00000

 Dipole moment (field-independent basis, Debye):
    X=             -2.0263    Y=             -2.3847    Z=             -0.4106  Tot=              3.1562
 Quadrupole moment (field-independent basis, Debye-Ang):
   XX=           -129.1404   YY=           -494.4363   ZZ=           -500.6474
   XY=             51.9317   XZ=             38.8504   YZ=             22.3131

 Normal termination of Gaussian 16 at Sun Sep 19 04:26:40 2021.
