 Gaussian 16, Revision A.03,
 Gaussian 16:  ES64L-G16RevA.03 25-Dec-2016

 --------------------------------
 #p wB97XD/Def2SVP td=(nstates=5)
 --------------------------------

 --------------------------------
 TDDFT excited states in gaussian
 --------------------------------
 Symbolic Z-matrix:
 Charge =  0 Multiplicity = 1

                         Standard orientation:
 ---------------------------------------------------------------------
 Center     Atomic      Atomic             Coordinates (Angstroms)
 Number     Number       Type             X           Y           Z
 ---------------------------------------------------------------------
      1         12           0       30.040475    0.437750   -0.074749
      2          6           0       27.775523   -2.271762    0.233891
      3          6           0       27.740814    2.381220    1.494359
      4          6           0       32.498924    2.746338    0.356335
      5          6           0       32.429350   -1.819468   -1.175197
      6          7           0       28.053835   -0.068162    0.875977
      7          6           0       27.254468   -1.178699    0.814329
      8          6           0       25.915623   -0.934794    1.405053
      9          6           0       25.840319    0.662191    1.486591
     10          6           0       27.273101    1.025697    1.294736
     11          6           0       24.905780    1.240084    0.436037
     12          6           0       25.851716   -1.713890    2.728135
     13          6           0       24.643033   -2.722153    2.929149
     14          1           0       23.701721   -2.621838    4.167120
     15          7           0       30.161776    2.324601    0.747221
     16          6           0       29.043519    2.985802    1.273843
     17          6           0       29.421715    4.343338    1.528817
     18          6           0       30.820024    4.499600    1.242572
     19          6           0       31.200181    3.173431    0.686427
     20          6           0       28.396569    5.361502    2.011323
     21          6           0       31.695134    5.721111    1.413897
     22          8           0       31.053621    6.755867    1.757726
     23          6           0       33.244005    5.828266    1.328274
     24          7           0       32.200591    0.487266   -0.373871
     25          6           0       32.976556    1.570887   -0.151264
     26          6           0       34.479749    1.315798   -0.439456
     27          6           0       34.430591   -0.130727   -1.041803
     28          6           0       32.902167   -0.538728   -0.796146
     29          6           0       35.002883    2.372543   -1.395784
     30          6           0       35.354526   -1.123660   -0.405252
     31          6           0       36.471964   -1.578543   -1.304328
     32          7           0       30.121967   -1.524934   -0.577862
     33          6           0       31.132856   -2.358722   -1.072501
     34          6           0       30.644595   -3.577055   -1.476650
     35          6           0       29.311619   -3.581644   -1.017545
     36          6           0       29.072820   -2.349073   -0.414078
     37          6           0       31.419908   -4.547470   -2.342406
     38          6           0       28.054946   -4.376813   -1.021785
     39          8           0       27.840984   -5.447687   -1.499205
     40          6           0       27.090801   -3.519759   -0.117264
     41          6           0       25.721177   -3.573743   -0.758247
     42          8           0       24.783161   -4.257579   -0.348444
     43          8           0       25.658826   -2.687795   -1.861179
     44          6           0       24.317213   -2.609467   -2.438389
     45          1           0       26.942868    3.065559    1.790879
     46          1           0       33.299508    3.489285    0.383603
     47          1           0       33.161299   -2.618903   -1.302993
     48          1           0       25.147875   -1.320952    0.734452
     49          1           0       25.453130    0.933121    2.468462
     50          1           0       24.947736    0.710486   -0.514744
     51          1           0       25.241013    2.250559    0.199874
     52          1           0       23.873384    1.337774    0.771690
     53          1           0       25.825004   -0.976776    3.530532
     54          1           0       26.771263   -2.246467    2.970824
     55          1           0       25.193846   -3.660936    2.992893
     56          1           0       24.089832   -2.850645    1.999540
     57          1           0       27.843886    4.984039    2.871665
     58          1           0       27.691876    5.491332    1.190038
     59          1           0       28.771356    6.312747    2.391661
     60          1           0       33.443384    5.678936    0.267598
     61          1           0       33.680220    5.028508    1.926887
     62          1           0       33.619673    6.779683    1.705749
     63          1           0       35.115624    1.358939    0.444436
     64          1           0       34.519069   -0.083705   -2.126884
     65          1           0       34.727245    3.347392   -0.993195
     66          1           0       34.522516    2.221433   -2.363019
     67          1           0       36.053333    2.360578   -1.684023
     68          1           0       34.863757   -2.051166   -0.110321
     69          1           0       35.835799   -0.820260    0.524285
     70          1           0       37.411850   -1.409277   -0.780357
     71          1           0       36.552899   -0.981822   -2.212885
     72          1           0       36.378493   -2.609303   -1.647890
     73          1           0       30.680750   -5.230527   -2.762187
     74          1           0       32.156344   -5.113439   -1.772429
     75          1           0       31.907234   -3.921325   -3.089439
     76          1           0       26.980871   -4.159999    0.758776
     77          1           0       24.165155   -1.644283   -2.921689
     78          1           0       23.551528   -2.595288   -1.664040
     79          1           0       24.095311   -3.432584   -3.118166
     80         12           0      -29.342194   -0.397729    0.598394
     81          6           0      -28.618018    2.020834   -1.946351
     82          6           0      -28.690082   -2.788820   -1.555442
     83          6           0      -30.809542   -2.410575    2.784664
     84          6           0      -30.368106    2.464136    2.668654
     85          7           0      -28.679088   -0.367026   -1.498182
     86          6           0      -28.468596    0.712866   -2.378564
     87          6           0      -28.031060    0.275944   -3.827632
     88          6           0      -28.015575   -1.355283   -3.581693
     89          6           0      -28.466846   -1.558911   -2.138816
     90          6           0      -28.977434   -2.125526   -4.584693
     91          6           0      -26.691742    0.899442   -4.354350
     92          6           0      -26.054577    0.192082   -5.544441
     93          1           0      -26.032184    1.015656   -6.845134
     94          7           0      -29.608629   -2.356331    0.646573
     95          6           0      -29.264732   -3.270478   -0.321407
     96          6           0      -29.560143   -4.631261    0.074629
     97          6           0      -30.179233   -4.485805    1.378927
     98          6           0      -30.147682   -3.009996    1.678913
     99          6           0      -29.229215   -5.845620   -0.657626
    100          6           0      -30.711562   -5.543366    2.330278
    101          8           0      -31.098548   -5.314081    3.441759
    102          6           0      -30.807610   -6.926632    1.743509
    103          7           0      -30.495723   -0.021169    2.441681
    104          6           0      -30.958657   -1.072172    3.164306
    105          6           0      -31.607543   -0.592214    4.490089
    106          6           0      -31.319753    0.949244    4.465245
    107          6           0      -30.635717    1.158092    3.127910
    108          6           0      -33.121613   -0.914397    4.731720
    109          6           0      -30.427857    1.505288    5.630817
    110          6           0      -31.191219    1.661173    6.964678
    111          7           0      -29.512604    1.759595    0.465396
    112          6           0      -29.850467    2.744197    1.365070
    113          6           0      -29.604925    4.002437    0.780842
    114          6           0      -29.192202    3.814285   -0.484780
    115          6           0      -29.155912    2.401535   -0.688797
    116          6           0      -29.749844    5.287750    1.585147
    117          6           0      -28.810731    4.393920   -1.776593
    118          8           0      -28.732960    5.543281   -2.126642
    119          6           0      -28.443968    3.203008   -2.784622
    120          6           0      -29.503137    3.174195   -3.839940
    121          8           0      -30.582832    2.628946   -3.884645
    122          8           0      -28.976654    3.910470   -4.882696
    123          6           0      -29.809527    4.042408   -6.101778
    124          1           0      -28.547367   -3.649375   -2.212173
    125          1           0      -31.403496   -3.104133    3.384742
    126          1           0      -30.612991    3.195573    3.442294
    127          1           0      -28.868001    0.472052   -4.498040
    128          1           0      -27.004795   -1.712929   -3.779329
    129          1           0      -28.465959   -3.007968   -4.968815
    130          1           0      -29.414330   -1.582362   -5.422240
    131          1           0      -29.814210   -2.564119   -4.041923
    132          1           0      -26.106360    0.881886   -3.434122
    133          1           0      -26.675190    1.961345   -4.600663
    134          1           0      -26.599891   -0.730179   -5.742873
    135          1           0      -24.992579    0.057897   -5.340749
    136          1           0      -28.510175   -6.278805    0.037630
    137          1           0      -28.832106   -5.613395   -1.645914
    138          1           0      -30.017703   -6.582186   -0.810748
    139          1           0      -29.901310   -7.482765    1.982793
    140          1           0      -31.277311   -6.953075    0.759830
    141          1           0      -31.711244   -7.322155    2.206449
    142          1           0      -30.924783   -0.924960    5.272464
    143          1           0      -32.263499    1.483083    4.351431
    144          1           0      -33.778939   -0.058570    4.887997
    145          1           0      -33.154154   -1.413689    5.699838
    146          1           0      -33.601465   -1.513364    3.957724
    147          1           0      -30.058972    2.494141    5.360742
    148          1           0      -29.583147    0.817376    5.688066
    149          1           0      -32.264342    1.725563    6.783744
    150          1           0      -30.778233    2.550792    7.440054
    151          1           0      -31.090267    0.810499    7.639332
    152          1           0      -29.107077    6.074569    1.190193
    153          1           0      -29.530897    5.072683    2.631097
    154          1           0      -30.793581    5.601415    1.613814
    155          1           0      -27.444932    3.322859   -3.204417
    156          1           0      -29.675868    5.071660   -6.434524
    157          1           0      -30.869343    3.841721   -5.945591
    158          1           0      -29.305036    3.313354   -6.736627
 ---------------------------------------------------------------------

 SCF Done:  E(RwB97XD) =  -4070.61624445     A.U. after   19 cycles

 Excitation energies and oscillator strengths:

 Excited State   1:      Singlet-A      1.6248 eV  763.07 nm  f=0.3515  <S**2>=0.000
     309 -> 315        0.17973
     311 -> 313        0.68474
     309 <- 315        0.11749
 This state for optimization and/or second-order correction.
 Total Energy, E(TD-HF/TD-DFT) =  -4070.55653355
 Copying the excited state density for this state as the 1-particle RhoCI density.

 Excited State   2:      Singlet-A      1.6367 eV  757.52 nm  f=0.4052  <S**2>=0.000
     310 -> 316       -0.18393
     312 -> 314        0.68411
     310 <- 316       -0.11741

 Excited State   3:      Singlet-A      2.1546 eV  575.45 nm  f=0.1357  <S**2>=0.000
     310 -> 314        0.64886
     312 -> 316        0.26861

 Excited State   4:      Singlet-A      2.1634 eV  573.09 nm  f=0.1550  <S**2>=0.000
     309 -> 313        0.64646
     311 -> 315       -0.27023

 Excited State   5:      Singlet-A      3.2312 eV  383.71 nm  f=0.0021  <S**2>=0.000
     306 -> 313        0.25034
     306 -> 317       -0.10053
     307 -> 313        0.63490

 The electronic state is 1-A.
 Alpha  occ. eigenvalues --  -46.95383 -46.94896 -19.30882 -19.29082 -19.25988
 Alpha  occ. eigenvalues --  -19.24903 -19.24843 -19.24164 -19.23965 -19.23386
 Alpha  occ. eigenvalues --  -14.47008 -14.46844 -14.46818 -14.45897 -14.44722
 Alpha  occ. eigenvalues --  -14.44212 -14.43637 -14.43452 -10.44271 -10.42813
 Alpha  occ. eigenvalues --  -10.39698 -10.39513 -10.39297 -10.38720 -10.36082
 Alpha  occ. eigenvalues --  -10.35426 -10.35143 -10.34962 -10.34934 -10.34908
 Alpha  occ. eigenvalues --  -10.34882 -10.34759 -10.34734 -10.34574 -10.34379
 Alpha  occ. eigenvalues --  -10.34236 -10.34136 -10.34107 -10.33353 -10.33108
 Alpha  occ. eigenvalues --  -10.33085 -10.32973 -10.32943 -10.32904 -10.32889
 Alpha  occ. eigenvalues --  -10.32731 -10.32611 -10.32602 -10.32513 -10.32463
 Alpha  occ. eigenvalues --  -10.32451 -10.32388 -10.32292 -10.32056 -10.31882
 Alpha  occ. eigenvalues --  -10.31800 -10.31693 -10.31587 -10.31416 -10.31277
 Alpha  occ. eigenvalues --  -10.31141 -10.31109 -10.31040 -10.30951 -10.30922
 Alpha  occ. eigenvalues --  -10.30884 -10.30855 -10.30847 -10.30844 -10.30834
 Alpha  occ. eigenvalues --  -10.30782 -10.30647 -10.30482 -10.30394 -10.30200
 Alpha  occ. eigenvalues --  -10.30034 -10.29892 -10.29727 -10.29592 -10.29588
 Alpha  occ. eigenvalues --  -10.29476 -10.29377 -10.29339 -10.29154 -10.29025
 Alpha  occ. eigenvalues --  -10.28747  -3.21389  -3.20886  -1.94958  -1.94516
 Alpha  occ. eigenvalues --   -1.94473  -1.94363  -1.93988  -1.93875  -1.17853
 Alpha  occ. eigenvalues --   -1.17777  -1.14303  -1.13581  -1.13044  -1.10194
 Alpha  occ. eigenvalues --   -1.09876  -1.09659  -1.07281  -1.06318  -1.05817
 Alpha  occ. eigenvalues --   -1.05419  -1.05338  -1.04830  -1.04495  -1.03611
 Alpha  occ. eigenvalues --   -0.95312  -0.94997  -0.91801  -0.91283  -0.90974
 Alpha  occ. eigenvalues --   -0.90825  -0.90137  -0.89966  -0.89820  -0.89094
 Alpha  occ. eigenvalues --   -0.88991  -0.88759  -0.87971  -0.87933  -0.86799
 Alpha  occ. eigenvalues --   -0.86227  -0.85818  -0.85081  -0.84590  -0.84066
 Alpha  occ. eigenvalues --   -0.83959  -0.83890  -0.82687  -0.82657  -0.82477
 Alpha  occ. eigenvalues --   -0.82036  -0.80076  -0.79797  -0.79401  -0.78881
 Alpha  occ. eigenvalues --   -0.78851  -0.78564  -0.78448  -0.77488  -0.77469
 Alpha  occ. eigenvalues --   -0.76757  -0.75547  -0.74757  -0.74237  -0.73275
 Alpha  occ. eigenvalues --   -0.71566  -0.71401  -0.70944  -0.70665  -0.69723
 Alpha  occ. eigenvalues --   -0.69689  -0.69279  -0.68963  -0.68267  -0.67698
 Alpha  occ. eigenvalues --   -0.67405  -0.67004  -0.66971  -0.66564  -0.66352
 Alpha  occ. eigenvalues --   -0.65892  -0.65138  -0.63463  -0.62553  -0.62091
 Alpha  occ. eigenvalues --   -0.62070  -0.61632  -0.61464  -0.60993  -0.60804
 Alpha  occ. eigenvalues --   -0.60259  -0.60111  -0.59825  -0.58898  -0.58848
 Alpha  occ. eigenvalues --   -0.58255  -0.58092  -0.57813  -0.57665  -0.57655
 Alpha  occ. eigenvalues --   -0.56984  -0.56881  -0.56371  -0.56342  -0.56195
 Alpha  occ. eigenvalues --   -0.56055  -0.55860  -0.55608  -0.55547  -0.55193
 Alpha  occ. eigenvalues --   -0.54658  -0.54616  -0.54304  -0.54266  -0.54032
 Alpha  occ. eigenvalues --   -0.53893  -0.53699  -0.53556  -0.53283  -0.53073
 Alpha  occ. eigenvalues --   -0.52934  -0.52844  -0.52495  -0.52448  -0.52272
 Alpha  occ. eigenvalues --   -0.52096  -0.52023  -0.51854  -0.51724  -0.51628
 Alpha  occ. eigenvalues --   -0.51612  -0.51415  -0.51061  -0.50879  -0.50763
 Alpha  occ. eigenvalues --   -0.50590  -0.50341  -0.50292  -0.49959  -0.49913
 Alpha  occ. eigenvalues --   -0.49738  -0.49697  -0.49659  -0.49187  -0.48963
 Alpha  occ. eigenvalues --   -0.48869  -0.48674  -0.48578  -0.48450  -0.48283
 Alpha  occ. eigenvalues --   -0.47981  -0.47860  -0.47825  -0.47715  -0.47665
 Alpha  occ. eigenvalues --   -0.47463  -0.47356  -0.47278  -0.47216  -0.47155
 Alpha  occ. eigenvalues --   -0.47114  -0.46961  -0.46843  -0.46780  -0.46651
 Alpha  occ. eigenvalues --   -0.46013  -0.45958  -0.45914  -0.45777  -0.45679
 Alpha  occ. eigenvalues --   -0.45457  -0.45227  -0.45099  -0.44676  -0.44654
 Alpha  occ. eigenvalues --   -0.44476  -0.44448  -0.44399  -0.44347  -0.44007
 Alpha  occ. eigenvalues --   -0.43993  -0.43794  -0.43680  -0.43581  -0.43500
 Alpha  occ. eigenvalues --   -0.43436  -0.43062  -0.43046  -0.42808  -0.42693
 Alpha  occ. eigenvalues --   -0.42392  -0.42063  -0.41220  -0.40990  -0.40706
 Alpha  occ. eigenvalues --   -0.40704  -0.40180  -0.39987  -0.39773  -0.39674
 Alpha  occ. eigenvalues --   -0.39523  -0.39296  -0.38993  -0.38509  -0.38455
 Alpha  occ. eigenvalues --   -0.38399  -0.37734  -0.37405  -0.36707  -0.36566
 Alpha  occ. eigenvalues --   -0.35927  -0.35503  -0.34869  -0.34007  -0.33474
 Alpha  occ. eigenvalues --   -0.33143  -0.32832  -0.32576  -0.32573  -0.32290
 Alpha  occ. eigenvalues --   -0.32191  -0.31981  -0.31922  -0.26349  -0.25500
 Alpha  occ. eigenvalues --   -0.23487  -0.22762
 Alpha virt. eigenvalues --   -0.07718  -0.06891   0.00055   0.00801   0.02292
 Alpha virt. eigenvalues --    0.02940   0.04411   0.04727   0.04976   0.05656
 Alpha virt. eigenvalues --    0.06252   0.07417   0.07495   0.08132   0.08142

 Mulliken charges:
               1
     1  Mg   0.971931
     2  C    0.037751
     3  C   -0.077535
     4  C   -0.047477
     5  C   -0.093030
     6  N   -0.359262
     7  C   -0.051798
     8  C   -0.054017
     9  C   -0.081763
    10  C    0.068388
    11  C    0.030562
    12  C    0.005107
    13  C   -0.116319
    14  H    0.047957
    15  N   -0.473426
    16  C    0.150771
    17  C   -0.148717
    18  C   -0.063236
    19  C    0.180168
    20  C    0.070488
    21  C    0.021630
    22  O   -0.276251
    23  C    0.023545
    24  N   -0.303375
    25  C    0.005288
    26  C   -0.045754
    27  C   -0.064975
    28  C    0.055382
    29  C    0.009354
    30  C   -0.002818
    31  C   -0.061535
    32  N   -0.466486
    33  C    0.108641
    34  C   -0.190764
    35  C   -0.079752
    36  C    0.147709
    37  C    0.086721
    38  C    0.122392
    39  O   -0.159462
    40  C   -0.057506
    41  C    0.245574
    42  O   -0.241465
    43  O   -0.390689
    44  C    0.140039
    45  H    0.005716
    46  H   -0.060359
    47  H    0.006966
    48  H    0.035231
    49  H    0.038500
    50  H    0.038033
    51  H    0.024524
    52  H    0.047537
    53  H    0.031362
    54  H    0.047670
    55  H    0.050636
    56  H    0.054822
    57  H    0.034273
    58  H    0.046798
    59  H    0.065079
    60  H    0.062907
    61  H    0.064270
    62  H    0.063559
    63  H    0.043484
    64  H    0.043090
    65  H    0.033475
    66  H    0.024393
    67  H    0.040202
    68  H    0.030933
    69  H    0.026665
    70  H    0.031352
    71  H    0.020873
    72  H    0.039953
    73  H    0.062283
    74  H    0.052059
    75  H    0.046485
    76  H    0.069841
    77  H    0.047280
    78  H    0.043984
    79  H    0.064139
    80  Mg   0.976985
    81  C   -0.038781
    82  C   -0.072045
    83  C   -0.068466
    84  C   -0.096338
    85  N   -0.383214
    86  C   -0.009670
    87  C   -0.026985
    88  C   -0.121356
    89  C    0.109443
    90  C   -0.013757
    91  C   -0.019355
    92  C   -0.123092
    93  H    0.029469
    94  N   -0.491471
    95  C    0.111834
    96  C   -0.136072
    97  C   -0.128154
    98  C    0.164505
    99  C    0.081500
   100  C    0.041239
   101  O   -0.208218
   102  C   -0.027555
   103  N   -0.338816
   104  C    0.031363
   105  C   -0.031771
   106  C   -0.109786
   107  C    0.026836
   108  C    0.019854
   109  C   -0.035761
   110  C   -0.029320
   111  N   -0.401579
   112  C    0.165337
   113  C   -0.242025
   114  C    0.013974
   115  C    0.138409
   116  C    0.096254
   117  C    0.119974
   118  O   -0.173076
   119  C   -0.118141
   120  C    0.285048
   121  O   -0.233232
   122  O   -0.386723
   123  C    0.128172
   124  H   -0.028672
   125  H    0.025145
   126  H    0.001833
   127  H    0.050873
   128  H    0.047803
   129  H    0.031116
   130  H    0.050478
   131  H    0.042802
   132  H    0.033686
   133  H    0.059752
   134  H    0.061098
   135  H    0.063943
   136  H    0.057851
   137  H    0.039878
   138  H    0.047126
   139  H    0.079758
   140  H    0.047389
   141  H    0.039944
   142  H    0.038807
   143  H    0.032546
   144  H    0.032688
   145  H    0.039125
   146  H    0.051688
   147  H    0.028476
   148  H    0.032735
   149  H    0.031901
   150  H    0.042769
   151  H    0.037476
   152  H    0.058692
   153  H    0.027637
   154  H    0.045767
   155  H    0.081000
   156  H    0.063690
   157  H    0.072779
   158  H    0.054988
 Sum of Mulliken charges =  -0.00000

 Dipole moment (field-independent basis, Debye):
    X=              4.4011    Y=             -0.9065    Z=             -1.9249  Tot=              4.8884
 Quadrupole moment (field-independent basis, Debye-Ang):
   XX=           -392.1273   YY=           -571.4068   ZZ=           -486.4409
   XY=            140.2434   XZ=            -31.4900   YZ=             14.3180

 Normal termination of Gaussian 16 at Sun Sep 19 19:16:24 2021.
