 Gaussian 16, Revision A.03,
 Gaussian 16:  ES64L-G16RevA.03 25-Dec-2016

 --------------------------------
 #p wB97XD/Def2SVP td=(nstates=5)
 --------------------------------

 --------------------------------
 TDDFT excited states in gaussian
 --------------------------------
 Symbolic Z-matrix:
 Charge =  0 Multiplicity = 1

                         Standard orientation:
 ---------------------------------------------------------------------
 Center     Atomic      Atomic             Coordinates (Angstroms)
 Number     Number       Type             X           Y           Z
 ---------------------------------------------------------------------
      1         12           0       19.492900    0.248253    0.496817
      2          6           0       17.493224   -1.346894   -2.065443
      3          6           0       20.576450    2.184328   -1.851568
      4          6           0       21.431444    1.378314    2.910850
      5          6           0       18.777372   -2.504103    2.760046
      6          7           0       18.954289    0.454396   -1.726961
      7          6           0       18.148094   -0.265760   -2.583860
      8          6           0       18.249112    0.274597   -3.964687
      9          6           0       19.585087    1.061082   -3.949291
     10          6           0       19.764335    1.223093   -2.421345
     11          6           0       20.779829    0.300735   -4.565536
     12          6           0       17.074570    1.265484   -4.228360
     13          6           0       16.347858    1.138410   -5.623117
     14          1           0       14.896495    1.733809   -5.815662
     15          7           0       20.848453    1.708550    0.495976
     16          6           0       21.099029    2.486134   -0.523467
     17          6           0       22.017588    3.521160   -0.087978
     18          6           0       22.132805    3.322052    1.308005
     19          6           0       21.472963    2.080372    1.608159
     20          6           0       22.485201    4.622976   -1.056144
     21          6           0       22.867638    4.206004    2.276847
     22          8           0       22.921107    3.915009    3.434356
     23          6           0       23.439713    5.499052    1.794519
     24          7           0       20.230911   -0.683759    2.502164
     25          6           0       20.902004    0.153543    3.290321
     26          6           0       20.942584   -0.315206    4.696282
     27          6           0       20.228749   -1.697426    4.560958
     28          6           0       19.680379   -1.679557    3.158570
     29          6           0       22.332958   -0.328908    5.427663
     30          6           0       19.136884   -1.887003    5.685142
     31          6           0       19.412089   -2.852749    6.871327
     32          7           0       18.439716   -1.494242    0.455471
     33          6           0       18.149022   -2.481634    1.423253
     34          6           0       17.217844   -3.473921    0.847639
     35          6           0       16.956069   -3.044231   -0.446453
     36          6           0       17.712760   -1.908480   -0.680091
     37          6           0       16.785279   -4.793398    1.531709
     38          6           0       16.165585   -3.410321   -1.665503
     39          8           0       15.370961   -4.285178   -1.917221
     40          6           0       16.620489   -2.405946   -2.838973
     41          6           0       15.512159   -1.924299   -3.578587
     42          8           0       14.937494   -0.865832   -3.287983
     43          8           0       15.065776   -2.719926   -4.629168
     44          6           0       14.035178   -2.173076   -5.564201
     45          1           0       20.988125    2.929600   -2.534431
     46          1           0       22.023726    1.788472    3.731358
     47          1           0       18.545022   -3.332667    3.430830
     48          1           0       18.376057   -0.542987   -4.674776
     49          1           0       19.588117    2.024698   -4.458365
     50          1           0       21.184805    0.850461   -5.415701
     51          1           0       20.403315   -0.668351   -4.891645
     52          1           0       21.590908    0.086390   -3.869045
     53          1           0       17.529688    2.254219   -4.167485
     54          1           0       16.391484    1.144744   -3.387821
     55          1           0       16.348050    0.084039   -5.898195
     56          1           0       17.031701    1.671345   -6.284824
     57          1           0       22.086045    5.576961   -0.709198
     58          1           0       22.250530    4.465335   -2.108286
     59          1           0       23.557907    4.783002   -0.951386
     60          1           0       22.674484    6.182171    1.426842
     61          1           0       24.088950    5.453459    0.920225
     62          1           0       23.904248    6.011151    2.637542
     63          1           0       20.296306    0.341069    5.279160
     64          1           0       20.978057   -2.489274    4.551814
     65          1           0       23.038843    0.145280    4.746566
     66          1           0       22.685264   -1.285005    5.816386
     67          1           0       22.246919    0.266977    6.336456
     68          1           0       18.224785   -2.272259    5.228528
     69          1           0       18.812151   -0.874222    5.923699
     70          1           0       19.134646   -2.373786    7.810185
     71          1           0       20.464612   -3.136629    6.871558
     72          1           0       18.801714   -3.752397    6.784058
     73          1           0       16.751041   -4.612893    2.605747
     74          1           0       17.567375   -5.539968    1.391707
     75          1           0       15.819432   -5.146143    1.169287
     76          1           0       17.285123   -2.953425   -3.506630
     77          1           0       14.414133   -1.301322   -6.099491
     78          1           0       13.058395   -2.103857   -5.086954
     79          1           0       13.980177   -2.868773   -6.401411
     80         12           0      -19.474415   -0.384541   -0.171340
     81          6           0      -18.134734    2.812771    0.104091
     82          6           0      -16.339753   -1.494068   -1.154461
     83          6           0      -20.458483   -3.531998    0.053010
     84          6           0      -22.401210    0.744378    1.290831
     85          7           0      -17.443540    0.504175   -0.332684
     86          6           0      -17.165081    1.855367   -0.307502
     87          6           0      -15.766925    2.170200   -0.750611
     88          6           0      -15.358735    0.826126   -1.500372
     89          6           0      -16.398860   -0.141989   -0.952514
     90          6           0      -15.074731    0.784158   -3.076657
     91          6           0      -14.775517    2.658077    0.404853
     92          6           0      -14.991135    2.081707    1.835848
     93          1           0      -13.715359    1.725261    2.560378
     94          7           0      -18.502724   -2.276529   -0.389791
     95          6           0      -17.191739   -2.514383   -0.821024
     96          6           0      -16.884555   -3.918397   -0.825747
     97          6           0      -18.088160   -4.559416   -0.446917
     98          6           0      -19.092777   -3.480497   -0.208935
     99          6           0      -15.579094   -4.419947   -1.445146
    100          6           0      -18.202316   -6.099159   -0.374192
    101          8           0      -17.227624   -6.837737   -0.548097
    102          6           0      -19.552392   -6.634174   -0.141412
    103          7           0      -21.157350   -1.217513    0.693135
    104          6           0      -21.437058   -2.540021    0.392776
    105          6           0      -22.874574   -2.954195    0.777114
    106          6           0      -23.354041   -1.573475    1.386954
    107          6           0      -22.248547   -0.639353    1.167155
    108          6           0      -23.795440   -3.480209   -0.278232
    109          6           0      -23.671205   -1.660270    2.965024
    110          6           0      -24.979063   -0.988525    3.293272
    111          7           0      -20.267553    1.456596    0.397353
    112          6           0      -21.483490    1.758643    0.981959
    113          6           0      -21.564326    3.211861    1.254791
    114          6           0      -20.245762    3.674876    0.914488
    115          6           0      -19.534883    2.575670    0.418810
    116          6           0      -22.579188    3.993697    1.985296
    117          6           0      -19.291874    4.804415    0.911874
    118          8           0      -19.432582    5.927301    1.338155
    119          6           0      -17.920005    4.303935    0.355702
    120          6           0      -17.513629    5.110887   -0.795471
    121          8           0      -16.527446    5.832009   -0.948574
    122          8           0      -18.629854    5.166972   -1.670749
    123          6           0      -18.406760    5.896172   -2.937558
    124          1           0      -15.426941   -1.753310   -1.695803
    125          1           0      -20.954707   -4.501893   -0.019669
    126          1           0      -23.387751    1.008504    1.675850
    127          1           0      -15.771986    3.007915   -1.447881
    128          1           0      -14.414669    0.605150   -1.001729
    129          1           0      -15.085733    1.747259   -3.586659
    130          1           0      -15.813005    0.214662   -3.641066
    131          1           0      -14.041589    0.479596   -3.246113
    132          1           0      -14.734797    3.746250    0.440113
    133          1           0      -13.772671    2.392474    0.070490
    134          1           0      -15.650822    1.213970    1.806207
    135          1           0      -15.487677    2.823562    2.460698
    136          1           0      -15.197187   -5.333262   -0.987870
    137          1           0      -14.790523   -3.692987   -1.252530
    138          1           0      -15.804965   -4.610516   -2.494586
    139          1           0      -20.151087   -6.462124   -1.035379
    140          1           0      -19.983960   -6.170916    0.746410
    141          1           0      -19.407807   -7.704087    0.008257
    142          1           0      -22.802162   -3.606802    1.647463
    143          1           0      -24.131579   -1.268234    0.686723
    144          1           0      -24.786109   -3.498499    0.176314
    145          1           0      -23.534154   -4.526731   -0.435266
    146          1           0      -23.718518   -2.880855   -1.186178
    147          1           0      -22.818270   -1.210978    3.473523
    148          1           0      -23.654634   -2.650900    3.421182
    149          1           0      -24.756037   -0.084976    3.860177
    150          1           0      -25.548294   -1.533798    4.046836
    151          1           0      -25.465434   -0.659020    2.375364
    152          1           0      -23.438533    3.431289    2.353450
    153          1           0      -22.977520    4.708347    1.265921
    154          1           0      -22.009454    4.268663    2.872705
    155          1           0      -17.228959    4.424625    1.189634
    156          1           0      -18.853962    5.219712   -3.666822
    157          1           0      -17.400082    6.142095   -3.275644
    158          1           0      -19.119379    6.720401   -2.901987
 ---------------------------------------------------------------------

 SCF Done:  E(RwB97XD) =  -4070.57988167     A.U. after   19 cycles

 Excitation energies and oscillator strengths:

 Excited State   1:      Singlet-A      1.6616 eV  746.19 nm  f=0.3627  <S**2>=0.000
     309 -> 315        0.18772
     312 -> 314        0.68133
     309 <- 315        0.11474
 This state for optimization and/or second-order correction.
 Total Energy, E(TD-HF/TD-DFT) =  -4070.51881995
 Copying the excited state density for this state as the 1-particle RhoCI density.

 Excited State   2:      Singlet-A      1.6949 eV  731.52 nm  f=0.3874  <S**2>=0.000
     310 -> 316        0.16825
     311 -> 313        0.68651
     310 <- 316        0.11045

 Excited State   3:      Singlet-A      2.1227 eV  584.10 nm  f=0.2212  <S**2>=0.000
     310 -> 313        0.67194
     311 -> 316       -0.20539

 Excited State   4:      Singlet-A      2.1479 eV  577.23 nm  f=0.0864  <S**2>=0.000
     309 -> 314        0.62829
     312 -> 315       -0.30699

 Excited State   5:      Singlet-A      3.4399 eV  360.42 nm  f=0.0065  <S**2>=0.000
     302 -> 313       -0.20246
     305 -> 313        0.17555
     308 -> 313        0.63297

 The electronic state is 1-A.
 Alpha  occ. eigenvalues --  -46.95769 -46.95422 -19.29550 -19.29175 -19.25460
 Alpha  occ. eigenvalues --  -19.24609 -19.24301 -19.24026 -19.23845 -19.23438
 Alpha  occ. eigenvalues --  -14.46811 -14.46755 -14.46369 -14.44720 -14.44401
 Alpha  occ. eigenvalues --  -14.44352 -14.44230 -14.43743 -10.43570 -10.42308
 Alpha  occ. eigenvalues --  -10.39917 -10.39113 -10.39110 -10.39044 -10.35658
 Alpha  occ. eigenvalues --  -10.35354 -10.35277 -10.35178 -10.35080 -10.34996
 Alpha  occ. eigenvalues --  -10.34722 -10.34702 -10.34634 -10.34109 -10.34059
 Alpha  occ. eigenvalues --  -10.34052 -10.34010 -10.33816 -10.33569 -10.33365
 Alpha  occ. eigenvalues --  -10.33340 -10.32945 -10.32914 -10.32833 -10.32766
 Alpha  occ. eigenvalues --  -10.32581 -10.32539 -10.32345 -10.32342 -10.32285
 Alpha  occ. eigenvalues --  -10.32252 -10.32241 -10.32227 -10.32118 -10.32084
 Alpha  occ. eigenvalues --  -10.31959 -10.31884 -10.31692 -10.31394 -10.31299
 Alpha  occ. eigenvalues --  -10.31284 -10.31283 -10.31175 -10.31065 -10.30978
 Alpha  occ. eigenvalues --  -10.30840 -10.30832 -10.30799 -10.30711 -10.30545
 Alpha  occ. eigenvalues --  -10.30377 -10.30260 -10.30153 -10.30046 -10.30038
 Alpha  occ. eigenvalues --  -10.30003 -10.29869 -10.29866 -10.29861 -10.29583
 Alpha  occ. eigenvalues --  -10.29540 -10.29531 -10.29413 -10.29381 -10.29329
 Alpha  occ. eigenvalues --  -10.29066  -3.21747  -3.21390  -1.95321  -1.94962
 Alpha  occ. eigenvalues --   -1.94878  -1.94708  -1.94528  -1.94353  -1.16942
 Alpha  occ. eigenvalues --   -1.16306  -1.14412  -1.13028  -1.12579  -1.11560
 Alpha  occ. eigenvalues --   -1.09082  -1.08515  -1.07811  -1.07030  -1.06958
 Alpha  occ. eigenvalues --   -1.06901  -1.05691  -1.05187  -1.04360  -1.02946
 Alpha  occ. eigenvalues --   -0.94401  -0.93175  -0.91479  -0.91135  -0.91131
 Alpha  occ. eigenvalues --   -0.90800  -0.89866  -0.89852  -0.89754  -0.89606
 Alpha  occ. eigenvalues --   -0.89527  -0.88784  -0.88126  -0.87110  -0.86699
 Alpha  occ. eigenvalues --   -0.86333  -0.86259  -0.84929  -0.84630  -0.84242
 Alpha  occ. eigenvalues --   -0.84062  -0.83899  -0.82860  -0.82765  -0.82362
 Alpha  occ. eigenvalues --   -0.82074  -0.80758  -0.80208  -0.79425  -0.79021
 Alpha  occ. eigenvalues --   -0.78726  -0.78588  -0.78115  -0.78112  -0.77672
 Alpha  occ. eigenvalues --   -0.77369  -0.74711  -0.74600  -0.74092  -0.73073
 Alpha  occ. eigenvalues --   -0.71323  -0.71213  -0.71192  -0.70702  -0.70051
 Alpha  occ. eigenvalues --   -0.69955  -0.69265  -0.68793  -0.68314  -0.68039
 Alpha  occ. eigenvalues --   -0.67517  -0.66965  -0.66868  -0.66482  -0.66222
 Alpha  occ. eigenvalues --   -0.65957  -0.64499  -0.63477  -0.63034  -0.62221
 Alpha  occ. eigenvalues --   -0.62055  -0.61369  -0.61043  -0.60907  -0.60242
 Alpha  occ. eigenvalues --   -0.60016  -0.59513  -0.59478  -0.59166  -0.59156
 Alpha  occ. eigenvalues --   -0.58559  -0.58265  -0.57738  -0.57622  -0.57465
 Alpha  occ. eigenvalues --   -0.57312  -0.57015  -0.56514  -0.55902  -0.55817
 Alpha  occ. eigenvalues --   -0.55764  -0.55352  -0.55004  -0.54832  -0.54619
 Alpha  occ. eigenvalues --   -0.54582  -0.54530  -0.54362  -0.54079  -0.53915
 Alpha  occ. eigenvalues --   -0.53884  -0.53759  -0.53512  -0.53206  -0.53014
 Alpha  occ. eigenvalues --   -0.52717  -0.52516  -0.52336  -0.52199  -0.52168
 Alpha  occ. eigenvalues --   -0.52056  -0.51783  -0.51623  -0.51521  -0.51520
 Alpha  occ. eigenvalues --   -0.51465  -0.51222  -0.51155  -0.50742  -0.50724
 Alpha  occ. eigenvalues --   -0.50634  -0.50469  -0.50220  -0.50158  -0.50066
 Alpha  occ. eigenvalues --   -0.49928  -0.49681  -0.49648  -0.49452  -0.49335
 Alpha  occ. eigenvalues --   -0.49171  -0.48841  -0.48431  -0.48359  -0.48181
 Alpha  occ. eigenvalues --   -0.48129  -0.48110  -0.47695  -0.47626  -0.47441
 Alpha  occ. eigenvalues --   -0.47289  -0.47286  -0.47026  -0.46879  -0.46863
 Alpha  occ. eigenvalues --   -0.46825  -0.46716  -0.46601  -0.46542  -0.46507
 Alpha  occ. eigenvalues --   -0.46414  -0.45925  -0.45830  -0.45410  -0.45327
 Alpha  occ. eigenvalues --   -0.45259  -0.45134  -0.45013  -0.44892  -0.44716
 Alpha  occ. eigenvalues --   -0.44715  -0.44647  -0.44417  -0.44143  -0.44031
 Alpha  occ. eigenvalues --   -0.43926  -0.43760  -0.43641  -0.43550  -0.43188
 Alpha  occ. eigenvalues --   -0.43090  -0.42895  -0.42538  -0.42337  -0.42254
 Alpha  occ. eigenvalues --   -0.42076  -0.41849  -0.41771  -0.41746  -0.40978
 Alpha  occ. eigenvalues --   -0.40401  -0.40241  -0.39929  -0.39551  -0.39370
 Alpha  occ. eigenvalues --   -0.39083  -0.38875  -0.38513  -0.38453  -0.38155
 Alpha  occ. eigenvalues --   -0.37704  -0.37628  -0.37114  -0.36741  -0.35543
 Alpha  occ. eigenvalues --   -0.35539  -0.35024  -0.34746  -0.33960  -0.33606
 Alpha  occ. eigenvalues --   -0.33467  -0.33264  -0.33107  -0.32765  -0.32748
 Alpha  occ. eigenvalues --   -0.32138  -0.31801  -0.31779  -0.25986  -0.25449
 Alpha  occ. eigenvalues --   -0.23450  -0.22990
 Alpha virt. eigenvalues --   -0.07409  -0.06976  -0.00283   0.01589   0.02754
 Alpha virt. eigenvalues --    0.03056   0.04592   0.04727   0.04888   0.05502
 Alpha virt. eigenvalues --    0.06239   0.06749   0.07494   0.07740   0.08722

 Mulliken charges:
               1
     1  Mg   0.974103
     2  C   -0.020887
     3  C   -0.054247
     4  C   -0.053695
     5  C   -0.109731
     6  N   -0.302026
     7  C   -0.007246
     8  C   -0.073270
     9  C   -0.132779
    10  C    0.070392
    11  C    0.036897
    12  C    0.034124
    13  C   -0.096327
    14  H    0.049881
    15  N   -0.460699
    16  C    0.091578
    17  C   -0.147534
    18  C   -0.078603
    19  C    0.134346
    20  C    0.063438
    21  C    0.051978
    22  O   -0.201397
    23  C   -0.020747
    24  N   -0.271191
    25  C    0.014721
    26  C   -0.095326
    27  C   -0.044759
    28  C    0.057948
    29  C    0.023222
    30  C   -0.029578
    31  C   -0.028127
    32  N   -0.485621
    33  C    0.125840
    34  C   -0.223661
    35  C   -0.055343
    36  C    0.152396
    37  C    0.077568
    38  C    0.163234
    39  O   -0.174798
    40  C   -0.083162
    41  C    0.267127
    42  O   -0.273019
    43  O   -0.390010
    44  C    0.157584
    45  H   -0.025729
    46  H    0.021075
    47  H   -0.000316
    48  H    0.020567
    49  H    0.035022
    50  H    0.041916
    51  H    0.027841
    52  H    0.045267
    53  H    0.025028
    54  H    0.073881
    55  H    0.043877
    56  H    0.037041
    57  H    0.048478
    58  H    0.053682
    59  H    0.041985
    60  H    0.049891
    61  H    0.042944
    62  H    0.056141
    63  H    0.045893
    64  H    0.031648
    65  H    0.049290
    66  H    0.037533
    67  H    0.032034
    68  H    0.020934
    69  H    0.014757
    70  H    0.040167
    71  H    0.034881
    72  H    0.038252
    73  H    0.028706
    74  H    0.052687
    75  H    0.061930
    76  H    0.080198
    77  H    0.043677
    78  H    0.073812
    79  H    0.042412
    80  Mg   0.956300
    81  C   -0.040670
    82  C   -0.109644
    83  C   -0.099566
    84  C   -0.098524
    85  N   -0.351040
    86  C    0.005397
    87  C   -0.079289
    88  C   -0.050081
    89  C    0.025538
    90  C    0.014870
    91  C   -0.013983
    92  C   -0.131295
    93  H    0.040759
    94  N   -0.438347
    95  C    0.180468
    96  C   -0.147168
    97  C   -0.106902
    98  C    0.206915
    99  C    0.079740
   100  C    0.051293
   101  O   -0.236255
   102  C   -0.010383
   103  N   -0.368894
   104  C    0.022512
   105  C   -0.081694
   106  C   -0.120615
   107  C    0.043023
   108  C    0.052820
   109  C   -0.004585
   110  C   -0.029154
   111  N   -0.430948
   112  C    0.160514
   113  C   -0.200524
   114  C   -0.051339
   115  C    0.127672
   116  C    0.085792
   117  C    0.113318
   118  O   -0.186445
   119  C   -0.040945
   120  C    0.283509
   121  O   -0.239855
   122  O   -0.406699
   123  C    0.140533
   124  H   -0.005289
   125  H   -0.020559
   126  H   -0.017725
   127  H    0.039091
   128  H    0.033473
   129  H    0.033375
   130  H    0.047791
   131  H    0.043716
   132  H    0.053280
   133  H    0.034550
   134  H    0.067842
   135  H    0.053289
   136  H    0.060375
   137  H    0.036885
   138  H    0.064882
   139  H    0.070816
   140  H    0.065181
   141  H    0.051352
   142  H    0.031709
   143  H    0.032408
   144  H    0.042815
   145  H    0.037344
   146  H    0.047632
   147  H    0.039951
   148  H    0.030697
   149  H    0.027355
   150  H    0.038690
   151  H    0.043325
   152  H    0.019135
   153  H    0.066735
   154  H    0.074737
   155  H    0.069346
   156  H    0.037378
   157  H    0.075531
   158  H    0.056757
 Sum of Mulliken charges =  -0.00000

 Dipole moment (field-independent basis, Debye):
    X=             -0.3855    Y=              0.2938    Z=             -4.1264  Tot=              4.1548
 Quadrupole moment (field-independent basis, Debye-Ang):
   XX=           -196.6001   YY=           -561.2663   ZZ=           -467.5999
   XY=            131.0495   XZ=             -7.2864   YZ=            -35.2516

 Normal termination of Gaussian 16 at Sun Sep 19 14:39:07 2021.
