 Gaussian 16, Revision A.03,
 Gaussian 16:  ES64L-G16RevA.03 25-Dec-2016

 --------------------------------
 #p wB97XD/Def2SVP td=(nstates=5)
 --------------------------------

 --------------------------------
 TDDFT excited states in gaussian
 --------------------------------
 Symbolic Z-matrix:
 Charge =  0 Multiplicity = 1

                         Standard orientation:
 ---------------------------------------------------------------------
 Center     Atomic      Atomic             Coordinates (Angstroms)
 Number     Number       Type             X           Y           Z
 ---------------------------------------------------------------------
      1         12           0       23.573480   -0.617338    0.094755
      2          6           0       21.548788    1.975351    1.068594
      3          6           0       25.951558    1.671831   -0.833619
      4          6           0       25.588666   -3.219179   -0.999596
      5          6           0       20.977251   -2.851212    0.633054
      6          7           0       23.740165    1.620029    0.057726
      7          6           0       22.785527    2.428393    0.606032
      8          6           0       23.191674    3.821435    0.558568
      9          6           0       24.495027    3.837834   -0.224390
     10          6           0       24.775960    2.281426   -0.398857
     11          6           0       24.546862    4.611352   -1.587079
     12          6           0       23.306770    4.440922    1.992974
     13          6           0       22.953730    5.961038    2.143240
     14          1           0       23.180343    6.861646    0.913123
     15          7           0       25.560969   -0.727168   -0.690609
     16          6           0       26.368366    0.360051   -0.977810
     17          6           0       27.650230   -0.128771   -1.524948
     18          6           0       27.561831   -1.586656   -1.575470
     19          6           0       26.220591   -1.911915   -1.059909
     20          6           0       28.794403    0.764157   -1.976463
     21          6           0       28.654276   -2.563866   -1.942124
     22          8           0       28.427929   -3.783433   -1.853435
     23          6           0       29.996392   -2.182196   -2.444231
     24          7           0       23.309022   -2.729255   -0.228330
     25          6           0       24.292380   -3.544580   -0.619997
     26          6           0       23.849555   -5.014575   -0.532015
     27          6           0       22.422540   -4.963584    0.243716
     28          6           0       22.259081   -3.403541    0.291836
     29          6           0       23.804424   -5.680041   -1.942011
     30          6           0       22.418766   -5.562411    1.676965
     31          6           0       21.608874   -6.855199    1.856292
     32          7           0       21.605583   -0.508857    0.660338
     33          6           0       20.641485   -1.505540    0.828174
     34          6           0       19.367439   -0.909657    1.288032
     35          6           0       19.719049    0.458647    1.365079
     36          6           0       21.070209    0.647281    0.969067
     37          6           0       18.128616   -1.579400    1.629012
     38          6           0       19.221084    1.778024    1.806016
     39          8           0       18.180310    2.112819    2.306457
     40          6           0       20.383762    2.810015    1.584990
     41          6           0       19.871914    3.917880    0.762544
     42          8           0       19.633019    3.744494   -0.443440
     43          8           0       19.827281    5.125014    1.390238
     44          6           0       19.528666    6.315380    0.600293
     45          1           0       26.688045    2.426322   -1.117872
     46          1           0       26.223736   -4.020754   -1.383137
     47          1           0       20.234765   -3.602661    0.909261
     48          1           0       22.432834    4.371335    0.000841
     49          1           0       25.333207    4.136000    0.406488
     50          1           0       23.685958    5.159476   -1.971216
     51          1           0       24.840987    3.903102   -2.361271
     52          1           0       25.366303    5.327895   -1.648659
     53          1           0       24.290212    4.220673    2.408398
     54          1           0       22.734095    3.825768    2.686788
     55          1           0       23.509439    6.392181    2.976428
     56          1           0       21.890194    6.135779    2.303183
     57          1           0       28.640525    1.816374   -1.739659
     58          1           0       28.915112    0.729644   -3.059574
     59          1           0       29.686109    0.555895   -1.385474
     60          1           0       30.566455   -3.107129   -2.526190
     61          1           0       30.518299   -1.474379   -1.798924
     62          1           0       29.890588   -1.632538   -3.379686
     63          1           0       24.528247   -5.506024    0.165211
     64          1           0       21.609357   -5.381025   -0.349964
     65          1           0       24.321342   -6.638722   -1.986785
     66          1           0       24.272573   -5.038272   -2.688881
     67          1           0       22.739529   -5.746816   -2.166073
     68          1           0       22.041108   -4.872703    2.430876
     69          1           0       23.427210   -5.783914    2.027049
     70          1           0       21.581735   -7.399744    0.912381
     71          1           0       20.589026   -6.577536    2.120721
     72          1           0       22.042061   -7.376780    2.708763
     73          1           0       17.475369   -0.968150    2.251308
     74          1           0       18.278944   -2.530948    2.138593
     75          1           0       17.530420   -1.646376    0.720172
     76          1           0       20.600770    3.096769    2.614521
     77          1           0       18.518382    6.340270    0.190961
     78          1           0       20.289306    6.478463   -0.163147
     79          1           0       19.564423    7.194827    1.243062
     80         12           0      -23.582059   -0.655462    0.012863
     81          6           0      -22.647605    2.452893   -1.294642
     82          6           0      -23.809460    0.731259    3.128292
     83          6           0      -24.122673   -3.685406    1.224627
     84          6           0      -23.119921   -2.011987   -3.261689
     85          7           0      -23.208209    1.379182    0.807998
     86          6           0      -22.902870    2.531958    0.119108
     87          6           0      -23.071175    3.746272    1.013576
     88          6           0      -23.160788    3.113158    2.458226
     89          6           0      -23.505528    1.634960    2.069849
     90          6           0      -21.864570    3.216304    3.251888
     91          6           0      -24.246095    4.645876    0.482396
     92          6           0      -24.630047    5.797050    1.453014
     93          1           0      -23.520825    6.351832    2.322376
     94          7           0      -23.924495   -1.347966    1.847985
     95          6           0      -23.880443   -0.651134    3.048947
     96          6           0      -24.097723   -1.540107    4.203808
     97          6           0      -24.227510   -2.834478    3.612671
     98          6           0      -24.081167   -2.652254    2.170959
     99          6           0      -24.193719   -1.050122    5.600027
    100          6           0      -24.454040   -4.128708    4.350654
    101          8           0      -24.603172   -5.225968    3.744780
    102          6           0      -24.593524   -4.159928    5.848534
    103          7           0      -23.670350   -2.585574   -0.920131
    104          6           0      -23.915532   -3.647969   -0.152842
    105          6           0      -23.793128   -4.986714   -1.005428
    106          6           0      -23.418045   -4.436338   -2.492488
    107          6           0      -23.383677   -2.932113   -2.218902
    108          6           0      -22.686546   -5.905366   -0.342517
    109          6           0      -24.507143   -4.752552   -3.604704
    110          6           0      -24.381263   -6.137739   -4.301595
    111          7           0      -22.956520   -0.013285   -1.862462
    112          6           0      -22.920308   -0.625523   -3.143121
    113          6           0      -22.537523    0.414308   -4.195493
    114          6           0      -22.348644    1.613809   -3.516502
    115          6           0      -22.697686    1.311341   -2.104924
    116          6           0      -22.429008    0.223892   -5.675991
    117          6           0      -22.045360    3.021196   -3.630352
    118          8           0      -21.741986    3.728125   -4.596587
    119          6           0      -22.405727    3.679583   -2.207396
    120          6           0      -21.322135    4.602461   -1.698526
    121          8           0      -20.373661    4.237519   -1.057830
    122          8           0      -21.687467    5.957549   -1.864271
    123          6           0      -20.983225    6.950807   -1.039525
    124          1           0      -23.791735    1.307562    4.056054
    125          1           0      -24.286263   -4.685043    1.632952
    126          1           0      -22.860645   -2.374561   -4.258668
    127          1           0      -22.166579    4.346182    0.922479
    128          1           0      -23.979575    3.474967    3.080983
    129          1           0      -22.125993    3.736817    4.173082
    130          1           0      -21.113022    3.693788    2.623590
    131          1           0      -21.538961    2.257627    3.654939
    132          1           0      -24.960553    3.890558    0.156548
    133          1           0      -23.876323    5.078643   -0.446558
    134          1           0      -25.422635    5.353984    2.056071
    135          1           0      -25.021996    6.621641    0.857764
    136          1           0      -23.325201   -1.512608    6.068628
    137          1           0      -25.140559   -1.297756    6.079152
    138          1           0      -24.076513    0.014918    5.804222
    139          1           0      -25.483641   -3.599851    6.131776
    140          1           0      -23.634856   -3.707614    6.105478
    141          1           0      -24.605162   -5.144835    6.314536
    142          1           0      -24.821457   -5.344245   -0.939639
    143          1           0      -22.392080   -4.573765   -2.836607
    144          1           0      -22.201135   -5.470407    0.530978
    145          1           0      -21.898895   -6.116106   -1.066407
    146          1           0      -23.220733   -6.780059    0.027328
    147          1           0      -24.651409   -3.919178   -4.291698
    148          1           0      -25.459606   -4.791628   -3.077127
    149          1           0      -25.340561   -6.638324   -4.175057
    150          1           0      -23.525207   -6.661686   -3.876251
    151          1           0      -24.204855   -6.042191   -5.373237
    152          1           0      -23.295561    0.724111   -6.108936
    153          1           0      -22.408462   -0.839058   -5.919467
    154          1           0      -21.575245    0.670382   -6.185305
    155          1           0      -23.345544    4.211234   -2.353522
    156          1           0      -20.021595    7.088575   -1.533166
    157          1           0      -20.970178    6.645489    0.006954
    158          1           0      -21.593304    7.853248   -1.067580
 ---------------------------------------------------------------------

 SCF Done:  E(RwB97XD) =  -4070.66193624     A.U. after   20 cycles

 Excitation energies and oscillator strengths:

 Excited State   1:      Singlet-A      1.6549 eV  749.19 nm  f=0.3800  <S**2>=0.000
     309 -> 315       -0.20544
     312 -> 314        0.67803
     309 <- 315       -0.12142
 This state for optimization and/or second-order correction.
 Total Energy, E(TD-HF/TD-DFT) =  -4070.60111960
 Copying the excited state density for this state as the 1-particle RhoCI density.

 Excited State   2:      Singlet-A      1.6696 eV  742.58 nm  f=0.3876  <S**2>=0.000
     310 -> 316        0.19473
     311 -> 313        0.68027
     310 <- 316        0.11869

 Excited State   3:      Singlet-A      2.1969 eV  564.36 nm  f=0.0827  <S**2>=0.000
     310 -> 313        0.62407
     311 -> 316       -0.31820

 Excited State   4:      Singlet-A      2.2347 eV  554.81 nm  f=0.0335  <S**2>=0.000
     309 -> 314        0.58749
     312 -> 315        0.38609

 Excited State   5:      Singlet-A      3.4244 eV  362.06 nm  f=0.1885  <S**2>=0.000
     308 -> 313        0.53315
     310 -> 313        0.16270
     311 -> 316        0.41079

 The electronic state is 1-A.
 Alpha  occ. eigenvalues --  -46.95214 -46.94398 -19.31177 -19.29198 -19.25205
 Alpha  occ. eigenvalues --  -19.24249 -19.24248 -19.24077 -19.23438 -19.23399
 Alpha  occ. eigenvalues --  -14.46721 -14.46398 -14.46278 -14.46106 -14.44565
 Alpha  occ. eigenvalues --  -14.44487 -14.44113 -14.43818 -10.43407 -10.43261
 Alpha  occ. eigenvalues --  -10.39563 -10.39219 -10.38925 -10.38861 -10.36061
 Alpha  occ. eigenvalues --  -10.35470 -10.34923 -10.34912 -10.34743 -10.34682
 Alpha  occ. eigenvalues --  -10.34655 -10.34645 -10.34411 -10.34372 -10.34353
 Alpha  occ. eigenvalues --  -10.34349 -10.34156 -10.34111 -10.34062 -10.33941
 Alpha  occ. eigenvalues --  -10.33576 -10.33475 -10.33391 -10.33334 -10.33282
 Alpha  occ. eigenvalues --  -10.33223 -10.32666 -10.32599 -10.32509 -10.32331
 Alpha  occ. eigenvalues --  -10.32320 -10.32276 -10.32227 -10.32048 -10.31956
 Alpha  occ. eigenvalues --  -10.31882 -10.31786 -10.31735 -10.31681 -10.31648
 Alpha  occ. eigenvalues --  -10.31552 -10.31423 -10.31422 -10.31322 -10.31244
 Alpha  occ. eigenvalues --  -10.31096 -10.31022 -10.30969 -10.30620 -10.30515
 Alpha  occ. eigenvalues --  -10.30362 -10.30290 -10.30090 -10.30067 -10.30036
 Alpha  occ. eigenvalues --  -10.29961 -10.29922 -10.29918 -10.29914 -10.29600
 Alpha  occ. eigenvalues --  -10.29410 -10.29351 -10.29305 -10.29181 -10.29179
 Alpha  occ. eigenvalues --  -10.29150  -3.21083  -3.20498  -1.94693  -1.94188
 Alpha  occ. eigenvalues --   -1.94099  -1.94060  -1.93611  -1.93500  -1.18604
 Alpha  occ. eigenvalues --   -1.17602  -1.13178  -1.11359  -1.11125  -1.10008
 Alpha  occ. eigenvalues --   -1.09965  -1.09301  -1.07105  -1.06309  -1.06048
 Alpha  occ. eigenvalues --   -1.05461  -1.05386  -1.04808  -1.03387  -1.02996
 Alpha  occ. eigenvalues --   -0.94444  -0.93563  -0.91001  -0.90835  -0.90415
 Alpha  occ. eigenvalues --   -0.90159  -0.89731  -0.89583  -0.89470  -0.89118
 Alpha  occ. eigenvalues --   -0.88650  -0.88627  -0.88222  -0.88201  -0.86135
 Alpha  occ. eigenvalues --   -0.85876  -0.85440  -0.84829  -0.84198  -0.84100
 Alpha  occ. eigenvalues --   -0.83797  -0.83781  -0.83143  -0.82672  -0.82501
 Alpha  occ. eigenvalues --   -0.81942  -0.80923  -0.80394  -0.79478  -0.79329
 Alpha  occ. eigenvalues --   -0.79234  -0.78877  -0.78140  -0.77681  -0.76809
 Alpha  occ. eigenvalues --   -0.76463  -0.74586  -0.74051  -0.73479  -0.73419
 Alpha  occ. eigenvalues --   -0.71327  -0.71158  -0.70496  -0.70272  -0.70258
 Alpha  occ. eigenvalues --   -0.70010  -0.69067  -0.68916  -0.67766  -0.67391
 Alpha  occ. eigenvalues --   -0.67331  -0.67096  -0.67036  -0.66320  -0.65896
 Alpha  occ. eigenvalues --   -0.65746  -0.64701  -0.63255  -0.62642  -0.61827
 Alpha  occ. eigenvalues --   -0.61555  -0.61450  -0.61205  -0.60705  -0.60684
 Alpha  occ. eigenvalues --   -0.60206  -0.59718  -0.59505  -0.59269  -0.58744
 Alpha  occ. eigenvalues --   -0.58114  -0.58033  -0.57821  -0.57801  -0.57344
 Alpha  occ. eigenvalues --   -0.56661  -0.56510  -0.56113  -0.55906  -0.55865
 Alpha  occ. eigenvalues --   -0.55583  -0.55387  -0.55180  -0.54868  -0.54716
 Alpha  occ. eigenvalues --   -0.54427  -0.54334  -0.54138  -0.54128  -0.53814
 Alpha  occ. eigenvalues --   -0.53630  -0.53541  -0.53403  -0.53335  -0.53226
 Alpha  occ. eigenvalues --   -0.53076  -0.53061  -0.52772  -0.52376  -0.52123
 Alpha  occ. eigenvalues --   -0.52019  -0.51903  -0.51799  -0.51442  -0.51358
 Alpha  occ. eigenvalues --   -0.51283  -0.51216  -0.50920  -0.50901  -0.50761
 Alpha  occ. eigenvalues --   -0.50446  -0.50412  -0.50369  -0.50037  -0.50006
 Alpha  occ. eigenvalues --   -0.50002  -0.49843  -0.49396  -0.49339  -0.49150
 Alpha  occ. eigenvalues --   -0.49052  -0.48764  -0.48632  -0.48175  -0.48085
 Alpha  occ. eigenvalues --   -0.47994  -0.47802  -0.47654  -0.47618  -0.47493
 Alpha  occ. eigenvalues --   -0.47435  -0.47145  -0.47119  -0.47076  -0.46834
 Alpha  occ. eigenvalues --   -0.46751  -0.46606  -0.46462  -0.46246  -0.46086
 Alpha  occ. eigenvalues --   -0.45895  -0.45747  -0.45549  -0.45399  -0.45390
 Alpha  occ. eigenvalues --   -0.45084  -0.45049  -0.44981  -0.44948  -0.44817
 Alpha  occ. eigenvalues --   -0.44533  -0.44458  -0.44207  -0.44082  -0.44062
 Alpha  occ. eigenvalues --   -0.43783  -0.43472  -0.43368  -0.43278  -0.43127
 Alpha  occ. eigenvalues --   -0.42828  -0.42807  -0.42573  -0.42237  -0.42236
 Alpha  occ. eigenvalues --   -0.42065  -0.41853  -0.41403  -0.41099  -0.40939
 Alpha  occ. eigenvalues --   -0.40448  -0.40085  -0.40076  -0.39880  -0.39412
 Alpha  occ. eigenvalues --   -0.39192  -0.38809  -0.38769  -0.38694  -0.38234
 Alpha  occ. eigenvalues --   -0.37924  -0.37788  -0.36466  -0.36122  -0.36013
 Alpha  occ. eigenvalues --   -0.35906  -0.35393  -0.35354  -0.33460  -0.33269
 Alpha  occ. eigenvalues --   -0.33049  -0.32884  -0.32691  -0.32578  -0.32433
 Alpha  occ. eigenvalues --   -0.32220  -0.32215  -0.31690  -0.25895  -0.25788
 Alpha  occ. eigenvalues --   -0.22596  -0.22203
 Alpha virt. eigenvalues --   -0.06644  -0.06221  -0.00223   0.00194   0.01853
 Alpha virt. eigenvalues --    0.02598   0.04273   0.04695   0.06129   0.06330
 Alpha virt. eigenvalues --    0.06621   0.06722   0.07715   0.07950   0.08502

 Mulliken charges:
               1
     1  Mg   0.952472
     2  C   -0.030061
     3  C   -0.087695
     4  C   -0.053751
     5  C   -0.079005
     6  N   -0.317195
     7  C   -0.008952
     8  C   -0.054223
     9  C   -0.041519
    10  C   -0.009049
    11  C    0.019974
    12  C    0.021362
    13  C   -0.115221
    14  H    0.015634
    15  N   -0.461394
    16  C    0.197416
    17  C   -0.169604
    18  C   -0.061163
    19  C    0.119925
    20  C    0.061121
    21  C    0.038444
    22  O   -0.262821
    23  C    0.013522
    24  N   -0.333086
    25  C    0.064139
    26  C   -0.091944
    27  C   -0.098941
    28  C    0.041431
    29  C    0.031135
    30  C   -0.015245
    31  C   -0.053801
    32  N   -0.449292
    33  C    0.129766
    34  C   -0.162246
    35  C   -0.055514
    36  C    0.145199
    37  C    0.075986
    38  C    0.096395
    39  O   -0.183870
    40  C   -0.042006
    41  C    0.280595
    42  O   -0.276060
    43  O   -0.352452
    44  C    0.141015
    45  H   -0.023834
    46  H    0.028205
    47  H   -0.002378
    48  H    0.045967
    49  H    0.034441
    50  H    0.048899
    51  H    0.031147
    52  H    0.026857
    53  H    0.018608
    54  H    0.024737
    55  H    0.055062
    56  H    0.067028
    57  H    0.025636
    58  H    0.064215
    59  H    0.051434
    60  H    0.063659
    61  H    0.041580
    62  H    0.053073
    63  H    0.040539
    64  H    0.038386
    65  H    0.048235
    66  H    0.046067
    67  H    0.029742
    68  H    0.031749
    69  H    0.025720
    70  H    0.040603
    71  H    0.032182
    72  H    0.041524
    73  H    0.049763
    74  H    0.047500
    75  H    0.057532
    76  H    0.066856
    77  H    0.067250
    78  H    0.052472
    79  H    0.050117
    80  Mg   0.985064
    81  C   -0.030036
    82  C   -0.097551
    83  C   -0.088005
    84  C   -0.091690
    85  N   -0.320838
    86  C   -0.001277
    87  C   -0.052376
    88  C   -0.133846
    89  C    0.011164
    90  C    0.044504
    91  C   -0.023162
    92  C   -0.099832
    93  H    0.046679
    94  N   -0.499496
    95  C    0.214668
    96  C   -0.158493
    97  C   -0.076733
    98  C    0.175184
    99  C    0.073498
   100  C    0.037753
   101  O   -0.272520
   102  C    0.020644
   103  N   -0.348860
   104  C    0.045710
   105  C   -0.087836
   106  C   -0.049411
   107  C    0.040522
   108  C    0.013474
   109  C   -0.039889
   110  C   -0.032203
   111  N   -0.452272
   112  C    0.125092
   113  C   -0.194096
   114  C   -0.009017
   115  C    0.139342
   116  C    0.070673
   117  C    0.151176
   118  O   -0.214999
   119  C   -0.144449
   120  C    0.289233
   121  O   -0.219253
   122  O   -0.405881
   123  C    0.143379
   124  H   -0.011167
   125  H    0.021180
   126  H    0.001228
   127  H    0.028683
   128  H    0.029429
   129  H    0.028578
   130  H    0.059115
   131  H    0.036180
   132  H    0.041247
   133  H    0.036843
   134  H    0.058414
   135  H    0.059612
   136  H    0.054155
   137  H    0.057876
   138  H    0.036145
   139  H    0.065630
   140  H    0.039240
   141  H    0.055193
   142  H    0.050609
   143  H    0.044487
   144  H    0.052677
   145  H    0.038292
   146  H    0.049586
   147  H    0.034808
   148  H    0.019187
   149  H    0.041736
   150  H    0.039445
   151  H    0.036825
   152  H    0.060574
   153  H    0.027134
   154  H    0.060476
   155  H    0.091831
   156  H    0.068565
   157  H    0.050147
   158  H    0.052305
 Sum of Mulliken charges =  -0.00000

 Dipole moment (field-independent basis, Debye):
    X=              0.8480    Y=              2.3385    Z=              4.6341  Tot=              5.2596
 Quadrupole moment (field-independent basis, Debye-Ang):
   XX=           -253.3673   YY=           -482.6322   ZZ=           -494.8264
   XY=             41.9533   XZ=            -65.8736   YZ=             24.9399

 Normal termination of Gaussian 16 at Sun Sep 19 23:21:02 2021.
