 Gaussian 16, Revision A.03,
 Gaussian 16:  ES64L-G16RevA.03 25-Dec-2016

 --------------------------------
 #p wB97XD/Def2SVP td=(nstates=5)
 --------------------------------

 --------------------------------
 TDDFT excited states in gaussian
 --------------------------------
 Symbolic Z-matrix:
 Charge =  0 Multiplicity = 1

                         Standard orientation:
 ---------------------------------------------------------------------
 Center     Atomic      Atomic             Coordinates (Angstroms)
 Number     Number       Type             X           Y           Z
 ---------------------------------------------------------------------
      1         12           0      -26.479012   -0.435654   -0.278358
      2          6           0      -24.814430    2.555608   -0.504841
      3          6           0      -27.749591    0.572398    2.742716
      4          6           0      -28.078779   -3.498141    0.021766
      5          6           0      -24.824146   -1.574181   -3.104227
      6          7           0      -26.274699    1.365184    1.044594
      7          6           0      -25.593899    2.481848    0.650894
      8          6           0      -25.716267    3.541570    1.635672
      9          6           0      -26.463744    2.923297    2.806585
     10          6           0      -26.852594    1.498822    2.213766
     11          6           0      -25.738957    2.816639    4.192676
     12          6           0      -26.413998    4.810617    1.037992
     13          6           0      -25.956555    6.203557    1.593360
     14          1           0      -25.427794    6.245623    3.040522
     15          7           0      -27.835243   -1.268798    1.151845
     16          6           0      -28.234287   -0.655414    2.326980
     17          6           0      -29.151240   -1.559880    3.049906
     18          6           0      -29.265944   -2.776930    2.249015
     19          6           0      -28.402769   -2.552283    1.076418
     20          6           0      -29.791030   -1.249634    4.393310
     21          6           0      -30.178144   -3.956782    2.491194
     22          8           0      -30.205361   -4.879693    1.658165
     23          6           0      -31.040212   -4.127709    3.685632
     24          7           0      -26.407117   -2.312069   -1.331169
     25          6           0      -27.189093   -3.354342   -1.035645
     26          6           0      -27.065880   -4.449829   -2.107768
     27          6           0      -26.198096   -3.760055   -3.295998
     28          6           0      -25.849477   -2.419696   -2.557980
     29          6           0      -26.447147   -5.754821   -1.518585
     30          6           0      -26.972541   -3.478659   -4.612761
     31          6           0      -26.549838   -4.319745   -5.826549
     32          7           0      -25.034223    0.274361   -1.548293
     33          6           0      -24.428974   -0.303787   -2.666528
     34          6           0      -23.460987    0.640624   -3.267220
     35          6           0      -23.599753    1.755985   -2.407839
     36          6           0      -24.549178    1.481601   -1.387374
     37          6           0      -22.653267    0.470009   -4.458012
     38          6           0      -23.186497    3.163555   -2.231447
     39          8           0      -22.478205    3.877044   -2.890991
     40          6           0      -23.932573    3.710351   -0.962564
     41          6           0      -22.931024    4.262094   -0.036147
     42          8           0      -22.170234    3.504760    0.587691
     43          8           0      -23.015950    5.605552    0.166522
     44          6           0      -22.202126    6.208924    1.217136
     45          1           0      -28.137929    0.923958    3.700875
     46          1           0      -28.561624   -4.469002    0.153030
     47          1           0      -24.426305   -1.926624   -4.058040
     48          1           0      -24.710993    3.815239    1.957882
     49          1           0      -27.447465    3.376808    2.933381
     50          1           0      -24.729215    3.199051    4.345449
     51          1           0      -25.725495    1.766019    4.481669
     52          1           0      -26.311675    3.244056    5.016095
     53          1           0      -27.496246    4.696288    1.100558
     54          1           0      -26.343601    4.769474   -0.048792
     55          1           0      -26.773793    6.921451    1.518197
     56          1           0      -25.088497    6.604336    1.070792
     57          1           0      -29.616456   -0.228082    4.729269
     58          1           0      -29.379596   -1.883302    5.179491
     59          1           0      -30.876651   -1.244438    4.297495
     60          1           0      -31.630128   -5.026912    3.510634
     61          1           0      -31.697010   -3.277579    3.874595
     62          1           0      -30.417712   -4.162927    4.579862
     63          1           0      -28.060333   -4.586965   -2.532651
     64          1           0      -25.271490   -4.295930   -3.501465
     65          1           0      -27.014001   -6.653283   -1.762962
     66          1           0      -26.397761   -5.703694   -0.430563
     67          1           0      -25.428934   -5.760973   -1.908290
     68          1           0      -26.906797   -2.440971   -4.937699
     69          1           0      -28.045160   -3.633364   -4.493865
     70          1           0      -26.152923   -5.275646   -5.484578
     71          1           0      -25.754577   -3.784442   -6.344352
     72          1           0      -27.411222   -4.358552   -6.492069
     73          1           0      -22.297647    1.415762   -4.866298
     74          1           0      -23.168827   -0.064114   -5.255900
     75          1           0      -21.709126    0.018695   -4.152682
     76          1           0      -24.572842    4.469351   -1.413372
     77          1           0      -21.128474    6.169519    1.031221
     78          1           0      -22.468281    5.809067    2.195546
     79          1           0      -22.412193    7.277100    1.269376
     80         12           0       25.933746   -0.988859    0.155647
     81          6           0       26.768001    2.360832   -1.077636
     82          6           0       24.500877    0.616888    2.920497
     83          6           0       25.471467   -3.926681    1.490969
     84          6           0       27.229330   -2.332301   -2.721601
     85          7           0       25.852369    1.187271    0.931174
     86          6           0       26.136963    2.424119    0.214156
     87          6           0       25.817366    3.700149    1.022130
     88          6           0       25.271171    3.008021    2.401670
     89          6           0       25.199368    1.494989    2.116815
     90          6           0       26.102266    3.343293    3.624856
     91          6           0       24.828832    4.614224    0.236769
     92          6           0       24.213843    5.726935    1.031218
     93          1           0       24.114075    7.111879    0.431512
     94          7           0       25.113105   -1.615223    1.990177
     95          6           0       24.565910   -0.814676    2.999279
     96          6           0       24.047235   -1.661238    4.072123
     97          6           0       24.317571   -3.032934    3.669254
     98          6           0       24.999506   -2.941187    2.325509
     99          6           0       23.270547   -1.140044    5.336480
    100          6           0       24.079880   -4.326518    4.361448
    101          8           0       24.329356   -5.429259    3.892967
    102          6           0       23.392659   -4.350488    5.663571
    103          7           0       26.201628   -2.810878   -0.531018
    104          6           0       26.059066   -3.892322    0.237393
    105          6           0       26.409416   -5.203198   -0.505022
    106          6           0       26.526445   -4.705820   -1.930841
    107          6           0       26.735327   -3.154224   -1.734514
    108          6           0       27.686479   -5.861085    0.004708
    109          6           0       25.472688   -4.962808   -2.976775
    110          6           0       24.129460   -4.333141   -2.675475
    111          7           0       26.906779   -0.211471   -1.513672
    112          6           0       27.291926   -0.911616   -2.671219
    113          6           0       27.849580    0.023021   -3.617439
    114          6           0       27.567652    1.275774   -3.014372
    115          6           0       27.009627    1.098195   -1.734014
    116          6           0       28.384869   -0.243510   -4.994019
    117          6           0       27.658240    2.739237   -3.309635
    118          8           0       27.980433    3.345062   -4.354004
    119          6           0       27.172317    3.445885   -2.046126
    120          6           0       28.246397    4.410975   -1.539896
    121          8           0       29.411960    4.180600   -1.101415
    122          8           0       27.675010    5.648141   -1.491952
    123          6           0       28.526472    6.728342   -0.944197
    124          1           0       23.883779    1.116848    3.668651
    125          1           0       25.384870   -4.915998    1.944963
    126          1           0       27.681375   -2.690061   -3.649151
    127          1           0       26.759862    4.245250    1.072935
    128          1           0       24.223278    3.275684    2.537382
    129          1           0       25.456130    3.822983    4.360604
    130          1           0       26.859181    4.053716    3.294372
    131          1           0       26.779429    2.576390    4.000282
    132          1           0       24.127848    3.934092   -0.248354
    133          1           0       25.366458    5.067989   -0.595882
    134          1           0       24.693921    5.985570    1.974724
    135          1           0       23.164250    5.497609    1.212983
    136          1           0       22.277633   -1.582423    5.250683
    137          1           0       23.168057   -0.055399    5.366657
    138          1           0       23.818126   -1.512990    6.202119
    139          1           0       23.737000   -3.584092    6.358259
    140          1           0       23.633124   -5.336753    6.058948
    141          1           0       22.371435   -4.058105    5.421108
    142          1           0       25.580438   -5.891837   -0.341314
    143          1           0       27.400562   -5.116082   -2.437298
    144          1           0       27.528837   -6.938465    0.038902
    145          1           0       27.935379   -5.516054    1.007688
    146          1           0       28.486496   -5.748184   -0.727837
    147          1           0       25.421035   -6.039501   -3.140853
    148          1           0       25.723273   -4.465149   -3.913455
    149          1           0       23.306544   -5.027795   -2.839854
    150          1           0       23.900273   -3.494253   -3.333002
    151          1           0       24.016366   -3.984909   -1.648731
    152          1           0       27.893542    0.414245   -5.710579
    153          1           0       28.328238   -1.240616   -5.430610
    154          1           0       29.447156    0.000520   -4.970931
    155          1           0       26.325732    4.077554   -2.316686
    156          1           0       28.252712    6.922466    0.092645
    157          1           0       28.296464    7.504786   -1.673822
    158          1           0       29.590520    6.527786   -1.075826
 ---------------------------------------------------------------------

 SCF Done:  E(RwB97XD) =  -4070.65843296     A.U. after   19 cycles

 Excitation energies and oscillator strengths:

 Excited State   1:      Singlet-A      1.6109 eV  769.65 nm  f=0.3976  <S**2>=0.000
     309 -> 316       -0.17048
     311 -> 313        0.68653
     309 <- 316       -0.11383
 This state for optimization and/or second-order correction.
 Total Energy, E(TD-HF/TD-DFT) =  -4070.59923274
 Copying the excited state density for this state as the 1-particle RhoCI density.

 Excited State   2:      Singlet-A      1.6697 eV  742.57 nm  f=0.3879  <S**2>=0.000
     310 -> 315        0.19468
     312 -> 314        0.68027
     310 <- 315        0.11868

 Excited State   3:      Singlet-A      2.1162 eV  585.89 nm  f=0.1333  <S**2>=0.000
     309 -> 313        0.64978
     311 -> 316        0.25751

 Excited State   4:      Singlet-A      2.1969 eV  564.36 nm  f=0.0830  <S**2>=0.000
     310 -> 314        0.62404
     312 -> 315       -0.31826

 Excited State   5:      Singlet-A      3.2645 eV  379.80 nm  f=0.0056  <S**2>=0.000
     304 -> 313       -0.31846
     308 -> 313        0.60962

 The electronic state is 1-A.
 Alpha  occ. eigenvalues --  -46.95243 -46.94101 -19.31208 -19.30975 -19.24598
 Alpha  occ. eigenvalues --  -19.24280 -19.24107 -19.23846 -19.23482 -19.23426
 Alpha  occ. eigenvalues --  -14.47140 -14.46768 -14.46427 -14.46310 -14.44605
 Alpha  occ. eigenvalues --  -14.44137 -14.43845 -14.43417 -10.43814 -10.43438
 Alpha  occ. eigenvalues --  -10.38952 -10.38890 -10.38730 -10.38635 -10.36093
 Alpha  occ. eigenvalues --  -10.36006 -10.35635 -10.35568 -10.35508 -10.35147
 Alpha  occ. eigenvalues --  -10.34940 -10.34794 -10.34737 -10.34710 -10.34684
 Alpha  occ. eigenvalues --  -10.34589 -10.34439 -10.34140 -10.34090 -10.33969
 Alpha  occ. eigenvalues --  -10.33362 -10.33310 -10.33206 -10.33023 -10.32984
 Alpha  occ. eigenvalues --  -10.32903 -10.32871 -10.32694 -10.32614 -10.32593
 Alpha  occ. eigenvalues --  -10.32585 -10.32538 -10.32440 -10.32348 -10.32078
 Alpha  occ. eigenvalues --  -10.31983 -10.31911 -10.31676 -10.31608 -10.31556
 Alpha  occ. eigenvalues --  -10.31449 -10.31449 -10.31411 -10.31349 -10.31272
 Alpha  occ. eigenvalues --  -10.31050 -10.31001 -10.30984 -10.30781 -10.30543
 Alpha  occ. eigenvalues --  -10.30136 -10.30118 -10.29987 -10.29949 -10.29947
 Alpha  occ. eigenvalues --  -10.29944 -10.29789 -10.29784 -10.29728 -10.29549
 Alpha  occ. eigenvalues --  -10.29479 -10.29379 -10.29333 -10.29176 -10.28689
 Alpha  occ. eigenvalues --  -10.28354  -3.21112  -3.20255  -1.94722  -1.94217
 Alpha  occ. eigenvalues --   -1.94089  -1.93855  -1.93393  -1.93234  -1.18635
 Alpha  occ. eigenvalues --   -1.18172  -1.13207  -1.12643  -1.11152  -1.09984
 Alpha  occ. eigenvalues --   -1.09332  -1.07942  -1.07134  -1.07047  -1.06076
 Alpha  occ. eigenvalues --   -1.05414  -1.04798  -1.04348  -1.03023  -1.02606
 Alpha  occ. eigenvalues --   -0.94473  -0.94242  -0.91544  -0.91029  -0.90814
 Alpha  occ. eigenvalues --   -0.90552  -0.90186  -0.89611  -0.89257  -0.89147
 Alpha  occ. eigenvalues --   -0.88989  -0.88678  -0.88228  -0.87787  -0.86669
 Alpha  occ. eigenvalues --   -0.85921  -0.85905  -0.85467  -0.84854  -0.84272
 Alpha  occ. eigenvalues --   -0.84226  -0.83808  -0.83360  -0.83172  -0.82530
 Alpha  occ. eigenvalues --   -0.82035  -0.80520  -0.80422  -0.79507  -0.79262
 Alpha  occ. eigenvalues --   -0.79179  -0.78701  -0.78169  -0.77881  -0.77441
 Alpha  occ. eigenvalues --   -0.76837  -0.74729  -0.74615  -0.73912  -0.73507
 Alpha  occ. eigenvalues --   -0.72204  -0.71399  -0.71186  -0.70285  -0.70038
 Alpha  occ. eigenvalues --   -0.69619  -0.69160  -0.68943  -0.67794  -0.67358
 Alpha  occ. eigenvalues --   -0.67065  -0.67034  -0.66653  -0.66349  -0.66268
 Alpha  occ. eigenvalues --   -0.65798  -0.64730  -0.63907  -0.62241  -0.61856
 Alpha  occ. eigenvalues --   -0.61583  -0.61234  -0.61141  -0.61072  -0.60734
 Alpha  occ. eigenvalues --   -0.60285  -0.60234  -0.59665  -0.59382  -0.59297
 Alpha  occ. eigenvalues --   -0.58294  -0.58061  -0.57862  -0.57852  -0.57454
 Alpha  occ. eigenvalues --   -0.57371  -0.57213  -0.56708  -0.56691  -0.56225
 Alpha  occ. eigenvalues --   -0.55934  -0.55426  -0.55416  -0.55034  -0.54895
 Alpha  occ. eigenvalues --   -0.54745  -0.54696  -0.54391  -0.54361  -0.54166
 Alpha  occ. eigenvalues --   -0.54084  -0.53569  -0.53431  -0.53255  -0.53089
 Alpha  occ. eigenvalues --   -0.53072  -0.52792  -0.52697  -0.52289  -0.52151
 Alpha  occ. eigenvalues --   -0.52093  -0.51930  -0.51828  -0.51689  -0.51518
 Alpha  occ. eigenvalues --   -0.51312  -0.50948  -0.50742  -0.50716  -0.50534
 Alpha  occ. eigenvalues --   -0.50474  -0.50414  -0.50397  -0.50034  -0.50025
 Alpha  occ. eigenvalues --   -0.49871  -0.49657  -0.49534  -0.49424  -0.49177
 Alpha  occ. eigenvalues --   -0.49081  -0.48917  -0.48689  -0.48660  -0.48428
 Alpha  occ. eigenvalues --   -0.48203  -0.48082  -0.47924  -0.47831  -0.47647
 Alpha  occ. eigenvalues --   -0.47579  -0.47464  -0.47375  -0.47174  -0.46862
 Alpha  occ. eigenvalues --   -0.46818  -0.46491  -0.46466  -0.46275  -0.46262
 Alpha  occ. eigenvalues --   -0.46101  -0.45848  -0.45775  -0.45578  -0.45418
 Alpha  occ. eigenvalues --   -0.45375  -0.45149  -0.45111  -0.44976  -0.44591
 Alpha  occ. eigenvalues --   -0.44562  -0.44456  -0.44118  -0.44091  -0.43838
 Alpha  occ. eigenvalues --   -0.43814  -0.43716  -0.43395  -0.43222  -0.43154
 Alpha  occ. eigenvalues --   -0.42856  -0.42817  -0.42600  -0.42390  -0.42263
 Alpha  occ. eigenvalues --   -0.41881  -0.41870  -0.41430  -0.41146  -0.40990
 Alpha  occ. eigenvalues --   -0.40787  -0.40104  -0.39440  -0.39303  -0.39220
 Alpha  occ. eigenvalues --   -0.39133  -0.38797  -0.38784  -0.38724  -0.38470
 Alpha  occ. eigenvalues --   -0.38101  -0.37953  -0.36295  -0.36054  -0.36042
 Alpha  occ. eigenvalues --   -0.35937  -0.35383  -0.35292  -0.33719  -0.33298
 Alpha  occ. eigenvalues --   -0.33251  -0.32911  -0.32720  -0.32580  -0.32284
 Alpha  occ. eigenvalues --   -0.32249  -0.31718  -0.31285  -0.26173  -0.25816
 Alpha  occ. eigenvalues --   -0.23275  -0.22624
 Alpha virt. eigenvalues --   -0.07644  -0.06672   0.00166   0.00264   0.02379
 Alpha virt. eigenvalues --    0.02570   0.04306   0.04667   0.06102   0.06262
 Alpha virt. eigenvalues --    0.06590   0.06692   0.07702   0.07921   0.08618

 Mulliken charges:
               1
     1  Mg   0.952678
     2  C   -0.030001
     3  C   -0.087608
     4  C   -0.053587
     5  C   -0.079035
     6  N   -0.317205
     7  C   -0.008889
     8  C   -0.054110
     9  C   -0.041525
    10  C   -0.009130
    11  C    0.019985
    12  C    0.021290
    13  C   -0.115191
    14  H    0.015605
    15  N   -0.461360
    16  C    0.197377
    17  C   -0.169588
    18  C   -0.061142
    19  C    0.119736
    20  C    0.061122
    21  C    0.038484
    22  O   -0.262802
    23  C    0.013434
    24  N   -0.333234
    25  C    0.064126
    26  C   -0.091866
    27  C   -0.098970
    28  C    0.041395
    29  C    0.031118
    30  C   -0.015253
    31  C   -0.053795
    32  N   -0.449258
    33  C    0.129874
    34  C   -0.162263
    35  C   -0.055535
    36  C    0.145059
    37  C    0.075981
    38  C    0.096407
    39  O   -0.183903
    40  C   -0.042276
    41  C    0.280563
    42  O   -0.276064
    43  O   -0.352425
    44  C    0.141030
    45  H   -0.023826
    46  H    0.028196
    47  H   -0.002407
    48  H    0.045936
    49  H    0.034463
    50  H    0.048867
    51  H    0.031131
    52  H    0.026867
    53  H    0.018629
    54  H    0.024793
    55  H    0.055094
    56  H    0.066996
    57  H    0.025632
    58  H    0.064210
    59  H    0.051470
    60  H    0.063694
    61  H    0.041607
    62  H    0.053093
    63  H    0.040556
    64  H    0.038361
    65  H    0.048249
    66  H    0.046061
    67  H    0.029723
    68  H    0.031762
    69  H    0.025742
    70  H    0.040592
    71  H    0.032170
    72  H    0.041553
    73  H    0.049760
    74  H    0.047516
    75  H    0.057488
    76  H    0.066965
    77  H    0.067202
    78  H    0.052475
    79  H    0.050127
    80  Mg   0.974911
    81  C   -0.025760
    82  C   -0.091746
    83  C   -0.091483
    84  C   -0.077698
    85  N   -0.366213
    86  C   -0.005981
    87  C   -0.064477
    88  C   -0.111909
    89  C    0.089026
    90  C    0.051910
    91  C   -0.006048
    92  C   -0.128112
    93  H    0.029141
    94  N   -0.467455
    95  C    0.163119
    96  C   -0.170422
    97  C   -0.057345
    98  C    0.152536
    99  C    0.067193
   100  C    0.021948
   101  O   -0.243498
   102  C    0.002022
   103  N   -0.422527
   104  C    0.103964
   105  C   -0.088132
   106  C   -0.066109
   107  C    0.109793
   108  C    0.042975
   109  C    0.010240
   110  C   -0.067786
   111  N   -0.449491
   112  C    0.078831
   113  C   -0.151503
   114  C   -0.101638
   115  C    0.167146
   116  C    0.064794
   117  C    0.158586
   118  O   -0.236415
   119  C   -0.063498
   120  C    0.278917
   121  O   -0.286791
   122  O   -0.366262
   123  C    0.125334
   124  H   -0.007269
   125  H    0.021594
   126  H    0.001306
   127  H    0.051983
   128  H    0.035109
   129  H    0.045588
   130  H    0.021885
   131  H    0.048102
   132  H    0.034838
   133  H    0.058185
   134  H    0.052510
   135  H    0.055242
   136  H    0.061442
   137  H    0.044219
   138  H    0.067039
   139  H    0.027143
   140  H    0.066555
   141  H    0.059736
   142  H    0.041429
   143  H    0.013868
   144  H    0.035650
   145  H    0.048279
   146  H    0.036537
   147  H    0.035162
   148  H    0.029064
   149  H    0.029074
   150  H    0.034955
   151  H    0.040799
   152  H    0.061490
   153  H    0.026466
   154  H    0.055485
   155  H    0.079578
   156  H    0.065864
   157  H    0.060832
   158  H    0.076174
 Sum of Mulliken charges =  -0.00000

 Dipole moment (field-independent basis, Debye):
    X=             -6.7667    Y=              1.4229    Z=              6.0795  Tot=              9.2073
 Quadrupole moment (field-independent basis, Debye-Ang):
   XX=           -566.5213   YY=           -496.5993   ZZ=           -477.7285
   XY=            -58.5179   XZ=             47.9046   YZ=             55.2896

 Normal termination of Gaussian 16 at Sun Sep 19 22:22:21 2021.
