 Gaussian 16, Revision A.03,
 Gaussian 16:  ES64L-G16RevA.03 25-Dec-2016

 --------------------------------
 #p wB97XD/Def2SVP td=(nstates=5)
 --------------------------------

 --------------------------------
 TDDFT excited states in gaussian
 --------------------------------
 Symbolic Z-matrix:
 Charge =  0 Multiplicity = 1

                         Standard orientation:
 ---------------------------------------------------------------------
 Center     Atomic      Atomic             Coordinates (Angstroms)
 Number     Number       Type             X           Y           Z
 ---------------------------------------------------------------------
      1         12           0       13.776135   -0.219495    0.204546
      2          6           0       11.240025   -1.498379   -1.666392
      3          6           0       14.808109    1.647140   -2.616658
      4          6           0       15.498509    1.765361    2.265604
      5          6           0       12.333722   -1.730050    3.150779
      6          7           0       13.095471   -0.013729   -1.851160
      7          6           0       12.084879   -0.569174   -2.433317
      8          6           0       12.080047   -0.372835   -3.991059
      9          6           0       13.415194    0.406491   -4.297986
     10          6           0       13.876364    0.704520   -2.829735
     11          6           0       14.383701   -0.261954   -5.274722
     12          6           0       10.700065    0.341918   -4.521802
     13          6           0        9.889947    1.179354   -3.545498
     14          1           0        8.876571    2.204237   -4.054961
     15          7           0       14.977560    1.478673   -0.143470
     16          6           0       15.335882    2.045678   -1.342844
     17          6           0       16.150793    3.158465   -1.112592
     18          6           0       16.354673    3.265786    0.317220
     19          6           0       15.557945    2.155638    0.902921
     20          6           0       16.798628    3.901427   -2.266597
     21          6           0       17.215923    4.350665    0.988865
     22          8           0       17.772047    5.193601    0.249553
     23          6           0       17.440039    4.487523    2.399002
     24          7           0       13.785585    0.102580    2.476019
     25          6           0       14.736119    0.845363    2.967962
     26          6           0       14.880356    0.706448    4.510256
     27          6           0       13.903155   -0.454072    4.798788
     28          6           0       13.259350   -0.788440    3.392745
     29          6           0       16.255714    0.390127    4.976134
     30          6           0       12.828587   -0.095167    5.930137
     31          6           0       12.977142   -0.869041    7.304239
     32          7           0       12.215522   -1.467798    0.710483
     33          6           0       11.748833   -2.038079    1.901440
     34          6           0       10.587374   -2.925436    1.582081
     35          6           0       10.361784   -2.686405    0.219042
     36          6           0       11.343451   -1.774366   -0.270248
     37          6           0        9.814947   -3.779073    2.464565
     38          6           0        9.466208   -3.016970   -0.792359
     39          8           0        8.477453   -3.762407   -0.853390
     40          6           0       10.035159   -2.348324   -2.075985
     41          6           0       10.269099   -3.455131   -3.131509
     42          8           0        9.845725   -3.492726   -4.274263
     43          8           0       11.059027   -4.476031   -2.648728
     44          6           0       11.325315   -5.610195   -3.541482
     45          1           0       15.018535    2.213797   -3.525921
     46          1           0       16.158513    2.271471    2.972918
     47          1           0       12.016082   -2.311823    4.018466
     48          1           0       12.253021   -1.360006   -4.420462
     49          1           0       13.226559    1.403231   -4.697976
     50          1           0       15.301078   -0.533309   -4.752700
     51          1           0       14.670158    0.402238   -6.090953
     52          1           0       13.996417   -1.132862   -5.803599
     53          1           0       10.161380   -0.516146   -4.924546
     54          1           0       10.833200    1.079345   -5.313661
     55          1           0       10.659782    1.689214   -2.966863
     56          1           0        9.421757    0.458754   -2.874709
     57          1           0       17.882980    4.009533   -2.302243
     58          1           0       16.317349    4.874632   -2.366051
     59          1           0       16.544247    3.395857   -3.197950
     60          1           0       17.935841    3.667270    2.917799
     61          1           0       16.490906    4.497471    2.933921
     62          1           0       17.898871    5.435137    2.679414
     63          1           0       14.634956    1.563469    5.137331
     64          1           0       14.406131   -1.388410    5.048334
     65          1           0       16.792734    1.223534    5.428791
     66          1           0       16.912906    0.193850    4.128222
     67          1           0       16.232442   -0.442840    5.678600
     68          1           0       11.845866   -0.399283    5.567211
     69          1           0       12.849561    0.943204    6.258189
     70          1           0       12.890212   -0.165091    8.130934
     71          1           0       14.001376   -1.236142    7.370927
     72          1           0       12.124344   -1.547446    7.334951
     73          1           0       10.528890   -4.094296    3.225859
     74          1           0        9.446115   -4.653887    1.927862
     75          1           0        8.954528   -3.189963    2.780561
     76          1           0        9.282523   -1.805002   -2.646870
     77          1           0       11.561716   -6.479925   -2.928176
     78          1           0       12.173409   -5.541274   -4.222527
     79          1           0       10.514645   -5.820837   -4.239630
     80         12           0      -13.223982    1.021412   -0.368362
     81          6           0      -13.765289   -2.491820    0.077748
     82          6           0       -9.815649    0.213390   -0.785415
     83          6           0      -12.439976    4.185382   -0.087654
     84          6           0      -16.485344    1.577435    0.417018
     85          7           0      -11.984826   -0.932283   -0.399799
     86          6           0      -12.498195   -2.181917   -0.298978
     87          6           0      -11.397400   -3.184645   -0.603321
     88          6           0      -10.098520   -2.390783   -0.919323
     89          6           0      -10.642284   -0.961640   -0.729452
     90          6           0       -8.837913   -2.789787    0.036557
     91          6           0      -11.753581   -4.137230   -1.823790
     92          6           0      -11.523097   -5.634074   -1.613358
     93          1           0      -10.338880   -6.156558   -0.704797
     94          7           0      -11.355869    2.060552   -0.376537
     95          6           0      -10.155086    1.561899   -0.581059
     96          6           0       -9.222729    2.652260   -0.523857
     97          6           0       -9.922634    3.884259   -0.469721
     98          6           0      -11.268532    3.414314   -0.270112
     99          6           0       -7.734099    2.482072   -0.822480
    100          6           0       -9.526882    5.340905   -0.653979
    101          8           0      -10.303794    6.264156   -0.492635
    102          6           0       -8.116821    5.589690   -1.114169
    103          7           0      -14.254062    2.593483    0.446754
    104          6           0      -13.759444    3.884309    0.251255
    105          6           0      -14.849901    4.981486    0.387666
    106          6           0      -16.130183    4.063770    0.382148
    107          6           0      -15.600883    2.630050    0.413986
    108          6           0      -14.628296    5.818650    1.655739
    109          6           0      -17.019989    4.213738   -0.941117
    110          6           0      -18.309107    4.959410   -0.850822
    111          7           0      -14.815178   -0.156336    0.024493
    112          6           0      -16.094923    0.227172    0.362897
    113          6           0      -16.946387   -0.901599    0.729148
    114          6           0      -16.058489   -2.031314    0.626386
    115          6           0      -14.776055   -1.515171    0.324989
    116          6           0      -18.417834   -0.812616    0.915863
    117          6           0      -15.970067   -3.483001    0.662792
    118          8           0      -16.896592   -4.286596    0.874009
    119          6           0      -14.418249   -3.866189    0.327490
    120          6           0      -13.937531   -4.546657    1.519556
    121          8           0      -13.964811   -4.060925    2.629180
    122          8           0      -13.455509   -5.761201    1.230582
    123          6           0      -12.951090   -6.692937    2.287551
    124          1           0       -8.762012    0.017027   -0.994152
    125          1           0      -12.360331    5.232526   -0.389163
    126          1           0      -17.541572    1.800130    0.580435
    127          1           0      -11.234506   -3.764010    0.305485
    128          1           0       -9.709640   -2.622728   -1.910970
    129          1           0       -8.968799   -3.787797    0.454934
    130          1           0       -8.815377   -2.014757    0.803103
    131          1           0       -7.912525   -2.739743   -0.537016
    132          1           0      -11.293603   -3.864566   -2.772632
    133          1           0      -12.820866   -4.065415   -2.032836
    134          1           0      -11.419109   -6.161613   -2.561743
    135          1           0      -12.482434   -5.968636   -1.218575
    136          1           0       -7.454115    2.722224   -1.848304
    137          1           0       -7.368191    1.506770   -0.500132
    138          1           0       -7.214740    3.172234   -0.158002
    139          1           0       -7.749936    4.905044   -1.879457
    140          1           0       -7.367123    5.565323   -0.324544
    141          1           0       -8.093991    6.512277   -1.694241
    142          1           0      -14.773994    5.622898   -0.489937
    143          1           0      -16.730986    4.325156    1.253346
    144          1           0      -13.671475    5.647513    2.148804
    145          1           0      -15.377294    5.601825    2.416565
    146          1           0      -14.711001    6.876732    1.405147
    147          1           0      -17.322598    3.271644   -1.398234
    148          1           0      -16.467039    4.654589   -1.769755
    149          1           0      -18.271025    5.853561   -1.471720
    150          1           0      -18.369868    5.212958    0.207699
    151          1           0      -19.135248    4.336720   -1.193981
    152          1           0      -18.917470   -1.716328    0.568565
    153          1           0      -18.728235    0.119566    0.444217
    154          1           0      -18.589159   -0.719228    1.989128
    155          1           0      -14.343746   -4.542061   -0.523354
    156          1           0      -13.693417   -6.773726    3.081823
    157          1           0      -12.018393   -6.351666    2.737345
    158          1           0      -12.637998   -7.663313    1.903255
 ---------------------------------------------------------------------

 SCF Done:  E(RwB97XD) =  -4070.57140247     A.U. after   19 cycles

 Excitation energies and oscillator strengths:

 Excited State   1:      Singlet-A      1.6235 eV  763.70 nm  f=0.4479  <S**2>=0.000
     310 -> 316       -0.17856
     312 -> 314        0.68363
     310 <- 316       -0.11622
 This state for optimization and/or second-order correction.
 Total Energy, E(TD-HF/TD-DFT) =  -4070.51174114
 Copying the excited state density for this state as the 1-particle RhoCI density.

 Excited State   2:      Singlet-A      1.6543 eV  749.45 nm  f=0.3913  <S**2>=0.000
     309 -> 315        0.16613
     311 -> 313        0.68572
     309 <- 315        0.11142

 Excited State   3:      Singlet-A      2.1424 eV  578.72 nm  f=0.1287  <S**2>=0.000
     310 -> 314        0.64798
     312 -> 316        0.26642

 Excited State   4:      Singlet-A      2.1979 eV  564.10 nm  f=0.1154  <S**2>=0.000
     309 -> 313        0.64045
     311 -> 315       -0.27521

 Excited State   5:      Singlet-A      3.4574 eV  358.61 nm  f=0.0000  <S**2>=0.000
     312 -> 313        0.70700

 The electronic state is 1-A.
 Alpha  occ. eigenvalues --  -46.96749 -46.94903 -19.30401 -19.30259 -19.25188
 Alpha  occ. eigenvalues --  -19.24484 -19.24208 -19.24047 -19.23388 -19.22461
 Alpha  occ. eigenvalues --  -14.47886 -14.46576 -14.46424 -14.46240 -14.45261
 Alpha  occ. eigenvalues --  -14.44455 -14.43935 -14.43591 -10.43723 -10.42248
 Alpha  occ. eigenvalues --  -10.39682 -10.39472 -10.38890 -10.38231 -10.37154
 Alpha  occ. eigenvalues --  -10.36221 -10.35991 -10.35404 -10.35368 -10.35306
 Alpha  occ. eigenvalues --  -10.34830 -10.34773 -10.34730 -10.34694 -10.34560
 Alpha  occ. eigenvalues --  -10.34439 -10.34201 -10.33945 -10.33613 -10.33600
 Alpha  occ. eigenvalues --  -10.33542 -10.33451 -10.33140 -10.33028 -10.33011
 Alpha  occ. eigenvalues --  -10.32956 -10.32666 -10.32622 -10.32565 -10.32494
 Alpha  occ. eigenvalues --  -10.32425 -10.32265 -10.32183 -10.32097 -10.31937
 Alpha  occ. eigenvalues --  -10.31803 -10.31789 -10.31782 -10.31673 -10.31602
 Alpha  occ. eigenvalues --  -10.31210 -10.31204 -10.31150 -10.31138 -10.31082
 Alpha  occ. eigenvalues --  -10.30924 -10.30891 -10.30889 -10.30818 -10.30590
 Alpha  occ. eigenvalues --  -10.30523 -10.30336 -10.30220 -10.30191 -10.30056
 Alpha  occ. eigenvalues --  -10.29921 -10.29892 -10.29849 -10.29814 -10.29688
 Alpha  occ. eigenvalues --  -10.29581 -10.29557 -10.29527 -10.29256 -10.28843
 Alpha  occ. eigenvalues --  -10.28763  -3.22620  -3.20968  -1.96181  -1.95771
 Alpha  occ. eigenvalues --   -1.95552  -1.94523  -1.94099  -1.93946  -1.18663
 Alpha  occ. eigenvalues --   -1.18443  -1.12990  -1.11455  -1.10634  -1.09831
 Alpha  occ. eigenvalues --   -1.09697  -1.09496  -1.07137  -1.06619  -1.06593
 Alpha  occ. eigenvalues --   -1.05802  -1.05456  -1.05077  -1.04311  -1.03862
 Alpha  occ. eigenvalues --   -0.95136  -0.94075  -0.91692  -0.91356  -0.90990
 Alpha  occ. eigenvalues --   -0.90449  -0.90411  -0.90095  -0.89894  -0.89771
 Alpha  occ. eigenvalues --   -0.88989  -0.88883  -0.88299  -0.87273  -0.86639
 Alpha  occ. eigenvalues --   -0.86136  -0.86083  -0.85954  -0.84910  -0.84494
 Alpha  occ. eigenvalues --   -0.84480  -0.83674  -0.83529  -0.83160  -0.82594
 Alpha  occ. eigenvalues --   -0.82349  -0.80522  -0.80155  -0.79544  -0.79422
 Alpha  occ. eigenvalues --   -0.78956  -0.78732  -0.78374  -0.78114  -0.77294
 Alpha  occ. eigenvalues --   -0.76720  -0.75488  -0.74417  -0.74022  -0.73332
 Alpha  occ. eigenvalues --   -0.71698  -0.70909  -0.70680  -0.70431  -0.69692
 Alpha  occ. eigenvalues --   -0.69550  -0.68901  -0.68852  -0.68017  -0.67717
 Alpha  occ. eigenvalues --   -0.67416  -0.67027  -0.66910  -0.66623  -0.66564
 Alpha  occ. eigenvalues --   -0.66425  -0.65443  -0.64349  -0.62968  -0.62426
 Alpha  occ. eigenvalues --   -0.62067  -0.61110  -0.61000  -0.60757  -0.60604
 Alpha  occ. eigenvalues --   -0.60402  -0.60091  -0.59969  -0.59398  -0.59313
 Alpha  occ. eigenvalues --   -0.58369  -0.58021  -0.57685  -0.57680  -0.57604
 Alpha  occ. eigenvalues --   -0.57079  -0.56827  -0.56567  -0.56227  -0.55923
 Alpha  occ. eigenvalues --   -0.55505  -0.55387  -0.55276  -0.55186  -0.54873
 Alpha  occ. eigenvalues --   -0.54870  -0.54783  -0.54675  -0.54476  -0.54250
 Alpha  occ. eigenvalues --   -0.54197  -0.53935  -0.53486  -0.53337  -0.53141
 Alpha  occ. eigenvalues --   -0.53052  -0.52912  -0.52675  -0.52470  -0.52402
 Alpha  occ. eigenvalues --   -0.52334  -0.51977  -0.51938  -0.51859  -0.51555
 Alpha  occ. eigenvalues --   -0.51234  -0.51110  -0.51002  -0.50939  -0.50829
 Alpha  occ. eigenvalues --   -0.50635  -0.50547  -0.50418  -0.50328  -0.50264
 Alpha  occ. eigenvalues --   -0.49952  -0.49641  -0.49608  -0.49410  -0.49285
 Alpha  occ. eigenvalues --   -0.49201  -0.48880  -0.48814  -0.48597  -0.48455
 Alpha  occ. eigenvalues --   -0.48179  -0.48100  -0.47983  -0.47927  -0.47758
 Alpha  occ. eigenvalues --   -0.47736  -0.47263  -0.47162  -0.47047  -0.46972
 Alpha  occ. eigenvalues --   -0.46908  -0.46615  -0.46462  -0.46394  -0.46130
 Alpha  occ. eigenvalues --   -0.45827  -0.45686  -0.45651  -0.45474  -0.45202
 Alpha  occ. eigenvalues --   -0.44903  -0.44787  -0.44621  -0.44621  -0.44534
 Alpha  occ. eigenvalues --   -0.44371  -0.44251  -0.44149  -0.43968  -0.43704
 Alpha  occ. eigenvalues --   -0.43492  -0.43408  -0.43269  -0.43129  -0.42949
 Alpha  occ. eigenvalues --   -0.42848  -0.42824  -0.42686  -0.42370  -0.42125
 Alpha  occ. eigenvalues --   -0.42041  -0.41826  -0.41556  -0.41185  -0.41046
 Alpha  occ. eigenvalues --   -0.40752  -0.40227  -0.40183  -0.39876  -0.39787
 Alpha  occ. eigenvalues --   -0.38988  -0.38902  -0.38594  -0.38481  -0.38472
 Alpha  occ. eigenvalues --   -0.38163  -0.38045  -0.36897  -0.36392  -0.36383
 Alpha  occ. eigenvalues --   -0.36322  -0.35640  -0.35169  -0.33871  -0.33626
 Alpha  occ. eigenvalues --   -0.33335  -0.33276  -0.33218  -0.32721  -0.32201
 Alpha  occ. eigenvalues --   -0.32085  -0.31518  -0.31206  -0.26943  -0.25685
 Alpha  occ. eigenvalues --   -0.23550  -0.22699
 Alpha virt. eigenvalues --   -0.07958  -0.07014  -0.00043   0.00866   0.01917
 Alpha virt. eigenvalues --    0.02280   0.03739   0.04220   0.04287   0.05000
 Alpha virt. eigenvalues --    0.07108   0.07447   0.07534   0.07932   0.07933

 Mulliken charges:
               1
     1  Mg   0.956779
     2  C    0.004085
     3  C   -0.072012
     4  C   -0.044050
     5  C   -0.099238
     6  N   -0.349378
     7  C    0.010900
     8  C   -0.050872
     9  C   -0.100576
    10  C    0.039673
    11  C    0.023912
    12  C   -0.030568
    13  C   -0.101486
    14  H    0.062007
    15  N   -0.458753
    16  C    0.154462
    17  C   -0.150783
    18  C   -0.094547
    19  C    0.205635
    20  C    0.091845
    21  C    0.063140
    22  O   -0.267706
    23  C    0.000092
    24  N   -0.297803
    25  C    0.010928
    26  C   -0.080718
    27  C   -0.045962
    28  C    0.048346
    29  C    0.002497
    30  C   -0.042850
    31  C   -0.064999
    32  N   -0.464612
    33  C    0.133580
    34  C   -0.171315
    35  C   -0.013295
    36  C    0.155575
    37  C    0.081422
    38  C    0.117843
    39  O   -0.220596
    40  C   -0.107926
    41  C    0.242638
    42  O   -0.244199
    43  O   -0.368797
    44  C    0.139780
    45  H    0.011746
    46  H   -0.042641
    47  H    0.000764
    48  H    0.052481
    49  H    0.038576
    50  H    0.039562
    51  H    0.034793
    52  H    0.041336
    53  H    0.057223
    54  H    0.041140
    55  H    0.052327
    56  H    0.036486
    57  H    0.060722
    58  H    0.046890
    59  H    0.000146
    60  H    0.063492
    61  H    0.040874
    62  H    0.054785
    63  H    0.045378
    64  H    0.032554
    65  H    0.028611
    66  H    0.031399
    67  H    0.039581
    68  H    0.036060
    69  H    0.041061
    70  H    0.033403
    71  H    0.036250
    72  H    0.047792
    73  H    0.043838
    74  H    0.066791
    75  H    0.074467
    76  H    0.058272
    77  H    0.052773
    78  H    0.037527
    79  H    0.061442
    80  Mg   0.966435
    81  C   -0.049233
    82  C   -0.089544
    83  C   -0.059965
    84  C   -0.106281
    85  N   -0.317507
    86  C    0.011308
    87  C   -0.040407
    88  C   -0.105425
    89  C    0.050189
    90  C   -0.005220
    91  C   -0.008633
    92  C   -0.109800
    93  H    0.017320
    94  N   -0.387993
    95  C    0.163927
    96  C   -0.188156
    97  C   -0.059176
    98  C    0.115294
    99  C    0.051764
   100  C    0.080657
   101  O   -0.219526
   102  C   -0.036741
   103  N   -0.403283
   104  C    0.019174
   105  C   -0.074851
   106  C   -0.053972
   107  C    0.103150
   108  C    0.032803
   109  C   -0.056506
   110  C   -0.031295
   111  N   -0.481699
   112  C    0.161845
   113  C   -0.187276
   114  C   -0.019256
   115  C    0.159737
   116  C    0.089891
   117  C    0.119787
   118  O   -0.226651
   119  C   -0.061597
   120  C    0.257952
   121  O   -0.245751
   122  O   -0.357536
   123  C    0.146450
   124  H   -0.009019
   125  H    0.024513
   126  H    0.000837
   127  H    0.044111
   128  H    0.047043
   129  H    0.047930
   130  H    0.045114
   131  H    0.038250
   132  H    0.030301
   133  H    0.028228
   134  H    0.044422
   135  H    0.052228
   136  H    0.066711
   137  H    0.038360
   138  H    0.031254
   139  H    0.036179
   140  H    0.074716
   141  H    0.049250
   142  H    0.043667
   143  H    0.035547
   144  H    0.053030
   145  H    0.026244
   146  H    0.041701
   147  H    0.029362
   148  H    0.020485
   149  H    0.036516
   150  H    0.025222
   151  H    0.038858
   152  H    0.066522
   153  H    0.037200
   154  H    0.055466
   155  H    0.057911
   156  H    0.070290
   157  H    0.046889
   158  H    0.060260
 Sum of Mulliken charges =  -0.00000

 Dipole moment (field-independent basis, Debye):
    X=              6.2649    Y=             -2.0081    Z=             -0.0581  Tot=              6.5791
 Quadrupole moment (field-independent basis, Debye-Ang):
   XX=           -538.4352   YY=           -528.0697   ZZ=           -475.5263
   XY=           -100.6784   XZ=             88.5857   YZ=             -2.0652

 Normal termination of Gaussian 16 at Sat Sep 18 21:48:25 2021.
