 Gaussian 16, Revision A.03,
 Gaussian 16:  ES64L-G16RevA.03 25-Dec-2016

 --------------------------------
 #p wB97XD/Def2SVP td=(nstates=5)
 --------------------------------

 --------------------------------
 TDDFT excited states in gaussian
 --------------------------------
 Symbolic Z-matrix:
 Charge =  0 Multiplicity = 1

                         Standard orientation:
 ---------------------------------------------------------------------
 Center     Atomic      Atomic             Coordinates (Angstroms)
 Number     Number       Type             X           Y           Z
 ---------------------------------------------------------------------
      1         12           0       20.221419    0.382043    0.426310
      2          6           0       17.911719   -1.538977   -1.318643
      3          6           0       20.954297    1.891427   -2.609201
      4          6           0       22.827214    1.903002    1.995627
      5          6           0       19.457661   -1.371086    3.307127
      6          7           0       19.545714    0.151291   -1.727615
      7          6           0       18.550468   -0.679855   -2.218832
      8          6           0       18.374907   -0.606849   -3.786544
      9          6           0       19.621307    0.288022   -4.154470
     10          6           0       20.116715    0.795186   -2.750119
     11          6           0       20.811622   -0.292515   -4.923645
     12          6           0       16.992672   -0.039779   -4.158686
     13          6           0       15.982456   -1.006299   -4.718560
     14          1           0       15.056476   -0.476575   -5.827848
     15          7           0       21.577541    1.851520   -0.121596
     16          6           0       21.628815    2.358419   -1.382589
     17          6           0       22.728775    3.342389   -1.365725
     18          6           0       23.350368    3.303555   -0.107829
     19          6           0       22.620884    2.370422    0.659607
     20          6           0       22.950711    4.251535   -2.505718
     21          6           0       24.560106    4.034391    0.396503
     22          8           0       24.950569    3.988889    1.596120
     23          6           0       25.413959    4.828642   -0.429672
     24          7           0       20.959905    0.345883    2.341560
     25          6           0       22.024947    1.076758    2.770574
     26          6           0       22.365625    0.849597    4.190781
     27          6           0       21.253523   -0.158479    4.654289
     28          6           0       20.574267   -0.446269    3.368363
     29          6           0       23.773760    0.386478    4.667443
     30          6           0       20.325027    0.347054    5.866217
     31          6           0       19.069150    1.244605    5.658105
     32          7           0       19.002929   -1.159850    0.953694
     33          6           0       18.764709   -1.744864    2.163961
     34          6           0       17.665240   -2.603148    2.076050
     35          6           0       17.365217   -2.601054    0.659449
     36          6           0       18.192907   -1.685050    0.041343
     37          6           0       16.959110   -3.346388    3.208485
     38          6           0       16.405968   -3.106918   -0.279929
     39          8           0       15.402278   -3.784658   -0.192634
     40          6           0       16.894260   -2.590529   -1.678692
     41          6           0       17.475397   -3.706660   -2.450826
     42          8           0       18.676389   -3.841996   -2.772627
     43          8           0       16.590598   -4.665286   -2.801869
     44          6           0       16.995781   -5.727233   -3.784922
     45          1           0       21.224747    2.316521   -3.577360
     46          1           0       23.668765    2.329914    2.545506
     47          1           0       19.044033   -1.841153    4.202338
     48          1           0       18.678422   -1.532222   -4.277217
     49          1           0       19.215630    1.136734   -4.705034
     50          1           0       21.683253   -0.360131   -4.272221
     51          1           0       21.111626    0.474154   -5.636488
     52          1           0       20.636495   -1.255155   -5.405256
     53          1           0       17.188726    0.679152   -4.955038
     54          1           0       16.615080    0.520765   -3.303517
     55          1           0       15.349959   -1.330936   -3.891909
     56          1           0       16.389119   -1.940709   -5.105600
     57          1           0       22.783766    5.249004   -2.101218
     58          1           0       22.354840    4.136789   -3.412107
     59          1           0       23.989352    4.183086   -2.829097
     60          1           0       25.568106    4.237203   -1.331808
     61          1           0       26.270764    5.192879    0.135706
     62          1           0       24.886615    5.701192   -0.815327
     63          1           0       22.176648    1.851934    4.574000
     64          1           0       21.720920   -1.094944    4.956426
     65          1           0       24.276880    1.150179    5.260578
     66          1           0       24.432439    0.192585    3.820214
     67          1           0       23.757223   -0.554133    5.217851
     68          1           0       21.023097    0.951001    6.446304
     69          1           0       20.123603   -0.599808    6.367425
     70          1           0       18.760694    1.384122    4.622333
     71          1           0       19.057176    2.186617    6.207086
     72          1           0       18.282137    0.699409    6.177481
     73          1           0       16.933726   -4.422814    3.035683
     74          1           0       15.918759   -3.021609    3.213490
     75          1           0       17.338990   -3.120822    4.205282
     76          1           0       16.006013   -2.334377   -2.256446
     77          1           0       15.990949   -6.085909   -4.008442
     78          1           0       17.650449   -6.501221   -3.385705
     79          1           0       17.492742   -5.266530   -4.639231
     80         12           0      -20.036884   -0.582379   -0.351779
     81          6           0      -19.918176    2.995648   -0.178456
     82          6           0      -16.519504   -0.548010    0.030234
     83          6           0      -20.160305   -3.879411    0.260295
     84          6           0      -23.469404   -0.393398   -0.042797
     85          7           0      -18.371845    1.039007   -0.109924
     86          6           0      -18.648752    2.375870   -0.044365
     87          6           0      -17.413405    3.130272    0.421085
     88          6           0      -16.337274    1.989483    0.184594
     89          6           0      -17.063859    0.708814    0.023416
     90          6           0      -15.341731    2.178981   -1.008816
     91          6           0      -17.637235    3.690339    1.862391
     92          6           0      -17.213617    5.177505    2.205416
     93          1           0      -16.138241    5.436654    3.275826
     94          7           0      -18.618229   -2.014837   -0.111340
     95          6           0      -17.215244   -1.832205    0.008060
     96          6           0      -16.545675   -3.112976    0.140185
     97          6           0      -17.629965   -4.079104    0.214179
     98          6           0      -18.859965   -3.316755    0.109007
     99          6           0      -15.088305   -3.211376    0.320615
    100          6           0      -17.389145   -5.592808    0.348568
    101          8           0      -16.186278   -5.957103    0.497787
    102          6           0      -18.483202   -6.680998    0.314348
    103          7           0      -21.569457   -1.994475    0.329801
    104          6           0      -21.405311   -3.303431    0.333604
    105          6           0      -22.714375   -3.944996    0.663123
    106          6           0      -23.750033   -2.801123    0.495527
    107          6           0      -22.872018   -1.599414    0.327100
    108          6           0      -23.163459   -5.266722   -0.094934
    109          6           0      -24.798330   -2.635356    1.713118
    110          6           0      -26.300251   -2.888575    1.434620
    111          7           0      -21.429907    0.906852   -0.349350
    112          6           0      -22.766219    0.847934   -0.221342
    113          6           0      -23.350013    2.138682   -0.253532
    114          6           0      -22.255825    3.006410   -0.282889
    115          6           0      -21.082261    2.210919   -0.297161
    116          6           0      -24.763408    2.563597   -0.257024
    117          6           0      -21.955328    4.404780   -0.264728
    118          8           0      -22.720249    5.338784   -0.174844
    119          6           0      -20.302961    4.452758   -0.145222
    120          6           0      -19.741141    5.179988   -1.289664
    121          8           0      -20.098107    5.053573   -2.467846
    122          8           0      -18.740113    5.986617   -0.791857
    123          6           0      -18.032359    6.818178   -1.763912
    124          1           0      -15.435677   -0.603968    0.142593
    125          1           0      -20.261888   -4.923980    0.560802
    126          1           0      -24.547802   -0.285325   -0.177706
    127          1           0      -17.212439    3.884238   -0.340433
    128          1           0      -15.907181    1.983713    1.186826
    129          1           0      -15.441459    1.306244   -1.655759
    130          1           0      -14.293694    2.224045   -0.713519
    131          1           0      -15.548453    3.024644   -1.665440
    132          1           0      -17.013748    2.991417    2.419507
    133          1           0      -18.642707    3.576858    2.267043
    134          1           0      -18.145262    5.671638    2.480435
    135          1           0      -16.983991    5.686376    1.269735
    136          1           0      -14.838843   -2.553132    1.153163
    137          1           0      -14.577399   -2.797913   -0.548692
    138          1           0      -14.650240   -4.206229    0.405196
    139          1           0      -19.045647   -6.620388    1.246204
    140          1           0      -17.960642   -7.569822   -0.037708
    141          1           0      -19.114684   -6.357043   -0.513614
    142          1           0      -22.649395   -4.264065    1.702614
    143          1           0      -24.143440   -3.004204   -0.500590
    144          1           0      -23.798908   -5.785195    0.623480
    145          1           0      -22.270107   -5.827117   -0.370137
    146          1           0      -23.750400   -4.943864   -0.954973
    147          1           0      -24.631148   -1.614072    2.054963
    148          1           0      -24.429639   -3.237262    2.543603
    149          1           0      -26.939235   -2.088526    1.806029
    150          1           0      -26.583696   -3.834127    1.897647
    151          1           0      -26.528255   -3.057237    0.381997
    152          1           0      -24.876378    3.587801   -0.611060
    153          1           0      -24.945890    2.460539    0.812797
    154          1           0      -25.360354    1.740207   -0.648974
    155          1           0      -19.987148    4.804173    0.836403
    156          1           0      -18.722383    7.395065   -2.380098
    157          1           0      -17.392957    6.192186   -2.388069
    158          1           0      -17.409473    7.531045   -1.223548
 ---------------------------------------------------------------------

 SCF Done:  E(RwB97XD) =  -4070.59546329     A.U. after   17 cycles

 Excitation energies and oscillator strengths:

 Excited State   1:      Singlet-A      1.6375 eV  757.15 nm  f=0.3795  <S**2>=0.000
     309 -> 315        0.18958
     311 -> 313        0.67839
     309 <- 315        0.12035
 This state for optimization and/or second-order correction.
 Total Energy, E(TD-HF/TD-DFT) =  -4070.53528546
 Copying the excited state density for this state as the 1-particle RhoCI density.

 Excited State   2:      Singlet-A      1.6446 eV  753.90 nm  f=0.3956  <S**2>=0.000
     310 -> 316       -0.18175
     312 -> 314        0.67771
     310 <- 316       -0.11635

 Excited State   3:      Singlet-A      2.1515 eV  576.26 nm  f=0.1378  <S**2>=0.000
     310 -> 314        0.64864
     312 -> 316        0.26454

 Excited State   4:      Singlet-A      2.1989 eV  563.84 nm  f=0.1289  <S**2>=0.000
     309 -> 313        0.63868
     311 -> 315       -0.29223

 Excited State   5:      Singlet-A      3.3065 eV  374.97 nm  f=0.0054  <S**2>=0.000
     307 -> 313        0.66959
     307 -> 317        0.10688

 The electronic state is 1-A.
 Alpha  occ. eigenvalues --  -46.95235 -46.93877 -19.31498 -19.29260 -19.25517
 Alpha  occ. eigenvalues --  -19.24803 -19.23271 -19.23191 -19.23169 -19.22999
 Alpha  occ. eigenvalues --  -14.46611 -14.46535 -14.46449 -14.45958 -14.44543
 Alpha  occ. eigenvalues --  -14.44415 -14.44151 -14.42951 -10.43944 -10.42355
 Alpha  occ. eigenvalues --  -10.39488 -10.39235 -10.38469 -10.38184 -10.36190
 Alpha  occ. eigenvalues --  -10.35748 -10.35202 -10.35003 -10.34795 -10.34775
 Alpha  occ. eigenvalues --  -10.34669 -10.34663 -10.34487 -10.34387 -10.34381
 Alpha  occ. eigenvalues --  -10.34314 -10.34133 -10.34083 -10.33763 -10.33087
 Alpha  occ. eigenvalues --  -10.32950 -10.32877 -10.32779 -10.32708 -10.32537
 Alpha  occ. eigenvalues --  -10.32511 -10.32271 -10.32243 -10.32221 -10.31883
 Alpha  occ. eigenvalues --  -10.31864 -10.31838 -10.31708 -10.31658 -10.31620
 Alpha  occ. eigenvalues --  -10.31612 -10.31547 -10.31535 -10.31426 -10.31419
 Alpha  occ. eigenvalues --  -10.31353 -10.31327 -10.31224 -10.31183 -10.31122
 Alpha  occ. eigenvalues --  -10.31095 -10.31089 -10.30836 -10.30815 -10.30797
 Alpha  occ. eigenvalues --  -10.30775 -10.30658 -10.30546 -10.30468 -10.30266
 Alpha  occ. eigenvalues --  -10.30193 -10.30117 -10.29957 -10.29888 -10.29850
 Alpha  occ. eigenvalues --  -10.29781 -10.29534 -10.29515 -10.28965 -10.28655
 Alpha  occ. eigenvalues --  -10.28606  -3.21233  -3.20005  -1.94811  -1.94343
 Alpha  occ. eigenvalues --   -1.94217  -1.93611  -1.93138  -1.92985  -1.18721
 Alpha  occ. eigenvalues --   -1.17284  -1.13077  -1.11758  -1.10365  -1.10148
 Alpha  occ. eigenvalues --   -1.09441  -1.07458  -1.07255  -1.06881  -1.06745
 Alpha  occ. eigenvalues --   -1.06115  -1.05742  -1.05251  -1.04383  -1.04282
 Alpha  occ. eigenvalues --   -0.95152  -0.95068  -0.91233  -0.90886  -0.90332
 Alpha  occ. eigenvalues --   -0.90203  -0.90195  -0.89993  -0.89878  -0.89536
 Alpha  occ. eigenvalues --   -0.89406  -0.88929  -0.88045  -0.87960  -0.86578
 Alpha  occ. eigenvalues --   -0.86279  -0.85752  -0.85561  -0.84731  -0.84598
 Alpha  occ. eigenvalues --   -0.84342  -0.83908  -0.83322  -0.82924  -0.82494
 Alpha  occ. eigenvalues --   -0.82434  -0.80522  -0.80178  -0.79581  -0.79421
 Alpha  occ. eigenvalues --   -0.78812  -0.78774  -0.78213  -0.78129  -0.77275
 Alpha  occ. eigenvalues --   -0.77231  -0.75189  -0.75088  -0.74185  -0.73314
 Alpha  occ. eigenvalues --   -0.72022  -0.71719  -0.71371  -0.70722  -0.70423
 Alpha  occ. eigenvalues --   -0.69965  -0.69103  -0.68734  -0.68059  -0.67612
 Alpha  occ. eigenvalues --   -0.67133  -0.67105  -0.67018  -0.66767  -0.66622
 Alpha  occ. eigenvalues --   -0.66367  -0.64948  -0.63472  -0.62133  -0.61956
 Alpha  occ. eigenvalues --   -0.61918  -0.61606  -0.61496  -0.61142  -0.60891
 Alpha  occ. eigenvalues --   -0.60587  -0.60390  -0.59722  -0.59584  -0.59289
 Alpha  occ. eigenvalues --   -0.58171  -0.58150  -0.57892  -0.57591  -0.57555
 Alpha  occ. eigenvalues --   -0.56871  -0.56841  -0.56461  -0.56342  -0.55770
 Alpha  occ. eigenvalues --   -0.55653  -0.55281  -0.55186  -0.54882  -0.54839
 Alpha  occ. eigenvalues --   -0.54563  -0.54450  -0.54375  -0.54049  -0.53960
 Alpha  occ. eigenvalues --   -0.53807  -0.53634  -0.53340  -0.53171  -0.53003
 Alpha  occ. eigenvalues --   -0.52792  -0.52516  -0.52291  -0.52239  -0.52090
 Alpha  occ. eigenvalues --   -0.51980  -0.51889  -0.51715  -0.51567  -0.51516
 Alpha  occ. eigenvalues --   -0.51365  -0.51339  -0.50908  -0.50717  -0.50715
 Alpha  occ. eigenvalues --   -0.50394  -0.50355  -0.50091  -0.49845  -0.49831
 Alpha  occ. eigenvalues --   -0.49704  -0.49645  -0.49590  -0.49531  -0.49388
 Alpha  occ. eigenvalues --   -0.49172  -0.48972  -0.48693  -0.48564  -0.48458
 Alpha  occ. eigenvalues --   -0.48377  -0.48160  -0.48079  -0.47919  -0.47880
 Alpha  occ. eigenvalues --   -0.47608  -0.47532  -0.47369  -0.47304  -0.47181
 Alpha  occ. eigenvalues --   -0.47087  -0.46953  -0.46700  -0.46464  -0.46173
 Alpha  occ. eigenvalues --   -0.45897  -0.45818  -0.45697  -0.45674  -0.45562
 Alpha  occ. eigenvalues --   -0.45523  -0.45349  -0.45199  -0.45009  -0.44899
 Alpha  occ. eigenvalues --   -0.44836  -0.44760  -0.44688  -0.44394  -0.44235
 Alpha  occ. eigenvalues --   -0.43518  -0.43481  -0.43409  -0.43133  -0.43069
 Alpha  occ. eigenvalues --   -0.43032  -0.42773  -0.42688  -0.42235  -0.42231
 Alpha  occ. eigenvalues --   -0.42131  -0.42008  -0.41591  -0.40854  -0.40826
 Alpha  occ. eigenvalues --   -0.40651  -0.40205  -0.40133  -0.39808  -0.39761
 Alpha  occ. eigenvalues --   -0.39580  -0.38846  -0.38539  -0.38539  -0.38388
 Alpha  occ. eigenvalues --   -0.37743  -0.37604  -0.37139  -0.36304  -0.36092
 Alpha  occ. eigenvalues --   -0.35448  -0.35282  -0.34754  -0.33545  -0.33214
 Alpha  occ. eigenvalues --   -0.33140  -0.32546  -0.32314  -0.32227  -0.32157
 Alpha  occ. eigenvalues --   -0.31926  -0.31541  -0.31486  -0.26075  -0.25553
 Alpha  occ. eigenvalues --   -0.23104  -0.22915
 Alpha virt. eigenvalues --   -0.07282  -0.07045   0.00188   0.00611   0.02396
 Alpha virt. eigenvalues --    0.02752   0.04461   0.04510   0.05487   0.06410
 Alpha virt. eigenvalues --    0.06632   0.07492   0.07585   0.08088   0.08420

 Mulliken charges:
               1
     1  Mg   0.983965
     2  C   -0.026231
     3  C   -0.064984
     4  C   -0.072320
     5  C   -0.099303
     6  N   -0.335726
     7  C   -0.019357
     8  C   -0.045996
     9  C   -0.130674
    10  C    0.025572
    11  C    0.037437
    12  C    0.055219
    13  C   -0.144079
    14  H    0.038393
    15  N   -0.481624
    16  C    0.183427
    17  C   -0.191631
    18  C   -0.022547
    19  C    0.131640
    20  C    0.056818
    21  C    0.038469
    22  O   -0.281147
    23  C    0.024629
    24  N   -0.375279
    25  C    0.076346
    26  C   -0.094281
    27  C   -0.054961
    28  C    0.063664
    29  C    0.027616
    30  C   -0.032338
    31  C   -0.043688
    32  N   -0.452831
    33  C    0.130740
    34  C   -0.169513
    35  C   -0.056372
    36  C    0.215841
    37  C    0.092221
    38  C    0.091604
    39  O   -0.190076
    40  C   -0.123900
    41  C    0.263241
    42  O   -0.290825
    43  O   -0.356975
    44  C    0.146690
    45  H   -0.009031
    46  H    0.021608
    47  H   -0.013516
    48  H    0.038445
    49  H    0.026768
    50  H    0.047602
    51  H    0.032125
    52  H    0.052291
    53  H    0.035796
    54  H    0.047024
    55  H    0.065129
    56  H    0.052666
    57  H    0.057274
    58  H    0.043316
    59  H    0.035675
    60  H    0.042619
    61  H    0.066622
    62  H    0.043712
    63  H    0.047289
    64  H    0.036194
    65  H    0.044658
    66  H    0.039214
    67  H    0.036237
    68  H    0.035238
    69  H    0.040171
    70  H    0.056351
    71  H    0.040405
    72  H    0.028977
    73  H    0.060739
    74  H    0.053788
    75  H    0.024505
    76  H    0.056499
    77  H    0.066054
    78  H    0.067029
    79  H    0.053656
    80  Mg   0.980640
    81  C   -0.124011
    82  C   -0.080708
    83  C   -0.101664
    84  C   -0.096451
    85  N   -0.314498
    86  C   -0.025018
    87  C   -0.047678
    88  C   -0.085506
    89  C    0.061018
    90  C    0.030226
    91  C   -0.009417
    92  C   -0.101184
    93  H    0.050336
    94  N   -0.481392
    95  C    0.127749
    96  C   -0.142774
    97  C   -0.097847
    98  C    0.230142
    99  C    0.077126
   100  C    0.025850
   101  O   -0.277659
   102  C    0.020101
   103  N   -0.347048
   104  C    0.019090
   105  C   -0.090666
   106  C   -0.108994
   107  C    0.094312
   108  C    0.033658
   109  C    0.010067
   110  C   -0.047587
   111  N   -0.436791
   112  C    0.106312
   113  C   -0.206185
   114  C   -0.066835
   115  C    0.193044
   116  C    0.118117
   117  C    0.144132
   118  O   -0.188460
   119  C   -0.050666
   120  C    0.292289
   121  O   -0.254443
   122  O   -0.371182
   123  C    0.136633
   124  H   -0.000043
   125  H   -0.036512
   126  H    0.002944
   127  H    0.018566
   128  H    0.029585
   129  H    0.037180
   130  H    0.045372
   131  H    0.037039
   132  H    0.031094
   133  H    0.053657
   134  H    0.048075
   135  H    0.042402
   136  H    0.047753
   137  H    0.033321
   138  H    0.069415
   139  H    0.083960
   140  H    0.065125
   141  H    0.043328
   142  H    0.038416
   143  H    0.032669
   144  H    0.040662
   145  H    0.041130
   146  H    0.031821
   147  H    0.033602
   148  H    0.025555
   149  H    0.046659
   150  H    0.035588
   151  H    0.033268
   152  H    0.080953
   153  H    0.046756
   154  H    0.029883
   155  H    0.059557
   156  H    0.065637
   157  H    0.052750
   158  H    0.056653
 Sum of Mulliken charges =  -0.00000

 Dipole moment (field-independent basis, Debye):
    X=              0.3541    Y=              1.2158    Z=             -0.8862  Tot=              1.5456
 Quadrupole moment (field-independent basis, Debye-Ang):
   XX=           -444.8790   YY=           -521.6827   ZZ=           -474.7796
   XY=            104.0646   XZ=            -60.6614   YZ=             -5.6082

 Normal termination of Gaussian 16 at Sat Sep 18 19:28:03 2021.
