 Gaussian 16, Revision A.03,
 Gaussian 16:  ES64L-G16RevA.03 25-Dec-2016

 --------------------------------
 #p wB97XD/Def2SVP td=(nstates=5)
 --------------------------------

 --------------------------------
 TDDFT excited states in gaussian
 --------------------------------
 Symbolic Z-matrix:
 Charge =  0 Multiplicity = 1

                         Standard orientation:
 ---------------------------------------------------------------------
 Center     Atomic      Atomic             Coordinates (Angstroms)
 Number     Number       Type             X           Y           Z
 ---------------------------------------------------------------------
      1         12           0       -0.672979    0.022169   -0.520114
      2          6           0        2.703075    0.420386    0.191734
      3          6           0       -0.269851   -3.475553   -0.117634
      4          6           0       -3.964897   -0.309561   -0.053869
      5          6           0       -1.021102    3.516280   -0.206010
      6          7           0        1.022119   -1.365831    0.347177
      7          6           0        2.328922   -0.944624    0.290758
      8          6           0        3.280694   -2.075041    0.527113
      9          6           0        2.370019   -3.338670    0.171735
     10          6           0        0.920170   -2.737585    0.151289
     11          6           0        2.730120   -4.104134   -1.199785
     12          6           0        3.918068   -1.982596    2.007873
     13          6           0        5.212472   -2.607543    2.149899
     14          1           0        5.268515   -3.665954    3.271832
     15          7           0       -1.968521   -1.638565   -0.321540
     16          6           0       -1.605633   -3.007271   -0.180200
     17          6           0       -2.834149   -3.780977   -0.118424
     18          6           0       -3.937890   -2.893769   -0.119480
     19          6           0       -3.314592   -1.534408   -0.254954
     20          6           0       -2.829341   -5.248755    0.095389
     21          6           0       -5.448834   -3.346365    0.046476
     22          8           0       -5.658099   -4.552781    0.163771
     23          6           0       -6.611881   -2.403558   -0.242507
     24          7           0       -2.196956    1.421596   -0.084544
     25          6           0       -3.486715    0.999588   -0.067404
     26          6           0       -4.552962    2.216501    0.269746
     27          6           0       -3.608609    3.484230    0.000200
     28          6           0       -2.194822    2.835022   -0.133615
     29          6           0       -5.837499    2.276329   -0.640754
     30          6           0       -3.647682    4.514234    1.130683
     31          6           0       -4.072929    5.976814    0.857082
     32          7           0        0.594863    1.646424   -0.385173
     33          6           0        0.311598    2.979090   -0.306723
     34          6           0        1.539762    3.723902   -0.348104
     35          6           0        2.523869    2.696985   -0.089540
     36          6           0        1.852625    1.462347   -0.083755
     37          6           0        1.679396    5.218689   -0.329005
     38          6           0        3.922687    2.488974    0.221692
     39          8           0        4.842853    3.246706    0.162304
     40          6           0        4.164259    0.936820    0.375758
     41          6           0        5.072896    0.313925   -0.706930
     42          8           0        4.932737    0.475083   -1.900224
     43          8           0        6.136134   -0.377746   -0.090752
     44          6           0        7.169808   -0.869678   -0.950686
     45          1           0       -0.067729   -4.546021   -0.053331
     46          1           0       -4.986683   -0.348944    0.328903
     47          1           0       -1.176000    4.594275   -0.132580
     48          1           0        4.030369   -2.158555   -0.260405
     49          1           0        2.446838   -4.050063    0.994791
     50          1           0        2.975529   -5.122879   -0.900000
     51          1           0        3.555309   -3.641151   -1.740021
     52          1           0        1.817764   -4.102499   -1.796896
     53          1           0        3.197681   -2.521203    2.623313
     54          1           0        3.833660   -0.913009    2.202011
     55          1           0        5.913142   -1.801406    2.364066
     56          1           0        5.475101   -3.136060    1.233536
     57          1           0       -1.837784   -5.674334   -0.057850
     58          1           0       -3.446713   -5.736313   -0.659504
     59          1           0       -3.135421   -5.502215    1.110636
     60          1           0       -6.686943   -1.570711    0.457369
     61          1           0       -7.525081   -2.999447   -0.229805
     62          1           0       -6.483773   -2.036473   -1.260872
     63          1           0       -4.734791    2.096607    1.337413
     64          1           0       -3.743068    3.958866   -0.972024
     65          1           0       -6.720989    2.049494   -0.044729
     66          1           0       -5.751508    1.537522   -1.438443
     67          1           0       -5.888787    3.290118   -1.039325
     68          1           0       -2.714024    4.529576    1.692496
     69          1           0       -4.270714    4.234575    1.980073
     70          1           0       -3.303614    6.746391    0.925963
     71          1           0       -4.784538    6.212511    1.648753
     72          1           0       -4.524847    6.079262   -0.130249
     73          1           0        2.687057    5.447718   -0.676683
     74          1           0        1.810143    5.658158    0.659368
     75          1           0        0.883678    5.763137   -0.836759
     76          1           0        4.674747    0.866649    1.336676
     77          1           0        7.524619   -1.714138   -0.358953
     78          1           0        8.025375   -0.195615   -0.988616
     79          1           0        6.783396   -1.069515   -1.949310
 ---------------------------------------------------------------------

 SCF Done:  E(RwB97XD) =  -2035.27720580     A.U. after   19 cycles

 Excitation energies and oscillator strengths:

 Excited State   1:      Singlet-A      1.6352 eV  758.22 nm  f=0.3880  <S**2>=0.000
     155 ->158        -0.17858
     156 ->157         0.68607
     155 <-158        -0.11659
 This state for optimization and/or second-order correction.
 Total Energy, E(TD-HF/TD-DFT) =  -2035.21711327
 Copying the excited state density for this state as the 1-particle RhoCI density.

 Excited State   2:      Singlet-A      2.1962 eV  564.55 nm  f=0.1043  <S**2>=0.000
     155 ->157         0.63438
     156 ->158         0.29403

 Excited State   3:      Singlet-A      3.3902 eV  365.72 nm  f=0.0206  <S**2>=0.000
     152 ->157         0.56025
     153 ->157        -0.12253
     154 ->157        -0.35458
     156 ->158        -0.15461

 Excited State   4:      Singlet-A      3.4159 eV  362.96 nm  f=0.0307  <S**2>=0.000
     151 ->157        -0.13840
     152 ->157         0.19973
     153 ->157        -0.24332
     154 ->157         0.52347
     156 ->158        -0.26761

 Excited State   5:      Singlet-A      3.5215 eV  352.08 nm  f=0.0015  <S**2>=0.000
     152 ->157         0.23217
     153 ->157         0.51158
     153 ->159        -0.25376
     153 ->160         0.23273
     154 ->157         0.18548

 The electronic state is 1-A.
 Alpha  occ. eigenvalues --  -46.96154 -19.30349 -19.25658 -19.24767 -19.23249
 Alpha  occ. eigenvalues --  -14.46930 -14.46618 -14.44837 -14.43624 -10.43944
 Alpha  occ. eigenvalues --  -10.40421 -10.37978 -10.35909 -10.35709 -10.35301
 Alpha  occ. eigenvalues --  -10.35179 -10.35120 -10.34530 -10.34457 -10.33602
 Alpha  occ. eigenvalues --  -10.33357 -10.32715 -10.32698 -10.32563 -10.32553
 Alpha  occ. eigenvalues --  -10.32348 -10.32258 -10.32102 -10.32027 -10.31998
 Alpha  occ. eigenvalues --  -10.31710 -10.31687 -10.30953 -10.30745 -10.30588
 Alpha  occ. eigenvalues --  -10.30497 -10.30367 -10.30362 -10.30211 -10.29669
 Alpha  occ. eigenvalues --  -10.29530 -10.29429 -10.28635  -3.22038  -1.95568
 Alpha  occ. eigenvalues --   -1.95211  -1.94969  -1.18231  -1.12991  -1.12559
 Alpha  occ. eigenvalues --   -1.10925  -1.06898  -1.04972  -1.04388  -1.03637
 Alpha  occ. eigenvalues --   -0.94194  -0.91105  -0.90271  -0.90072  -0.88808
 Alpha  occ. eigenvalues --   -0.88389  -0.87767  -0.85999  -0.85243  -0.84621
 Alpha  occ. eigenvalues --   -0.84165  -0.83103  -0.82227  -0.79755  -0.79303
 Alpha  occ. eigenvalues --   -0.78694  -0.78054  -0.76896  -0.74655  -0.73334
 Alpha  occ. eigenvalues --   -0.71144  -0.70415  -0.69410  -0.68481  -0.67852
 Alpha  occ. eigenvalues --   -0.66838  -0.66457  -0.66102  -0.64798  -0.61701
 Alpha  occ. eigenvalues --   -0.61439  -0.60987  -0.60529  -0.59983  -0.59458
 Alpha  occ. eigenvalues --   -0.58335  -0.57287  -0.56946  -0.56690  -0.55930
 Alpha  occ. eigenvalues --   -0.55185  -0.54680  -0.54503  -0.54415  -0.54043
 Alpha  occ. eigenvalues --   -0.53696  -0.53592  -0.52958  -0.52709  -0.52161
 Alpha  occ. eigenvalues --   -0.52017  -0.51684  -0.51583  -0.51152  -0.51049
 Alpha  occ. eigenvalues --   -0.50714  -0.50368  -0.49927  -0.49801  -0.49225
 Alpha  occ. eigenvalues --   -0.48996  -0.48924  -0.48355  -0.48080  -0.47885
 Alpha  occ. eigenvalues --   -0.47578  -0.47173  -0.46884  -0.46739  -0.46431
 Alpha  occ. eigenvalues --   -0.46025  -0.45898  -0.45452  -0.45355  -0.45076
 Alpha  occ. eigenvalues --   -0.44725  -0.44620  -0.44427  -0.44175  -0.43387
 Alpha  occ. eigenvalues --   -0.42952  -0.42885  -0.42361  -0.41711  -0.40613
 Alpha  occ. eigenvalues --   -0.40178  -0.39695  -0.39040  -0.38676  -0.38237
 Alpha  occ. eigenvalues --   -0.37569  -0.36749  -0.36244  -0.35537  -0.33585
 Alpha  occ. eigenvalues --   -0.33452  -0.32432  -0.31940  -0.31295  -0.26259
 Alpha  occ. eigenvalues --   -0.22983
 Alpha virt. eigenvalues --   -0.07122   0.00253   0.02514   0.04257   0.04495
 Alpha virt. eigenvalues --    0.06730   0.07088   0.08431   0.09335   0.10852
 Alpha virt. eigenvalues --    0.11329   0.12073   0.12445   0.12822   0.13499

 Mulliken charges:
               1
     1  Mg   0.961153
     2  C   -0.078228
     3  C   -0.075654
     4  C   -0.094095
     5  C   -0.091075
     6  N   -0.325510
     7  C   -0.039361
     8  C   -0.084220
     9  C   -0.134176
    10  C    0.034796
    11  C    0.014961
    12  C    0.053011
    13  C   -0.094446
    14  H    0.019868
    15  N   -0.466822
    16  C    0.174697
    17  C   -0.161886
    18  C   -0.102869
    19  C    0.203968
    20  C    0.095604
    21  C    0.076080
    22  O   -0.234485
    23  C   -0.028106
    24  N   -0.403904
    25  C    0.073730
    26  C   -0.123926
    27  C   -0.024112
    28  C    0.034566
    29  C    0.024338
    30  C   -0.029739
    31  C   -0.054242
    32  N   -0.416096
    33  C    0.139580
    34  C   -0.160879
    35  C   -0.085716
    36  C    0.221541
    37  C    0.066603
    38  C    0.109046
    39  O   -0.181740
    40  C   -0.079793
    41  C    0.276336
    42  O   -0.220962
    43  O   -0.387260
    44  C    0.130562
    45  H    0.011413
    46  H   -0.019721
    47  H   -0.007321
    48  H    0.027251
    49  H    0.037136
    50  H    0.043857
    51  H    0.052437
    52  H    0.042170
    53  H    0.036901
    54  H    0.036964
    55  H    0.063460
    56  H    0.049720
    57  H    0.010681
    58  H    0.056727
    59  H    0.066340
    60  H    0.071065
    61  H    0.057628
    62  H    0.067768
    63  H    0.055944
    64  H    0.043567
    65  H    0.039927
    66  H    0.046117
    67  H    0.045232
    68  H    0.031550
    69  H    0.018910
    70  H    0.040057
    71  H    0.034076
    72  H    0.032256
    73  H    0.049869
    74  H    0.043568
    75  H    0.043541
    76  H    0.072480
    77  H    0.046046
    78  H    0.054206
    79  H    0.067040
 Sum of Mulliken charges =  -0.00000

 Dipole moment (field-independent basis, Debye):
    X=             -3.0052    Y=             -0.2200    Z=              0.0006  Tot=              3.0132
 Quadrupole moment (field-independent basis, Debye-Ang):
   XX=           -250.4646   YY=           -255.6176   ZZ=           -258.7311
   XY=            -45.9649   XZ=              2.7622   YZ=              6.7129

 Normal termination of Gaussian 16 at Sun Sep 19 04:15:48 2021.
