 Gaussian 16, Revision A.03,
 Gaussian 16:  ES64L-G16RevA.03 25-Dec-2016

 --------------------------------
 #p wB97XD/Def2SVP td=(nstates=5)
 --------------------------------

 --------------------------------
 TDDFT excited states in gaussian
 --------------------------------
 Symbolic Z-matrix:
 Charge =  0 Multiplicity = 1

                         Standard orientation:
 ---------------------------------------------------------------------
 Center     Atomic      Atomic             Coordinates (Angstroms)
 Number     Number       Type             X           Y           Z
 ---------------------------------------------------------------------
      1         12           0       11.907826   -0.102224    0.498957
      2          6           0        8.648681    0.224093   -0.565661
      3          6           0       12.875428    2.141804   -2.108027
      4          6           0       15.064314   -0.634814    1.217012
      5          6           0       10.931035   -2.416432    2.918433
      6          7           0       10.812345    1.014163   -1.103290
      7          6           0        9.493917    1.018857   -1.320779
      8          6           0        9.172309    2.043959   -2.456740
      9          6           0       10.598471    2.519968   -2.995931
     10          6           0       11.535937    1.789739   -2.014938
     11          6           0       11.001806    2.054182   -4.381754
     12          6           0        8.224584    3.182074   -2.049107
     13          6           0        7.071798    3.321365   -3.029095
     14          1           0        6.361060    4.667621   -3.230500
     15          7           0       13.702538    0.720399   -0.291410
     16          6           0       13.906714    1.631516   -1.287265
     17          6           0       15.254562    1.953341   -1.444242
     18          6           0       15.972253    1.068333   -0.566168
     19          6           0       14.904877    0.330529    0.194036
     20          6           0       15.775013    2.995644   -2.423327
     21          6           0       17.472101    0.858636   -0.436420
     22          8           0       17.880233   -0.084710    0.268475
     23          6           0       18.442365    1.656359   -1.208153
     24          7           0       12.803919   -1.306653    1.870958
     25          6           0       14.170522   -1.337850    2.058582
     26          6           0       14.656566   -2.342913    3.167909
     27          6           0       13.259443   -2.661343    3.852988
     28          6           0       12.259292   -2.117260    2.816556
     29          6           0       15.440944   -3.663659    2.799383
     30          6           0       13.043140   -2.238356    5.376682
     31          6           0       12.760808   -0.777870    5.611150
     32          7           0       10.233441   -1.050416    1.010178
     33          6           0        9.931122   -1.969163    1.997165
     34          6           0        8.565573   -2.302152    2.016490
     35          6           0        8.041594   -1.432417    1.053156
     36          6           0        9.085078   -0.670375    0.451390
     37          6           0        7.998939   -3.233841    3.001290
     38          6           0        6.810881   -1.171694    0.411425
     39          8           0        5.736505   -1.752692    0.577510
     40          6           0        7.110598   -0.030988   -0.694891
     41          6           0        6.713727   -0.522324   -2.002675
     42          8           0        7.296969   -1.338550   -2.678841
     43          8           0        5.526734   -0.032957   -2.339401
     44          6           0        4.899832   -0.493108   -3.541509
     45          1           0       13.166646    2.787073   -2.938943
     46          1           0       16.060512   -0.915335    1.564443
     47          1           0       10.668820   -3.146325    3.687231
     48          1           0        8.725109    1.376153   -3.192358
     49          1           0       10.525859    3.605349   -3.073573
     50          1           0       10.222604    1.518432   -4.924724
     51          1           0       11.828595    1.347534   -4.315061
     52          1           0       11.440892    2.883602   -4.936983
     53          1           0        8.699872    4.155459   -1.926510
     54          1           0        7.843235    2.950739   -1.054820
     55          1           0        6.271329    2.693645   -2.635862
     56          1           0        7.455918    2.983340   -3.991351
     57          1           0       14.968207    3.606868   -2.827896
     58          1           0       16.164879    2.484162   -3.303654
     59          1           0       16.608178    3.553280   -1.997199
     60          1           0       19.398430    1.137106   -1.283589
     61          1           0       18.628209    2.565988   -0.636227
     62          1           0       18.059283    1.855104   -2.208785
     63          1           0       15.195824   -1.842216    3.972658
     64          1           0       13.162893   -3.742003    3.949936
     65          1           0       15.564647   -3.683236    1.717320
     66          1           0       14.776254   -4.517054    2.939332
     67          1           0       16.392753   -3.856335    3.295239
     68          1           0       13.993635   -2.426085    5.875503
     69          1           0       12.317611   -2.851800    5.909544
     70          1           0       12.118738   -0.719327    6.489331
     71          1           0       12.348375   -0.150670    4.821815
     72          1           0       13.724429   -0.308569    5.809436
     73          1           0        8.461209   -3.299873    3.985873
     74          1           0        7.755168   -4.229794    2.633459
     75          1           0        7.003542   -2.809898    3.131344
     76          1           0        6.515357    0.844622   -0.436580
     77          1           0        5.179185    0.104435   -4.410021
     78          1           0        3.827087   -0.352518   -3.410312
     79          1           0        5.178517   -1.529807   -3.731034
     80         12           0      -11.630997   -0.363183   -0.438332
     81          6           0      -10.825703    2.632276    1.133971
     82          6           0       -8.636426   -0.131463   -2.171114
     83          6           0      -11.996005   -3.440370   -1.588505
     84          6           0      -14.326689   -0.730914    1.700954
     85          7           0       -9.862172    0.982152   -0.397968
     86          6           0       -9.818111    2.215632    0.218863
     87          6           0       -8.620790    3.025193   -0.182808
     88          6           0       -8.159933    2.277338   -1.510820
     89          6           0       -8.879605    0.943665   -1.360338
     90          6           0       -8.215741    2.983867   -2.947760
     91          6           0       -7.503243    3.202285    0.946679
     92          6           0       -7.307724    2.036915    1.961630
     93          1           0       -5.865241    1.734055    2.288923
     94          7           0      -10.421699   -1.674580   -1.617044
     95          6           0       -9.211955   -1.372392   -2.254554
     96          6           0       -8.679215   -2.515338   -2.944120
     97          6           0       -9.647720   -3.532930   -2.772114
     98          6           0      -10.746594   -2.945189   -1.949321
     99          6           0       -7.470180   -2.363574   -3.868587
    100          6           0       -9.480827   -4.931440   -3.408862
    101          8           0       -8.454818   -5.257937   -4.014228
    102          6           0      -10.639392   -5.830833   -3.299524
    103          7           0      -12.924549   -1.873799    0.125752
    104          6           0      -13.033366   -2.965220   -0.719492
    105          6           0      -14.264238   -3.845864   -0.411062
    106          6           0      -14.829732   -3.024102    0.819023
    107          6           0      -13.971433   -1.843773    0.933718
    108          6           0      -15.286091   -4.081354   -1.478208
    109          6           0      -14.783604   -3.851606    2.201607
    110          6           0      -16.085914   -3.731702    2.949332
    111          7           0      -12.585175    0.798806    1.004438
    112          6           0      -13.681650    0.510571    1.795744
    113          6           0      -13.947775    1.638027    2.718150
    114          6           0      -12.830247    2.512867    2.484509
    115          6           0      -12.065511    1.944612    1.459051
    116          6           0      -14.901065    1.754681    3.837293
    117          6           0      -12.104647    3.732894    2.897795
    118          8           0      -12.339611    4.492726    3.808748
    119          6           0      -10.818414    3.875074    2.021883
    120          6           0      -10.809835    5.168884    1.338147
    121          8           0      -10.015971    6.105917    1.426243
    122          8           0      -12.080001    5.314393    0.721120
    123          6           0      -12.259238    6.544479   -0.079549
    124          1           0       -7.829639    0.100385   -2.870274
    125          1           0      -12.324405   -4.375947   -2.045743
    126          1           0      -15.238584   -0.910089    2.273326
    127          1           0       -8.916487    4.050063   -0.406824
    128          1           0       -7.107764    2.106445   -1.281757
    129          1           0       -8.498487    4.036407   -2.948410
    130          1           0       -8.949831    2.546344   -3.624234
    131          1           0       -7.206175    3.047445   -3.354688
    132          1           0       -7.641153    4.143760    1.477363
    133          1           0       -6.564607    3.362602    0.416298
    134          1           0       -7.801552    1.131294    1.608050
    135          1           0       -7.778063    2.292392    2.910763
    136          1           0       -6.850258   -3.258353   -3.933154
    137          1           0       -6.793705   -1.617981   -3.451589
    138          1           0       -7.878991   -2.137517   -4.853691
    139          1           0      -11.435275   -5.448172   -3.937767
    140          1           0      -10.943867   -5.913765   -2.255731
    141          1           0      -10.286849   -6.789394   -3.680173
    142          1           0      -13.898229   -4.766892    0.043240
    143          1           0      -15.778966   -2.652612    0.433003
    144          1           0      -16.139216   -4.536849   -0.975145
    145          1           0      -14.890643   -4.859763   -2.130772
    146          1           0      -15.507402   -3.153573   -2.007123
    147          1           0      -13.930724   -3.466342    2.760268
    148          1           0      -14.502314   -4.903732    2.141548
    149          1           0      -15.903709   -3.132456    3.841089
    150          1           0      -16.380378   -4.668636    3.423308
    151          1           0      -16.805543   -3.174031    2.350315
    152          1           0      -15.553953    0.895371    3.997410
    153          1           0      -15.558984    2.584440    3.581294
    154          1           0      -14.210281    1.756425    4.680211
    155          1           0       -9.996143    3.795536    2.732584
    156          1           0      -12.730287    6.156439   -0.983403
    157          1           0      -11.404489    7.152229   -0.376574
    158          1           0      -13.077129    7.069476    0.414291
 ---------------------------------------------------------------------

 SCF Done:  E(RwB97XD) =  -4070.62432712     A.U. after   20 cycles

 Excitation energies and oscillator strengths:

 Excited State   1:      Singlet-A      1.6470 eV  752.78 nm  f=0.4841  <S**2>=0.000
     309 -> 316        0.17527
     311 -> 313        0.67382
     312 -> 314        0.12010
     309 <- 316        0.11261
 This state for optimization and/or second-order correction.
 Total Energy, E(TD-HF/TD-DFT) =  -4070.56380021
 Copying the excited state density for this state as the 1-particle RhoCI density.

 Excited State   2:      Singlet-A      1.6622 eV  745.89 nm  f=0.3095  <S**2>=0.000
     310 -> 315       -0.18495
     311 -> 313       -0.12011
     312 -> 314        0.67085
     310 <- 315       -0.11299

 Excited State   3:      Singlet-A      2.1479 eV  577.22 nm  f=0.0870  <S**2>=0.000
     310 -> 314        0.62756
     312 -> 315        0.30660

 Excited State   4:      Singlet-A      2.1652 eV  572.63 nm  f=0.1557  <S**2>=0.000
     309 -> 313        0.65027
     311 -> 316       -0.25682

 Excited State   5:      Singlet-A      3.6012 eV  344.28 nm  f=0.0000  <S**2>=0.000
     312 -> 313        0.70689

 The electronic state is 1-A.
 Alpha  occ. eigenvalues --  -46.95366 -46.93990 -19.29966 -19.29510 -19.25417
 Alpha  occ. eigenvalues --  -19.23963 -19.23794 -19.23600 -19.23489 -19.23255
 Alpha  occ. eigenvalues --  -14.46849 -14.46757 -14.46740 -14.46701 -14.44278
 Alpha  occ. eigenvalues --  -14.44171 -14.43685 -14.43518 -10.43527 -10.42044
 Alpha  occ. eigenvalues --  -10.39062 -10.38980 -10.38804 -10.38475 -10.35606
 Alpha  occ. eigenvalues --  -10.35515 -10.35194 -10.35120 -10.35116 -10.34964
 Alpha  occ. eigenvalues --  -10.34881 -10.34758 -10.34647 -10.34581 -10.34095
 Alpha  occ. eigenvalues --  -10.34052 -10.33995 -10.33366 -10.33309 -10.33006
 Alpha  occ. eigenvalues --  -10.32935 -10.32857 -10.32709 -10.32569 -10.32525
 Alpha  occ. eigenvalues --  -10.32483 -10.32449 -10.32391 -10.32360 -10.32292
 Alpha  occ. eigenvalues --  -10.32257 -10.32252 -10.32226 -10.32181 -10.32034
 Alpha  occ. eigenvalues --  -10.31977 -10.31697 -10.31641 -10.31601 -10.31589
 Alpha  occ. eigenvalues --  -10.31582 -10.31341 -10.31334 -10.31188 -10.31119
 Alpha  occ. eigenvalues --  -10.31013 -10.30933 -10.30761 -10.30754 -10.30672
 Alpha  occ. eigenvalues --  -10.30655 -10.30482 -10.30249 -10.30214 -10.30134
 Alpha  occ. eigenvalues --  -10.29990 -10.29989 -10.29981 -10.29805 -10.29801
 Alpha  occ. eigenvalues --  -10.29566 -10.29494 -10.29385 -10.29358 -10.28717
 Alpha  occ. eigenvalues --  -10.28620  -3.21335  -3.20182  -1.94907  -1.94473
 Alpha  occ. eigenvalues --   -1.94298  -1.93778  -1.93329  -1.93161  -1.20048
 Alpha  occ. eigenvalues --   -1.16901  -1.12528  -1.11495  -1.11031  -1.10685
 Alpha  occ. eigenvalues --   -1.09909  -1.09040  -1.06976  -1.06560  -1.05708
 Alpha  occ. eigenvalues --   -1.05635  -1.05286  -1.05130  -1.04536  -1.04303
 Alpha  occ. eigenvalues --   -0.94347  -0.93999  -0.91428  -0.91233  -0.91080
 Alpha  occ. eigenvalues --   -0.90604  -0.90162  -0.89794  -0.89535  -0.89470
 Alpha  occ. eigenvalues --   -0.89398  -0.88730  -0.88683  -0.88066  -0.86643
 Alpha  occ. eigenvalues --   -0.86476  -0.86281  -0.85705  -0.84787  -0.84573
 Alpha  occ. eigenvalues --   -0.84285  -0.84182  -0.83100  -0.82712  -0.82520
 Alpha  occ. eigenvalues --   -0.82018  -0.80270  -0.80158  -0.79368  -0.79206
 Alpha  occ. eigenvalues --   -0.78786  -0.78667  -0.78066  -0.77838  -0.77617
 Alpha  occ. eigenvalues --   -0.77171  -0.75390  -0.74545  -0.74037  -0.73377
 Alpha  occ. eigenvalues --   -0.71511  -0.71259  -0.71163  -0.70783  -0.69994
 Alpha  occ. eigenvalues --   -0.69704  -0.69046  -0.68732  -0.68262  -0.67295
 Alpha  occ. eigenvalues --   -0.66873  -0.66810  -0.66523  -0.66428  -0.66305
 Alpha  occ. eigenvalues --   -0.65899  -0.64453  -0.64253  -0.62376  -0.62167
 Alpha  occ. eigenvalues --   -0.61940  -0.61312  -0.60946  -0.60852  -0.60449
 Alpha  occ. eigenvalues --   -0.60256  -0.60187  -0.59619  -0.59423  -0.59116
 Alpha  occ. eigenvalues --   -0.58457  -0.58209  -0.58048  -0.57687  -0.57256
 Alpha  occ. eigenvalues --   -0.57052  -0.56965  -0.56540  -0.56455  -0.56248
 Alpha  occ. eigenvalues --   -0.55720  -0.55409  -0.55084  -0.54779  -0.54656
 Alpha  occ. eigenvalues --   -0.54559  -0.54481  -0.54407  -0.54188  -0.54027
 Alpha  occ. eigenvalues --   -0.53976  -0.53829  -0.53628  -0.53458  -0.53233
 Alpha  occ. eigenvalues --   -0.52964  -0.52661  -0.52277  -0.52229  -0.52169
 Alpha  occ. eigenvalues --   -0.52140  -0.51885  -0.51557  -0.51466  -0.51414
 Alpha  occ. eigenvalues --   -0.51372  -0.51164  -0.51111  -0.51031  -0.50821
 Alpha  occ. eigenvalues --   -0.50670  -0.50418  -0.50280  -0.50111  -0.50018
 Alpha  occ. eigenvalues --   -0.50014  -0.49665  -0.49591  -0.49242  -0.49116
 Alpha  occ. eigenvalues --   -0.48790  -0.48763  -0.48406  -0.48374  -0.48260
 Alpha  occ. eigenvalues --   -0.48120  -0.48056  -0.47900  -0.47570  -0.47395
 Alpha  occ. eigenvalues --   -0.47301  -0.47229  -0.47010  -0.46972  -0.46828
 Alpha  occ. eigenvalues --   -0.46815  -0.46767  -0.46548  -0.46487  -0.46468
 Alpha  occ. eigenvalues --   -0.46247  -0.45792  -0.45776  -0.45517  -0.45389
 Alpha  occ. eigenvalues --   -0.45275  -0.45153  -0.45083  -0.44958  -0.44660
 Alpha  occ. eigenvalues --   -0.44564  -0.44438  -0.44364  -0.43974  -0.43874
 Alpha  occ. eigenvalues --   -0.43865  -0.43582  -0.43495  -0.43475  -0.43378
 Alpha  occ. eigenvalues --   -0.43289  -0.43030  -0.42966  -0.42862  -0.42336
 Alpha  occ. eigenvalues --   -0.42275  -0.41797  -0.41063  -0.40918  -0.40813
 Alpha  occ. eigenvalues --   -0.40341  -0.40060  -0.39870  -0.39614  -0.39313
 Alpha  occ. eigenvalues --   -0.39128  -0.38821  -0.38584  -0.38441  -0.38285
 Alpha  occ. eigenvalues --   -0.38067  -0.37588  -0.37060  -0.36693  -0.36182
 Alpha  occ. eigenvalues --   -0.35747  -0.35484  -0.35335  -0.33625  -0.33410
 Alpha  occ. eigenvalues --   -0.33043  -0.32715  -0.32675  -0.32501  -0.32172
 Alpha  occ. eigenvalues --   -0.32079  -0.31895  -0.31746  -0.25997  -0.25930
 Alpha  occ. eigenvalues --   -0.23241  -0.22934
 Alpha virt. eigenvalues --   -0.07416  -0.06919  -0.00227   0.00544   0.02582
 Alpha virt. eigenvalues --    0.02812   0.04631   0.04646   0.04938   0.06264
 Alpha virt. eigenvalues --    0.06285   0.07552   0.07970   0.08293   0.08812

 Mulliken charges:
               1
     1  Mg   0.992330
     2  C   -0.044592
     3  C   -0.105258
     4  C   -0.051643
     5  C   -0.104112
     6  N   -0.349857
     7  C   -0.028306
     8  C   -0.021308
     9  C   -0.162765
    10  C    0.116182
    11  C    0.006228
    12  C    0.037883
    13  C   -0.145851
    14  H    0.028663
    15  N   -0.425340
    16  C    0.160241
    17  C   -0.175164
    18  C   -0.074227
    19  C    0.171371
    20  C    0.066486
    21  C    0.038110
    22  O   -0.260219
    23  C    0.004629
    24  N   -0.395972
    25  C    0.027590
    26  C   -0.070142
    27  C   -0.076055
    28  C    0.087088
    29  C    0.029251
    30  C   -0.031254
    31  C   -0.058221
    32  N   -0.470416
    33  C    0.132237
    34  C   -0.134287
    35  C   -0.037873
    36  C    0.195112
    37  C    0.072225
    38  C    0.096221
    39  O   -0.219112
    40  C   -0.078231
    41  C    0.235429
    42  O   -0.251466
    43  O   -0.328070
    44  C    0.135917
    45  H   -0.002192
    46  H    0.021835
    47  H   -0.004678
    48  H    0.033166
    49  H    0.042914
    50  H    0.043763
    51  H    0.040410
    52  H    0.035117
    53  H    0.039577
    54  H    0.030143
    55  H    0.063210
    56  H    0.056078
    57  H    0.042403
    58  H    0.056985
    59  H    0.056318
    60  H    0.055801
    61  H    0.067001
    62  H    0.044961
    63  H    0.038383
    64  H    0.027407
    65  H    0.039855
    66  H    0.027330
    67  H    0.056722
    68  H    0.029149
    69  H    0.033009
    70  H    0.037869
    71  H    0.047652
    72  H    0.028719
    73  H    0.046084
    74  H    0.055707
    75  H    0.045583
    76  H    0.065585
    77  H    0.042358
    78  H    0.055448
    79  H    0.066875
    80  Mg   0.956589
    81  C   -0.040773
    82  C   -0.109494
    83  C   -0.099585
    84  C   -0.098569
    85  N   -0.351175
    86  C    0.005620
    87  C   -0.079276
    88  C   -0.050096
    89  C    0.025592
    90  C    0.014885
    91  C   -0.014132
    92  C   -0.131579
    93  H    0.041721
    94  N   -0.438357
    95  C    0.180487
    96  C   -0.146795
    97  C   -0.106939
    98  C    0.207122
    99  C    0.079539
   100  C    0.051284
   101  O   -0.236061
   102  C   -0.010243
   103  N   -0.369024
   104  C    0.022475
   105  C   -0.081691
   106  C   -0.120625
   107  C    0.043063
   108  C    0.052830
   109  C   -0.004587
   110  C   -0.029169
   111  N   -0.430928
   112  C    0.160488
   113  C   -0.200636
   114  C   -0.051356
   115  C    0.127513
   116  C    0.085784
   117  C    0.113297
   118  O   -0.186603
   119  C   -0.040744
   120  C    0.283372
   121  O   -0.239929
   122  O   -0.406667
   123  C    0.140571
   124  H   -0.005314
   125  H   -0.020634
   126  H   -0.017837
   127  H    0.038893
   128  H    0.033777
   129  H    0.033181
   130  H    0.047677
   131  H    0.043627
   132  H    0.053153
   133  H    0.034622
   134  H    0.067864
   135  H    0.053159
   136  H    0.060730
   137  H    0.037152
   138  H    0.064637
   139  H    0.070631
   140  H    0.065201
   141  H    0.051393
   142  H    0.031764
   143  H    0.032292
   144  H    0.042743
   145  H    0.037333
   146  H    0.047555
   147  H    0.040052
   148  H    0.030714
   149  H    0.027349
   150  H    0.038642
   151  H    0.043248
   152  H    0.019064
   153  H    0.066595
   154  H    0.074729
   155  H    0.069385
   156  H    0.037322
   157  H    0.075440
   158  H    0.056658
 Sum of Mulliken charges =  -0.00000

 Dipole moment (field-independent basis, Debye):
    X=             -1.3134    Y=              0.8543    Z=             -3.1402  Tot=              3.5093
 Quadrupole moment (field-independent basis, Debye-Ang):
   XX=           -366.2181   YY=           -516.8274   ZZ=           -494.0317
   XY=             91.8963   XZ=             39.1169   YZ=            -60.9949

 Normal termination of Gaussian 16 at Sun Sep 19 16:30:01 2021.
