 Gaussian 16, Revision A.03,
 Gaussian 16:  ES64L-G16RevA.03 25-Dec-2016

 --------------------------------
 #p wB97XD/Def2SVP td=(nstates=5)
 --------------------------------

 --------------------------------
 TDDFT excited states in gaussian
 --------------------------------
 Symbolic Z-matrix:
 Charge =  0 Multiplicity = 1

                         Standard orientation:
 ---------------------------------------------------------------------
 Center     Atomic      Atomic             Coordinates (Angstroms)
 Number     Number       Type             X           Y           Z
 ---------------------------------------------------------------------
      1         12           0       11.685273   -0.463161   -0.426024
      2          6           0        9.782483    2.418682   -0.047195
      3          6           0       14.497104    1.550307    0.496530
      4          6           0       13.525548   -3.181935   -0.261893
      5          6           0        8.704608   -2.319326   -0.593382
      6          7           0       12.045566    1.693949    0.268509
      7          6           0       11.086170    2.681045    0.237225
      8          6           0       11.688565    4.015441    0.685306
      9          6           0       13.211288    3.729668    0.567513
     10          6           0       13.286744    2.228115    0.478346
     11          6           0       14.011258    4.383872   -0.626573
     12          6           0       11.250903    4.430357    2.099628
     13          6           0       11.661009    5.788219    2.525273
     14          1           0       10.831337    6.458270    3.686209
     15          7           0       13.753139   -0.801744    0.066288
     16          6           0       14.735358    0.148623    0.385893
     17          6           0       15.976266   -0.545560    0.589260
     18          6           0       15.683777   -1.956823    0.506176
     19          6           0       14.250300   -2.028824    0.057470
     20          6           0       17.290225    0.175040    0.999312
     21          6           0       16.740001   -3.037259    0.759239
     22          8           0       17.920570   -2.764570    0.900337
     23          6           0       16.315443   -4.454589    0.825695
     24          7           0       11.180692   -2.453744   -0.651483
     25          6           0       12.144052   -3.378818   -0.583286
     26          6           0       11.499426   -4.823658   -0.608733
     27          6           0        9.939130   -4.599733   -0.659098
     28          6           0        9.913142   -2.976609   -0.577034
     29          6           0       12.034833   -5.829519   -1.661460
     30          6           0        9.266494   -5.246329    0.570729
     31          6           0        7.827201   -5.727543    0.350358
     32          7           0        9.617158   -0.107611   -0.348427
     33          6           0        8.536432   -0.918893   -0.553325
     34          6           0        7.334835   -0.079657   -0.632839
     35          6           0        7.794380    1.206245   -0.534588
     36          6           0        9.149767    1.163805   -0.298425
     37          6           0        5.911486   -0.566933   -0.922652
     38          6           0        7.381162    2.576685   -0.492428
     39          8           0        6.303200    3.101453   -0.626587
     40          6           0        8.661320    3.424362   -0.187993
     41          6           0        8.913947    4.294907   -1.368999
     42          8           0        8.949566    3.962671   -2.521301
     43          8           0        9.252896    5.580106   -0.911500
     44          6           0        9.606903    6.527846   -1.929542
     45          1           0       15.301730    2.262136    0.689935
     46          1           0       14.007470   -4.162302   -0.259989
     47          1           0        7.762698   -2.858527   -0.714930
     48          1           0       11.422676    4.734638   -0.088209
     49          1           0       13.808304    3.958187    1.449686
     50          1           0       14.859670    4.864861   -0.140265
     51          1           0       13.439487    4.871818   -1.416388
     52          1           0       14.460984    3.559492   -1.179771
     53          1           0       11.670250    3.840011    2.914783
     54          1           0       10.169004    4.336290    2.193799
     55          1           0       11.619068    6.418457    1.636937
     56          1           0       12.713020    5.764750    2.809034
     57          1           0       17.288232   -0.132190    2.045603
     58          1           0       17.243169    1.263060    1.049403
     59          1           0       18.257760   -0.030131    0.540813
     60          1           0       15.470139   -4.454189    1.513843
     61          1           0       17.116936   -5.031670    1.287158
     62          1           0       16.056446   -4.688543   -0.207209
     63          1           0       11.767199   -5.275085    0.346992
     64          1           0        9.453331   -4.922803   -1.579270
     65          1           0       12.647911   -6.566002   -1.141036
     66          1           0       12.543178   -5.270986   -2.446717
     67          1           0       11.207984   -6.413837   -2.065134
     68          1           0        9.305023   -4.478646    1.343149
     69          1           0        9.840728   -6.059061    1.015952
     70          1           0        7.883896   -6.785717    0.607905
     71          1           0        7.430347   -5.531605   -0.645822
     72          1           0        7.158889   -5.265102    1.076826
     73          1           0        5.119290   -0.141730   -0.307319
     74          1           0        6.014061   -1.643761   -0.786336
     75          1           0        5.782052   -0.484525   -2.001913
     76          1           0        8.432012    4.014231    0.699542
     77          1           0        8.788890    7.246762   -1.976440
     78          1           0        9.820972    6.175370   -2.938806
     79          1           0       10.525317    7.018334   -1.608131
     80         12           0      -11.097363   -0.783838   -0.624931
     81          6           0      -12.116566    2.614367   -0.323979
     82          6           0       -7.897568    0.130148    0.186669
     83          6           0      -10.380288   -4.129547    0.109296
     84          6           0      -14.479558   -1.706370   -0.866094
     85          7           0      -10.224274    1.243680    0.135834
     86          6           0      -10.732941    2.471969   -0.054722
     87          6           0       -9.602873    3.484694   -0.084720
     88          6           0       -8.222679    2.702125    0.151040
     89          6           0       -8.842739    1.221620    0.002048
     90          6           0       -7.236468    3.081771   -0.976362
     91          6           0       -9.825820    4.575713    0.950199
     92          6           0      -10.431117    4.139572    2.305627
     93          1           0       -9.473422    4.123611    3.528266
     94          7           0       -9.321559   -1.893800   -0.018009
     95          6           0       -8.128882   -1.267046    0.270764
     96          6           0       -7.174719   -2.315350    0.454085
     97          6           0       -7.848695   -3.592888    0.539465
     98          6           0       -9.249822   -3.279742    0.160574
     99          6           0       -5.724181   -2.047842    0.782847
    100          6           0       -7.285744   -4.919982    1.050644
    101          8           0       -6.149498   -4.973770    1.480251
    102          6           0       -8.036282   -6.139651    1.072641
    103          7           0      -12.265762   -2.641199   -0.305538
    104          6           0      -11.723003   -3.842705   -0.175160
    105          6           0      -12.748514   -4.960810   -0.081946
    106          6           0      -14.080185   -4.094973   -0.031048
    107          6           0      -13.626696   -2.753674   -0.482663
    108          6           0      -12.705750   -5.986966   -1.317033
    109          6           0      -14.736445   -4.163359    1.424238
    110          6           0      -16.043652   -4.872260    1.639142
    111          7           0      -12.848807    0.177394   -0.843769
    112          6           0      -14.145434   -0.331981   -1.060076
    113          6           0      -15.098047    0.763662   -1.319176
    114          6           0      -14.309952    1.884445   -1.058196
    115          6           0      -12.977223    1.530193   -0.648161
    116          6           0      -16.567740    0.703237   -1.861683
    117          6           0      -14.381819    3.348239   -1.007996
    118          8           0      -15.288680    4.162818   -1.246674
    119          6           0      -12.985001    3.887519   -0.554912
    120          6           0      -13.372196    4.539683    0.727348
    121          8           0      -13.900841    3.986756    1.657510
    122          8           0      -13.168145    5.851666    0.651301
    123          6           0      -13.408878    6.707751    1.865013
    124          1           0       -6.848339    0.429338    0.144711
    125          1           0      -10.289992   -5.208961    0.246344
    126          1           0      -15.499379   -2.095993   -0.825158
    127          1           0       -9.761774    3.865836   -1.093500
    128          1           0       -7.797358    2.891331    1.136998
    129          1           0       -6.356355    3.532919   -0.518578
    130          1           0       -7.618714    3.818595   -1.683287
    131          1           0       -6.950923    2.142247   -1.448737
    132          1           0      -10.488899    5.337029    0.539225
    133          1           0       -8.878948    5.041800    1.224328
    134          1           0      -10.779016    3.110836    2.398244
    135          1           0      -11.250142    4.839244    2.472630
    136          1           0       -5.523665   -0.982134    0.896047
    137          1           0       -5.118061   -2.552410    0.029648
    138          1           0       -5.490798   -2.606072    1.688819
    139          1           0       -8.906196   -6.142172    1.729760
    140          1           0       -7.390804   -6.952940    1.403784
    141          1           0       -8.375215   -6.229466    0.040007
    142          1           0      -12.727511   -5.505330    0.861726
    143          1           0      -14.742886   -4.695728   -0.654222
    144          1           0      -11.880816   -5.723712   -1.979706
    145          1           0      -13.632981   -5.855728   -1.875139
    146          1           0      -12.665140   -7.046182   -1.058393
    147          1           0      -15.019379   -3.171314    1.776414
    148          1           0      -14.043330   -4.594635    2.145219
    149          1           0      -16.901301   -4.203778    1.714863
    150          1           0      -15.837974   -5.335850    2.604527
    151          1           0      -16.200931   -5.746314    1.006950
    152          1           0      -17.207722    0.373375   -1.043778
    153          1           0      -16.560583    0.043803   -2.729706
    154          1           0      -16.884137    1.716894   -2.106969
    155          1           0      -12.644905    4.545789   -1.355203
    156          1           0      -14.451283    7.009544    1.969567
    157          1           0      -12.803342    7.614451    1.833748
    158          1           0      -13.082288    6.093670    2.704247
 ---------------------------------------------------------------------

 SCF Done:  E(RwB97XD) =  -4070.57558406     A.U. after   20 cycles

 Excitation energies and oscillator strengths:

 Excited State   1:      Singlet-A      1.6282 eV  761.49 nm  f=0.3954  <S**2>=0.000
     310 -> 315        0.20643
     312 -> 314        0.67761
     310 <- 315        0.12502
 This state for optimization and/or second-order correction.
 Total Energy, E(TD-HF/TD-DFT) =  -4070.51574952
 Copying the excited state density for this state as the 1-particle RhoCI density.

 Excited State   2:      Singlet-A      1.7220 eV  719.99 nm  f=0.3686  <S**2>=0.000
     309 -> 316       -0.17602
     311 -> 313        0.68448
     309 <- 316       -0.11102

 Excited State   3:      Singlet-A      2.1413 eV  579.00 nm  f=0.0687  <S**2>=0.000
     310 -> 314        0.61703
     312 -> 315       -0.33139

 Excited State   4:      Singlet-A      2.2423 eV  552.94 nm  f=0.1136  <S**2>=0.000
     309 -> 313        0.63524
     311 -> 316        0.29254

 Excited State   5:      Singlet-A      3.1855 eV  389.22 nm  f=0.0153  <S**2>=0.000
     308 -> 314        0.65688
     308 -> 317        0.10727
     312 -> 315        0.20202

 The electronic state is 1-A.
 Alpha  occ. eigenvalues --  -46.96466 -46.95991 -19.30211 -19.30181 -19.25411
 Alpha  occ. eigenvalues --  -19.23830 -19.23746 -19.23713 -19.23524 -19.23026
 Alpha  occ. eigenvalues --  -14.47216 -14.46957 -14.46931 -14.46488 -14.44849
 Alpha  occ. eigenvalues --  -14.44670 -14.44075 -14.43636 -10.43339 -10.42488
 Alpha  occ. eigenvalues --  -10.38923 -10.38846 -10.38202 -10.38112 -10.36434
 Alpha  occ. eigenvalues --  -10.36144 -10.36025 -10.35701 -10.35323 -10.35311
 Alpha  occ. eigenvalues --  -10.35181 -10.35037 -10.34966 -10.34937 -10.34934
 Alpha  occ. eigenvalues --  -10.34655 -10.34647 -10.34537 -10.33886 -10.33832
 Alpha  occ. eigenvalues --  -10.33779 -10.33146 -10.32921 -10.32869 -10.32696
 Alpha  occ. eigenvalues --  -10.32550 -10.32357 -10.32322 -10.32284 -10.32259
 Alpha  occ. eigenvalues --  -10.32245 -10.32238 -10.32215 -10.32158 -10.32146
 Alpha  occ. eigenvalues --  -10.32108 -10.32004 -10.31933 -10.31889 -10.31795
 Alpha  occ. eigenvalues --  -10.31766 -10.31664 -10.31598 -10.31419 -10.31394
 Alpha  occ. eigenvalues --  -10.31069 -10.30916 -10.30871 -10.30797 -10.30706
 Alpha  occ. eigenvalues --  -10.30627 -10.30484 -10.30439 -10.30375 -10.30322
 Alpha  occ. eigenvalues --  -10.30283 -10.30103 -10.29968 -10.29937 -10.29846
 Alpha  occ. eigenvalues --  -10.29745 -10.29453 -10.29373 -10.29270 -10.28892
 Alpha  occ. eigenvalues --  -10.27916  -3.22260  -3.21869  -1.95804  -1.95460
 Alpha  occ. eigenvalues --   -1.95406  -1.95193  -1.94993  -1.94822  -1.19153
 Alpha  occ. eigenvalues --   -1.18769  -1.12526  -1.12366  -1.12365  -1.11027
 Alpha  occ. eigenvalues --   -1.10961  -1.09821  -1.06582  -1.06524  -1.05823
 Alpha  occ. eigenvalues --   -1.05719  -1.05588  -1.04851  -1.04348  -1.03582
 Alpha  occ. eigenvalues --   -0.95210  -0.93840  -0.91278  -0.91165  -0.90763
 Alpha  occ. eigenvalues --   -0.90680  -0.90575  -0.90096  -0.90001  -0.88937
 Alpha  occ. eigenvalues --   -0.88407  -0.87995  -0.87885  -0.87257  -0.87138
 Alpha  occ. eigenvalues --   -0.86517  -0.85892  -0.85858  -0.85076  -0.84714
 Alpha  occ. eigenvalues --   -0.84505  -0.84436  -0.83230  -0.82975  -0.82814
 Alpha  occ. eigenvalues --   -0.82128  -0.79769  -0.79698  -0.79250  -0.79214
 Alpha  occ. eigenvalues --   -0.79055  -0.78264  -0.78119  -0.78112  -0.77477
 Alpha  occ. eigenvalues --   -0.76831  -0.75193  -0.74770  -0.74022  -0.73633
 Alpha  occ. eigenvalues --   -0.71301  -0.70950  -0.70759  -0.70387  -0.70006
 Alpha  occ. eigenvalues --   -0.69742  -0.68749  -0.68616  -0.67964  -0.67545
 Alpha  occ. eigenvalues --   -0.67427  -0.67061  -0.66954  -0.66696  -0.66604
 Alpha  occ. eigenvalues --   -0.65945  -0.64669  -0.64339  -0.62292  -0.62178
 Alpha  occ. eigenvalues --   -0.61862  -0.61283  -0.61180  -0.60927  -0.60787
 Alpha  occ. eigenvalues --   -0.60557  -0.60433  -0.59739  -0.59549  -0.59166
 Alpha  occ. eigenvalues --   -0.58482  -0.58131  -0.57826  -0.57742  -0.57443
 Alpha  occ. eigenvalues --   -0.56882  -0.56822  -0.56793  -0.56391  -0.56308
 Alpha  occ. eigenvalues --   -0.55931  -0.55750  -0.55513  -0.55337  -0.55264
 Alpha  occ. eigenvalues --   -0.55092  -0.54937  -0.54564  -0.54512  -0.54386
 Alpha  occ. eigenvalues --   -0.53885  -0.53840  -0.53643  -0.53586  -0.53583
 Alpha  occ. eigenvalues --   -0.53378  -0.52789  -0.52637  -0.52525  -0.52278
 Alpha  occ. eigenvalues --   -0.52187  -0.52008  -0.51785  -0.51644  -0.51524
 Alpha  occ. eigenvalues --   -0.51313  -0.51232  -0.51079  -0.50954  -0.50853
 Alpha  occ. eigenvalues --   -0.50813  -0.50391  -0.50236  -0.50091  -0.50047
 Alpha  occ. eigenvalues --   -0.49648  -0.49465  -0.49317  -0.49155  -0.49061
 Alpha  occ. eigenvalues --   -0.48961  -0.48835  -0.48769  -0.48447  -0.48400
 Alpha  occ. eigenvalues --   -0.48329  -0.48131  -0.48073  -0.47765  -0.47655
 Alpha  occ. eigenvalues --   -0.47466  -0.47284  -0.47159  -0.47014  -0.47004
 Alpha  occ. eigenvalues --   -0.46953  -0.46700  -0.46630  -0.46189  -0.46071
 Alpha  occ. eigenvalues --   -0.45851  -0.45838  -0.45629  -0.45522  -0.45419
 Alpha  occ. eigenvalues --   -0.45284  -0.45135  -0.45023  -0.44863  -0.44769
 Alpha  occ. eigenvalues --   -0.44630  -0.44330  -0.44267  -0.44221  -0.44077
 Alpha  occ. eigenvalues --   -0.43885  -0.43808  -0.43393  -0.43384  -0.43278
 Alpha  occ. eigenvalues --   -0.43177  -0.42698  -0.42467  -0.42140  -0.41933
 Alpha  occ. eigenvalues --   -0.41878  -0.41790  -0.41648  -0.41567  -0.40710
 Alpha  occ. eigenvalues --   -0.40478  -0.40107  -0.39804  -0.39648  -0.39305
 Alpha  occ. eigenvalues --   -0.39057  -0.38889  -0.38760  -0.38535  -0.38250
 Alpha  occ. eigenvalues --   -0.38006  -0.37591  -0.37201  -0.36256  -0.36112
 Alpha  occ. eigenvalues --   -0.35996  -0.35905  -0.35534  -0.33977  -0.33512
 Alpha  occ. eigenvalues --   -0.33044  -0.32678  -0.32605  -0.32542  -0.32304
 Alpha  occ. eigenvalues --   -0.32248  -0.32111  -0.31041  -0.26595  -0.26119
 Alpha  occ. eigenvalues --   -0.23469  -0.23039
 Alpha virt. eigenvalues --   -0.07360  -0.07040  -0.00580  -0.00009   0.02425
 Alpha virt. eigenvalues --    0.02998   0.04223   0.04651   0.04838   0.05217
 Alpha virt. eigenvalues --    0.06959   0.07263   0.07580   0.07692   0.08543

 Mulliken charges:
               1
     1  Mg   0.953467
     2  C   -0.018618
     3  C   -0.078273
     4  C   -0.102326
     5  C   -0.070639
     6  N   -0.331623
     7  C   -0.062383
     8  C    0.031495
     9  C   -0.153705
    10  C    0.039000
    11  C    0.036047
    12  C    0.038108
    13  C   -0.109398
    14  H    0.041338
    15  N   -0.434219
    16  C    0.181866
    17  C   -0.135745
    18  C   -0.121052
    19  C    0.236203
    20  C    0.063056
    21  C    0.024910
    22  O   -0.229638
    23  C    0.002000
    24  N   -0.396539
    25  C    0.068525
    26  C   -0.119378
    27  C   -0.096954
    28  C    0.094289
    29  C    0.022055
    30  C   -0.030873
    31  C   -0.043154
    32  N   -0.425087
    33  C    0.085875
    34  C   -0.233502
    35  C    0.018343
    36  C    0.142854
    37  C    0.107239
    38  C    0.094459
    39  O   -0.186868
    40  C   -0.073713
    41  C    0.259928
    42  O   -0.213186
    43  O   -0.378397
    44  C    0.124790
    45  H   -0.006458
    46  H   -0.019619
    47  H   -0.005754
    48  H    0.020690
    49  H    0.031371
    50  H    0.043407
    51  H    0.049191
    52  H    0.029125
    53  H    0.029909
    54  H    0.035477
    55  H    0.036320
    56  H    0.039802
    57  H    0.058586
    58  H    0.019550
    59  H    0.074435
    60  H    0.052478
    61  H    0.058016
    62  H    0.078959
    63  H    0.040461
    64  H    0.042204
    65  H    0.035908
    66  H    0.049933
    67  H    0.035462
    68  H    0.033145
    69  H    0.030026
    70  H    0.038390
    71  H    0.042307
    72  H    0.039342
    73  H    0.070719
    74  H    0.005868
    75  H    0.057998
    76  H    0.072804
    77  H    0.056947
    78  H    0.062168
    79  H    0.040255
    80  Mg   0.942022
    81  C   -0.037929
    82  C   -0.073449
    83  C   -0.078573
    84  C   -0.055790
    85  N   -0.320048
    86  C   -0.052887
    87  C   -0.003169
    88  C   -0.147413
    89  C    0.056784
    90  C    0.022415
    91  C   -0.011510
    92  C   -0.138352
    93  H    0.014003
    94  N   -0.462337
    95  C    0.168066
    96  C   -0.174818
    97  C   -0.086926
    98  C    0.201934
    99  C    0.084810
   100  C    0.035777
   101  O   -0.236151
   102  C    0.005450
   103  N   -0.322813
   104  C    0.047429
   105  C   -0.151662
   106  C   -0.062338
   107  C    0.046720
   108  C    0.017269
   109  C   -0.028896
   110  C   -0.050453
   111  N   -0.501187
   112  C    0.150864
   113  C   -0.184911
   114  C   -0.035087
   115  C    0.186896
   116  C    0.087868
   117  C    0.097730
   118  O   -0.231207
   119  C   -0.050645
   120  C    0.238235
   121  O   -0.235969
   122  O   -0.346724
   123  C    0.130833
   124  H    0.014291
   125  H   -0.020212
   126  H    0.003135
   127  H    0.035307
   128  H    0.061816
   129  H    0.034240
   130  H    0.044587
   131  H    0.040485
   132  H    0.041083
   133  H    0.041699
   134  H    0.087120
   135  H    0.047444
   136  H    0.030441
   137  H    0.048600
   138  H    0.061937
   139  H    0.066308
   140  H    0.056358
   141  H    0.054648
   142  H    0.040228
   143  H    0.017927
   144  H    0.043565
   145  H    0.031130
   146  H    0.046122
   147  H    0.037510
   148  H    0.032085
   149  H    0.053176
   150  H    0.027980
   151  H    0.026531
   152  H    0.054154
   153  H    0.056523
   154  H    0.062965
   155  H    0.068030
   156  H    0.072629
   157  H    0.059232
   158  H    0.067071
 Sum of Mulliken charges =  -0.00000

 Dipole moment (field-independent basis, Debye):
    X=              1.9739    Y=             -3.4423    Z=             -1.4905  Tot=              4.2388
 Quadrupole moment (field-independent basis, Debye-Ang):
   XX=           -521.7670   YY=           -452.2864   ZZ=           -516.4203
   XY=             64.5766   XZ=              9.4997   YZ=             12.9764

 Normal termination of Gaussian 16 at Mon Sep 20 15:35:57 2021.
