 Gaussian 16, Revision A.03,
 Gaussian 16:  ES64L-G16RevA.03 25-Dec-2016

 --------------------------------
 #p wB97XD/Def2SVP td=(nstates=5)
 --------------------------------

 --------------------------------
 TDDFT excited states in gaussian
 --------------------------------
 Symbolic Z-matrix:
 Charge =  0 Multiplicity = 1

                         Standard orientation:
 ---------------------------------------------------------------------
 Center     Atomic      Atomic             Coordinates (Angstroms)
 Number     Number       Type             X           Y           Z
 ---------------------------------------------------------------------
      1         12           0      -23.152252   -0.671558    0.034417
      2          6           0      -22.554768    2.630530   -0.973884
      3          6           0      -22.445151    0.326556    3.357032
      4          6           0      -23.382435   -3.920655    0.993515
      5          6           0      -23.085847   -1.624514   -3.283487
      6          7           0      -22.743327    1.267553    1.026660
      7          6           0      -22.730100    2.507878    0.382133
      8          6           0      -22.884988    3.646339    1.453852
      9          6           0      -22.751979    2.880097    2.775031
     10          6           0      -22.586359    1.374256    2.368258
     11          6           0      -21.529913    3.397852    3.580463
     12          6           0      -24.210278    4.360150    1.217041
     13          6           0      -24.321480    5.817505    1.634103
     14          1           0      -23.221855    6.402409    2.549037
     15          7           0      -22.965168   -1.701883    1.893684
     16          6           0      -22.641904   -1.114786    3.131783
     17          6           0      -22.556357   -2.126681    4.170123
     18          6           0      -22.889801   -3.400103    3.561155
     19          6           0      -23.075578   -3.041994    2.089672
     20          6           0      -22.355005   -1.822118    5.660070
     21          6           0      -23.032164   -4.783523    4.166232
     22          8           0      -23.344585   -5.735713    3.463786
     23          6           0      -22.997573   -4.920125    5.639970
     24          7           0      -23.292000   -2.506884   -1.041778
     25          6           0      -23.469343   -3.699224   -0.407519
     26          6           0      -23.776415   -4.805902   -1.450111
     27          6           0      -23.748938   -4.064890   -2.842986
     28          6           0      -23.465085   -2.606270   -2.399920
     29          6           0      -22.754216   -5.950657   -1.332807
     30          6           0      -25.078597   -4.123175   -3.640933
     31          6           0      -24.956586   -5.171851   -4.742162
     32          7           0      -22.777404    0.216800   -1.822450
     33          6           0      -22.705456   -0.265718   -3.086563
     34          6           0      -22.193758    0.827249   -3.948744
     35          6           0      -22.221522    1.977638   -3.216086
     36          6           0      -22.542951    1.534769   -1.907595
     37          6           0      -21.933274    0.613465   -5.430357
     38          6           0      -22.048709    3.436431   -3.218195
     39          8           0      -21.716829    4.175173   -4.137410
     40          6           0      -22.347309    3.877858   -1.798422
     41          6           0      -21.212119    4.726892   -1.403949
     42          8           0      -20.069167    4.417522   -1.041064
     43          8           0      -21.600449    6.040111   -1.573380
     44          6           0      -20.602815    7.053221   -1.306053
     45          1           0      -22.301863    0.687436    4.377443
     46          1           0      -23.547258   -4.920975    1.399367
     47          1           0      -22.991360   -2.020216   -4.296945
     48          1           0      -22.008305    4.252374    1.222093
     49          1           0      -23.607359    3.181416    3.379627
     50          1           0      -20.701305    2.694119    3.661430
     51          1           0      -21.843247    3.413692    4.623952
     52          1           0      -21.125376    4.321650    3.167340
     53          1           0      -24.947500    3.718713    1.700867
     54          1           0      -24.472794    4.271798    0.163479
     55          1           0      -25.298884    5.974527    2.088307
     56          1           0      -24.330853    6.312596    0.662437
     57          1           0      -22.119719   -0.778653    5.870503
     58          1           0      -21.537049   -2.426502    6.054471
     59          1           0      -23.230001   -2.172424    6.206307
     60          1           0      -23.862008   -4.402253    6.056244
     61          1           0      -22.010296   -4.678368    6.033521
     62          1           0      -23.160743   -5.950867    5.954840
     63          1           0      -24.747392   -5.231971   -1.198623
     64          1           0      -22.874830   -4.465150   -3.358290
     65          1           0      -22.187239   -6.192827   -2.231224
     66          1           0      -23.442138   -6.773579   -1.139920
     67          1           0      -21.964763   -5.781390   -0.601079
     68          1           0      -25.191737   -3.226431   -4.250415
     69          1           0      -25.952481   -4.334940   -3.024538
     70          1           0      -25.878657   -5.745839   -4.651662
     71          1           0      -24.192784   -5.927197   -4.558934
     72          1           0      -24.846126   -4.779238   -5.753365
     73          1           0      -21.922731   -0.426806   -5.756699
     74          1           0      -21.000326    1.067727   -5.761802
     75          1           0      -22.795586    0.987545   -5.983372
     76          1           0      -23.286428    4.429965   -1.815157
     77          1           0      -19.705927    6.787055   -1.865967
     78          1           0      -20.340688    7.139038   -0.251299
     79          1           0      -20.922237    7.912593   -1.894610
     80         12           0       23.183284   -0.583573    0.104784
     81          6           0       21.219616    2.180312    1.062828
     82          6           0       25.677557    1.548422   -0.769228
     83          6           0       24.979541   -3.264250   -0.908811
     84          6           0       20.425266   -2.633626    0.603942
     85          7           0       23.387585    1.579590    0.047254
     86          6           0       22.502220    2.511972    0.594940
     87          6           0       23.148059    3.864887    0.604355
     88          6           0       24.308029    3.687438   -0.403987
     89          6           0       24.476941    2.146437   -0.376191
     90          6           0       24.067032    4.162298   -1.871712
     91          6           0       23.628759    4.387615    2.010284
     92          6           0       23.232801    5.797259    2.315121
     93          1           0       24.322330    6.702439    2.919739
     94          7           0       25.060583   -0.804837   -0.604824
     95          6           0       26.011376    0.205757   -0.824460
     96          6           0       27.227365   -0.360562   -1.254117
     97          6           0       27.067694   -1.824838   -1.306343
     98          6           0       25.697268   -2.018042   -0.926675
     99          6           0       28.432062    0.400619   -1.724894
    100          6           0       28.040048   -2.998189   -1.760948
    101          8           0       27.690961   -4.153064   -1.696909
    102          6           0       29.470835   -2.707888   -2.191232
    103          7           0       22.718548   -2.643246   -0.222675
    104          6           0       23.648050   -3.529038   -0.665277
    105          6           0       22.995631   -4.985801   -0.815451
    106          6           0       21.614729   -4.837614   -0.038751
    107          6           0       21.559516   -3.260037    0.133892
    108          6           0       22.790487   -5.502554   -2.266313
    109          6           0       21.561430   -5.598400    1.333843
    110          6           0       20.387024   -6.480549    1.413051
    111          7           0       21.208663   -0.308218    0.659434
    112          6           0       20.224669   -1.258680    0.927307
    113          6           0       19.039351   -0.609470    1.417416
    114          6           0       19.375525    0.728332    1.457975
    115          6           0       20.659392    0.872966    1.035677
    116          6           0       17.777577   -1.397296    1.856518
    117          6           0       18.880635    2.059360    1.757932
    118          8           0       17.750364    2.387951    2.043924
    119          6           0       20.087193    3.087510    1.483010
    120          6           0       19.665757    4.054771    0.453125
    121          8           0       19.283925    3.742207   -0.705153
    122          8           0       19.726644    5.307520    0.989531
    123          6           0       18.982218    6.339860    0.220686
    124          1           0       26.416493    2.294970   -1.067588
    125          1           0       25.481057   -4.178400   -1.232744
    126          1           0       19.549303   -3.279501    0.687487
    127          1           0       22.540319    4.649919    0.152755
    128          1           0       25.225062    4.196231   -0.106367
    129          1           0       23.422843    5.038794   -1.952875
    130          1           0       23.645293    3.314727   -2.412572
    131          1           0       24.963482    4.354271   -2.460757
    132          1           0       24.709568    4.247687    2.006959
    133          1           0       23.291016    3.736567    2.817142
    134          1           0       22.395678    5.634560    2.994167
    135          1           0       22.962384    6.308359    1.391225
    136          1           0       29.282361    0.408694   -1.042610
    137          1           0       28.176859    1.456446   -1.806005
    138          1           0       28.868191    0.135645   -2.687682
    139          1           0       29.944759   -3.682118   -2.304693
    140          1           0       29.959396   -2.005204   -1.515584
    141          1           0       29.466312   -2.069857   -3.075457
    142          1           0       23.667633   -5.737164   -0.400441
    143          1           0       20.813883   -5.174181   -0.698819
    144          1           0       23.033792   -4.805993   -3.069300
    145          1           0       21.764894   -5.812007   -2.469089
    146          1           0       23.423388   -6.383721   -2.374897
    147          1           0       21.449478   -4.864035    2.132383
    148          1           0       22.420439   -6.239217    1.531671
    149          1           0       20.704524   -7.500040    1.192538
    150          1           0       19.497125   -6.232918    0.835462
    151          1           0       19.965003   -6.428856    2.416768
    152          1           0       18.049052   -2.442317    2.007853
    153          1           0       16.936728   -1.212541    1.186416
    154          1           0       17.544937   -0.994519    2.841589
    155          1           0       20.379332    3.616270    2.390652
    156          1           0       18.959715    7.279169    0.772969
    157          1           0       17.947426    5.996673    0.221631
    158          1           0       19.430854    6.375036   -0.772477
 ---------------------------------------------------------------------

 SCF Done:  E(RwB97XD) =  -4070.62386890     A.U. after   19 cycles

 Excitation energies and oscillator strengths:

 Excited State   1:      Singlet-A      1.6258 eV  762.60 nm  f=0.3923  <S**2>=0.000
     310 -> 315       -0.17888
     312 -> 314        0.68467
     310 <- 315       -0.11343
 This state for optimization and/or second-order correction.
 Total Energy, E(TD-HF/TD-DFT) =  -4070.56412169
 Copying the excited state density for this state as the 1-particle RhoCI density.

 Excited State   2:      Singlet-A      1.6894 eV  733.89 nm  f=0.3952  <S**2>=0.000
     309 -> 316       -0.18340
     311 -> 313        0.68255
     309 <- 316       -0.11555

 Excited State   3:      Singlet-A      2.1420 eV  578.82 nm  f=0.0921  <S**2>=0.000
     310 -> 314        0.63989
     312 -> 315        0.27519

 Excited State   4:      Singlet-A      2.1431 eV  578.53 nm  f=0.1797  <S**2>=0.000
     309 -> 313        0.64828
     311 -> 316        0.25120

 Excited State   5:      Singlet-A      3.1999 eV  387.47 nm  f=0.0021  <S**2>=0.000
     307 -> 313        0.29721
     308 -> 313        0.62275

 The electronic state is 1-A.
 Alpha  occ. eigenvalues --  -46.95429 -46.93529 -19.30855 -19.29648 -19.24919
 Alpha  occ. eigenvalues --  -19.24703 -19.24456 -19.24289 -19.24260 -19.24051
 Alpha  occ. eigenvalues --  -14.46766 -14.46655 -14.46306 -14.46075 -14.44736
 Alpha  occ. eigenvalues --  -14.43952 -14.43727 -14.43133 -10.43260 -10.43178
 Alpha  occ. eigenvalues --  -10.40342 -10.39461 -10.39358 -10.39021 -10.36057
 Alpha  occ. eigenvalues --  -10.35890 -10.35289 -10.35249 -10.35090 -10.35054
 Alpha  occ. eigenvalues --  -10.34718 -10.34673 -10.34657 -10.34637 -10.34634
 Alpha  occ. eigenvalues --  -10.34404 -10.34017 -10.33990 -10.33757 -10.33270
 Alpha  occ. eigenvalues --  -10.33135 -10.33064 -10.32982 -10.32599 -10.32513
 Alpha  occ. eigenvalues --  -10.32393 -10.32266 -10.32221 -10.32166 -10.32135
 Alpha  occ. eigenvalues --  -10.32020 -10.31831 -10.31813 -10.31804 -10.31801
 Alpha  occ. eigenvalues --  -10.31786 -10.31736 -10.31682 -10.31656 -10.31618
 Alpha  occ. eigenvalues --  -10.31585 -10.31573 -10.31461 -10.31417 -10.31181
 Alpha  occ. eigenvalues --  -10.31011 -10.30693 -10.30613 -10.30501 -10.30405
 Alpha  occ. eigenvalues --  -10.30374 -10.30335 -10.30308 -10.30184 -10.29955
 Alpha  occ. eigenvalues --  -10.29938 -10.29837 -10.29591 -10.29376 -10.29299
 Alpha  occ. eigenvalues --  -10.29167 -10.29101 -10.28783 -10.28729 -10.28423
 Alpha  occ. eigenvalues --  -10.28323  -3.21280  -3.19663  -1.94880  -1.94359
 Alpha  occ. eigenvalues --   -1.94278  -1.93264  -1.92781  -1.92664  -1.17921
 Alpha  occ. eigenvalues --   -1.17914  -1.13942  -1.12696  -1.12528  -1.12185
 Alpha  occ. eigenvalues --   -1.09017  -1.08496  -1.06934  -1.06275  -1.05332
 Alpha  occ. eigenvalues --   -1.04770  -1.04617  -1.04554  -1.03675  -1.03492
 Alpha  occ. eigenvalues --   -0.95300  -0.94526  -0.91093  -0.91056  -0.90606
 Alpha  occ. eigenvalues --   -0.90537  -0.89921  -0.89884  -0.89014  -0.88946
 Alpha  occ. eigenvalues --   -0.88777  -0.88366  -0.87750  -0.87491  -0.86228
 Alpha  occ. eigenvalues --   -0.86199  -0.85728  -0.85686  -0.84796  -0.84598
 Alpha  occ. eigenvalues --   -0.84313  -0.84036  -0.83126  -0.82812  -0.82617
 Alpha  occ. eigenvalues --   -0.81967  -0.80215  -0.80075  -0.79226  -0.79163
 Alpha  occ. eigenvalues --   -0.78683  -0.78672  -0.77830  -0.77632  -0.76812
 Alpha  occ. eigenvalues --   -0.76461  -0.74849  -0.74487  -0.72963  -0.72899
 Alpha  occ. eigenvalues --   -0.71014  -0.70587  -0.70377  -0.70010  -0.69847
 Alpha  occ. eigenvalues --   -0.69505  -0.69059  -0.68510  -0.67444  -0.67301
 Alpha  occ. eigenvalues --   -0.67085  -0.66806  -0.66624  -0.66569  -0.66035
 Alpha  occ. eigenvalues --   -0.65862  -0.64081  -0.63917  -0.62323  -0.62131
 Alpha  occ. eigenvalues --   -0.62080  -0.61576  -0.61238  -0.61032  -0.60724
 Alpha  occ. eigenvalues --   -0.60313  -0.60134  -0.59675  -0.59622  -0.59574
 Alpha  occ. eigenvalues --   -0.58170  -0.57827  -0.57691  -0.57627  -0.57403
 Alpha  occ. eigenvalues --   -0.56995  -0.56872  -0.56695  -0.55703  -0.55540
 Alpha  occ. eigenvalues --   -0.55520  -0.55468  -0.55372  -0.55295  -0.55217
 Alpha  occ. eigenvalues --   -0.54830  -0.54730  -0.54555  -0.54487  -0.53811
 Alpha  occ. eigenvalues --   -0.53786  -0.53731  -0.53638  -0.53499  -0.53292
 Alpha  occ. eigenvalues --   -0.52955  -0.52794  -0.52671  -0.52430  -0.52300
 Alpha  occ. eigenvalues --   -0.52041  -0.51809  -0.51729  -0.51530  -0.51343
 Alpha  occ. eigenvalues --   -0.51334  -0.51197  -0.51171  -0.51095  -0.50932
 Alpha  occ. eigenvalues --   -0.50631  -0.50537  -0.50049  -0.49876  -0.49766
 Alpha  occ. eigenvalues --   -0.49567  -0.49321  -0.49153  -0.49083  -0.48742
 Alpha  occ. eigenvalues --   -0.48618  -0.48556  -0.48371  -0.48281  -0.48049
 Alpha  occ. eigenvalues --   -0.47932  -0.47800  -0.47763  -0.47662  -0.47303
 Alpha  occ. eigenvalues --   -0.47141  -0.46974  -0.46875  -0.46677  -0.46675
 Alpha  occ. eigenvalues --   -0.46572  -0.46388  -0.46358  -0.46289  -0.46271
 Alpha  occ. eigenvalues --   -0.46108  -0.45504  -0.45338  -0.45333  -0.45243
 Alpha  occ. eigenvalues --   -0.45116  -0.44950  -0.44849  -0.44777  -0.44772
 Alpha  occ. eigenvalues --   -0.44594  -0.44559  -0.44287  -0.44226  -0.43859
 Alpha  occ. eigenvalues --   -0.43774  -0.43728  -0.43405  -0.43169  -0.43123
 Alpha  occ. eigenvalues --   -0.42972  -0.42867  -0.42334  -0.42286  -0.41952
 Alpha  occ. eigenvalues --   -0.41845  -0.41031  -0.40798  -0.40719  -0.40323
 Alpha  occ. eigenvalues --   -0.40261  -0.39887  -0.39885  -0.39862  -0.39743
 Alpha  occ. eigenvalues --   -0.39651  -0.38751  -0.38587  -0.38390  -0.38280
 Alpha  occ. eigenvalues --   -0.37905  -0.37739  -0.36276  -0.36221  -0.36087
 Alpha  occ. eigenvalues --   -0.36028  -0.35363  -0.34850  -0.33731  -0.33533
 Alpha  occ. eigenvalues --   -0.33485  -0.33469  -0.33363  -0.32817  -0.32434
 Alpha  occ. eigenvalues --   -0.32149  -0.32147  -0.31736  -0.25869  -0.25704
 Alpha  occ. eigenvalues --   -0.23327  -0.22716
 Alpha virt. eigenvalues --   -0.07357  -0.06993   0.00484   0.00653   0.02256
 Alpha virt. eigenvalues --    0.02796   0.04013   0.04885   0.05554   0.06488
 Alpha virt. eigenvalues --    0.06711   0.07410   0.07809   0.08060   0.08238

 Mulliken charges:
               1
     1  Mg   0.955710
     2  C   -0.016266
     3  C   -0.071833
     4  C   -0.061436
     5  C   -0.075429
     6  N   -0.370205
     7  C   -0.076377
     8  C   -0.019329
     9  C   -0.128214
    10  C    0.112445
    11  C    0.004218
    12  C    0.005701
    13  C   -0.087403
    14  H    0.044147
    15  N   -0.442580
    16  C    0.155493
    17  C   -0.170703
    18  C   -0.084839
    19  C    0.094794
    20  C    0.080177
    21  C    0.058982
    22  O   -0.231344
    23  C   -0.015670
    24  N   -0.372815
    25  C    0.091383
    26  C   -0.107488
    27  C   -0.062912
    28  C    0.055537
    29  C    0.009037
    30  C    0.009715
    31  C   -0.064265
    32  N   -0.405588
    33  C    0.114622
    34  C   -0.207844
    35  C   -0.016129
    36  C    0.137427
    37  C    0.069694
    38  C    0.119937
    39  O   -0.196953
    40  C   -0.032862
    41  C    0.261200
    42  O   -0.260746
    43  O   -0.368903
    44  C    0.150849
    45  H   -0.002601
    46  H    0.022727
    47  H   -0.005007
    48  H    0.035175
    49  H    0.041271
    50  H    0.033221
    51  H    0.028431
    52  H    0.050201
    53  H    0.018839
    54  H    0.026377
    55  H    0.050733
    56  H    0.056879
    57  H    0.044925
    58  H    0.041672
    59  H    0.050586
    60  H    0.068882
    61  H    0.058664
    62  H    0.044867
    63  H    0.042159
    64  H    0.041196
    65  H    0.028410
    66  H    0.042369
    67  H    0.055158
    68  H    0.035726
    69  H    0.040875
    70  H    0.024655
    71  H    0.026468
    72  H    0.047211
    73  H    0.017830
    74  H    0.060246
    75  H    0.049655
    76  H    0.082089
    77  H    0.044848
    78  H    0.059135
    79  H    0.053197
    80  Mg   0.978729
    81  C   -0.032849
    82  C   -0.099739
    83  C   -0.063588
    84  C   -0.089475
    85  N   -0.322066
    86  C    0.015247
    87  C   -0.082456
    88  C   -0.128380
    89  C    0.030526
    90  C    0.020662
    91  C    0.044929
    92  C   -0.121176
    93  H    0.030778
    94  N   -0.523170
    95  C    0.241984
    96  C   -0.149216
    97  C   -0.081361
    98  C    0.154482
    99  C    0.041842
   100  C    0.076138
   101  O   -0.213771
   102  C   -0.007491
   103  N   -0.359182
   104  C    0.071747
   105  C   -0.108343
   106  C   -0.079751
   107  C    0.063453
   108  C    0.008311
   109  C    0.027465
   110  C   -0.074065
   111  N   -0.443852
   112  C    0.130167
   113  C   -0.214763
   114  C    0.007952
   115  C    0.121473
   116  C    0.094300
   117  C    0.108413
   118  O   -0.190812
   119  C   -0.041985
   120  C    0.275633
   121  O   -0.281919
   122  O   -0.372062
   123  C    0.141514
   124  H   -0.011135
   125  H    0.021694
   126  H   -0.003572
   127  H    0.026698
   128  H    0.025645
   129  H    0.045057
   130  H    0.043260
   131  H    0.033142
   132  H    0.030088
   133  H    0.030081
   134  H    0.065284
   135  H    0.054103
   136  H    0.051087
   137  H    0.023050
   138  H    0.045359
   139  H    0.070823
   140  H    0.046590
   141  H    0.048642
   142  H    0.037831
   143  H    0.037799
   144  H    0.044175
   145  H    0.029755
   146  H    0.037009
   147  H    0.035352
   148  H    0.037534
   149  H    0.038899
   150  H    0.028217
   151  H    0.026665
   152  H    0.030837
   153  H    0.066500
   154  H    0.049384
   155  H    0.057583
   156  H    0.060433
   157  H    0.064197
   158  H    0.067661
 Sum of Mulliken charges =  -0.00000

 Dipole moment (field-independent basis, Debye):
    X=              1.0411    Y=              0.4668    Z=              3.5993  Tot=              3.7758
 Quadrupole moment (field-independent basis, Debye-Ang):
   XX=           -171.8612   YY=           -484.2471   ZZ=           -491.3824
   XY=             57.0563   XZ=            -89.4815   YZ=             16.1465

 Normal termination of Gaussian 16 at Sun Sep 19 21:52:22 2021.
