 Gaussian 16, Revision A.03,
 Gaussian 16:  ES64L-G16RevA.03 25-Dec-2016

 --------------------------------
 #p wB97XD/Def2SVP td=(nstates=5)
 --------------------------------

 --------------------------------
 TDDFT excited states in gaussian
 --------------------------------
 Symbolic Z-matrix:
 Charge =  0 Multiplicity = 1

                         Standard orientation:
 ---------------------------------------------------------------------
 Center     Atomic      Atomic             Coordinates (Angstroms)
 Number     Number       Type             X           Y           Z
 ---------------------------------------------------------------------
      1         12           0       13.659334   -0.923304   -0.246022
      2          6           0       14.158882    2.467173    0.344346
      3          6           0       10.351495   -0.279722   -0.868014
      4          6           0       13.169138   -4.286544   -0.496126
      5          6           0       17.059227   -1.377345    0.685590
      6          7           0       12.397890    0.870222   -0.226543
      7          6           0       12.870980    2.146900   -0.074691
      8          6           0       11.680800    3.080566   -0.308641
      9          6           0       10.459910    2.181274   -0.385929
     10          6           0       11.125324    0.818521   -0.541178
     11          6           0        9.426351    2.224293    0.707410
     12          6           0       11.833999    4.100268   -1.535418
     13          6           0       10.549024    4.901539   -1.920713
     14          1           0       10.312163    6.285391   -1.261231
     15          7           0       12.017093   -2.077512   -0.772971
     16          6           0       10.746339   -1.641017   -0.957903
     17          6           0        9.941794   -2.808602   -1.207946
     18          6           0       10.767275   -3.965439   -1.091669
     19          6           0       12.033662   -3.492050   -0.753269
     20          6           0        8.481225   -2.672229   -1.509471
     21          6           0       10.293392   -5.446641   -1.155980
     22          8           0       10.970570   -6.356872   -0.712722
     23          6           0        8.979060   -5.850935   -1.628160
     24          7           0       14.875847   -2.479590    0.035758
     25          6           0       14.491167   -3.805021   -0.164198
     26          6           0       15.651915   -4.793324    0.043491
     27          6           0       16.879719   -3.823981    0.127640
     28          6           0       16.220009   -2.459888    0.245530
     29          6           0       15.457143   -5.836844    1.064292
     30          6           0       18.033370   -3.895187   -1.018721
     31          6           0       19.486502   -4.202298   -0.644634
     32          7           0       15.338739    0.301322    0.462446
     33          6           0       16.614317   -0.055348    0.799377
     34          6           0       17.382265    1.080137    1.185513
     35          6           0       16.453327    2.164159    0.947962
     36          6           0       15.194352    1.604696    0.591385
     37          6           0       18.806770    1.027727    1.588134
     38          6           0       16.343146    3.604282    0.908997
     39          8           0       17.130041    4.517152    1.065756
     40          6           0       14.772499    3.850070    0.505937
     41          6           0       14.111085    4.793611    1.442987
     42          8           0       13.897052    4.544388    2.609095
     43          8           0       13.763353    5.949374    0.850419
     44          6           0       12.859717    6.881432    1.628151
     45          1           0        9.308598   -0.074574   -1.119582
     46          1           0       12.983231   -5.359496   -0.575627
     47          1           0       18.071934   -1.719297    0.909895
     48          1           0       11.704098    3.646551    0.622502
     49          1           0        9.879841    2.438042   -1.271969
     50          1           0        9.654287    1.277567    1.196196
     51          1           0        8.410893    2.319054    0.322475
     52          1           0        9.643270    2.987461    1.455129
     53          1           0       12.112353    3.424883   -2.344691
     54          1           0       12.633908    4.810055   -1.327906
     55          1           0        9.642297    4.349877   -1.675676
     56          1           0       10.552575    5.035366   -3.002453
     57          1           0        8.067308   -1.669239   -1.617900
     58          1           0        7.965694   -3.082771   -0.641895
     59          1           0        8.160150   -3.281999   -2.354209
     60          1           0        8.087052   -5.346349   -1.258351
     61          1           0        8.767216   -6.918397   -1.568352
     62          1           0        9.069756   -5.691594   -2.702425
     63          1           0       15.631149   -5.244048   -0.949112
     64          1           0       17.220950   -4.073915    1.132098
     65          1           0       15.431409   -6.870151    0.717240
     66          1           0       14.512526   -5.628418    1.567325
     67          1           0       16.240491   -5.870471    1.821377
     68          1           0       18.047745   -2.929650   -1.523963
     69          1           0       17.879437   -4.591935   -1.843578
     70          1           0       20.153057   -3.339463   -0.645012
     71          1           0       19.921987   -5.056594   -1.162157
     72          1           0       19.497522   -4.470968    0.411767
     73          1           0       18.937670    0.200691    2.285571
     74          1           0       19.164690    1.974005    1.992896
     75          1           0       19.368627    0.645068    0.735476
     76          1           0       14.799705    4.345515   -0.464035
     77          1           0       13.034036    7.833272    1.126948
     78          1           0       13.177472    6.884808    2.670608
     79          1           0       11.838547    6.542454    1.453160
     80         12           0      -14.247653    0.022735    0.280428
     81          6           0      -11.606506    1.773215   -1.263351
     82          6           0      -15.067247   -1.123580   -2.762412
     83          6           0      -16.322395   -1.935015    1.875191
     84          6           0      -12.681799    0.848266    3.384790
     85          7           0      -13.381252    0.275613   -1.765216
     86          6           0      -12.377228    1.071950   -2.202850
     87          6           0      -12.194110    1.049410   -3.706831
     88          6           0      -13.524665    0.309544   -4.134795
     89          6           0      -14.059056   -0.248633   -2.832070
     90          6           0      -14.591537    1.224526   -4.866186
     91          6           0      -10.910834    0.399306   -4.386136
     92          6           0       -9.962706   -0.541065   -3.595650
     93          1           0       -9.266260   -1.715279   -4.379838
     94          7           0      -15.627542   -1.263667   -0.431266
     95          6           0      -15.754420   -1.692155   -1.679992
     96          6           0      -16.771655   -2.778015   -1.716124
     97          6           0      -17.268198   -2.894550   -0.315760
     98          6           0      -16.378413   -2.012498    0.440016
     99          6           0      -17.286272   -3.409211   -2.981689
    100          6           0      -18.343950   -3.834709    0.161629
    101          8           0      -18.933615   -4.524570   -0.666438
    102          6           0      -18.751391   -4.068455    1.663124
    103          7           0      -14.420603   -0.588362    2.411569
    104          6           0      -15.478288   -1.263853    2.701631
    105          6           0      -15.572332   -1.342856    4.290356
    106          6           0      -14.264396   -0.655472    4.687824
    107          6           0      -13.712347   -0.088827    3.393960
    108          6           0      -16.811548   -0.768583    4.996982
    109          6           0      -13.131210   -1.676739    5.220380
    110          6           0      -12.738332   -1.552815    6.703937
    111          7           0      -12.503941    1.011467    0.984819
    112          6           0      -12.069507    1.372194    2.232885
    113          6           0      -10.989480    2.388373    2.138144
    114          6           0      -10.668713    2.497614    0.755438
    115          6           0      -11.721318    1.704662    0.122840
    116          6           0      -10.200776    3.023584    3.305007
    117          6           0       -9.824915    3.066830   -0.241669
    118          8           0       -8.765328    3.716030   -0.214627
    119          6           0      -10.440644    2.685120   -1.611852
    120          6           0      -10.767560    3.997030   -2.331111
    121          8           0      -10.254885    4.570543   -3.255165
    122          8           0      -12.009018    4.439697   -1.861702
    123          6           0      -12.601318    5.653409   -2.505081
    124          1           0      -15.306267   -1.487351   -3.764097
    125          1           0      -17.061345   -2.576927    2.360894
    126          1           0      -12.385859    1.293099    4.336776
    127          1           0      -12.287718    2.092414   -4.008748
    128          1           0      -13.282175   -0.484092   -4.841657
    129          1           0      -14.252279    2.258894   -4.910486
    130          1           0      -15.404070    1.228560   -4.140462
    131          1           0      -14.835372    0.797712   -5.839229
    132          1           0      -10.319786    1.222625   -4.787480
    133          1           0      -11.224794   -0.150416   -5.274102
    134          1           0      -10.574617   -0.974479   -2.804531
    135          1           0       -9.056620   -0.053158   -3.237724
    136          1           0      -18.203028   -3.980174   -2.836015
    137          1           0      -16.445665   -3.951997   -3.415589
    138          1           0      -17.414367   -2.561805   -3.655991
    139          1           0      -19.007884   -3.231949    2.314271
    140          1           0      -17.897129   -4.508579    2.177556
    141          1           0      -19.612665   -4.729486    1.755417
    142          1           0      -15.601034   -2.375602    4.636150
    143          1           0      -14.287043    0.112953    5.461338
    144          1           0      -17.536658   -0.371802    4.286252
    145          1           0      -16.540124   -0.020620    5.742707
    146          1           0      -17.385617   -1.516970    5.543306
    147          1           0      -12.193358   -1.555816    4.679972
    148          1           0      -13.521085   -2.673971    5.015208
    149          1           0      -11.697411   -1.780441    6.934991
    150          1           0      -13.332669   -2.307749    7.218585
    151          1           0      -12.970922   -0.513599    6.936707
    152          1           0      -10.328236    2.533172    4.269518
    153          1           0      -10.599275    4.035744    3.370038
    154          1           0       -9.159025    3.116141    2.998938
    155          1           0       -9.708955    2.123715   -2.191907
    156          1           0      -11.928972    6.413731   -2.901921
    157          1           0      -13.125383    6.137498   -1.681212
    158          1           0      -13.369801    5.516306   -3.266101
 ---------------------------------------------------------------------

 SCF Done:  E(RwB97XD) =  -4070.59506540     A.U. after   19 cycles

 Excitation energies and oscillator strengths:

 Excited State   1:      Singlet-A      1.6387 eV  756.58 nm  f=0.4100  <S**2>=0.000
     310 -> 316       -0.18458
     312 -> 314        0.68349
     310 <- 316       -0.11767
 This state for optimization and/or second-order correction.
 Total Energy, E(TD-HF/TD-DFT) =  -4070.53484300
 Copying the excited state density for this state as the 1-particle RhoCI density.

 Excited State   2:      Singlet-A      1.7159 eV  722.54 nm  f=0.3976  <S**2>=0.000
     309 -> 315       -0.19067
     311 -> 313        0.68123
     309 <- 315       -0.11535

 Excited State   3:      Singlet-A      2.1628 eV  573.26 nm  f=0.0918  <S**2>=0.000
     310 -> 314        0.63066
     312 -> 316        0.30289

 Excited State   4:      Singlet-A      2.2310 eV  555.74 nm  f=0.0952  <S**2>=0.000
     309 -> 313        0.63456
     311 -> 315        0.29974

 Excited State   5:      Singlet-A      3.2558 eV  380.81 nm  f=0.0002  <S**2>=0.000
     306 -> 314       -0.22969
     308 -> 314        0.64079

 The electronic state is 1-A.
 Alpha  occ. eigenvalues --  -46.96493 -46.94160 -19.29957 -19.29568 -19.25483
 Alpha  occ. eigenvalues --  -19.24694 -19.24044 -19.23658 -19.23651 -19.23134
 Alpha  occ. eigenvalues --  -14.47275 -14.46996 -14.46550 -14.46453 -14.45145
 Alpha  occ. eigenvalues --  -14.44795 -14.43626 -14.42963 -10.43871 -10.41732
 Alpha  occ. eigenvalues --  -10.39865 -10.39624 -10.39489 -10.38614 -10.35791
 Alpha  occ. eigenvalues --  -10.35729 -10.35657 -10.35606 -10.35219 -10.35201
 Alpha  occ. eigenvalues --  -10.35070 -10.35061 -10.34840 -10.34768 -10.34505
 Alpha  occ. eigenvalues --  -10.34381 -10.34256 -10.34152 -10.33903 -10.33803
 Alpha  occ. eigenvalues --  -10.33682 -10.33510 -10.33482 -10.33154 -10.32965
 Alpha  occ. eigenvalues --  -10.32941 -10.32924 -10.32393 -10.32150 -10.32142
 Alpha  occ. eigenvalues --  -10.32124 -10.32044 -10.32043 -10.32011 -10.31754
 Alpha  occ. eigenvalues --  -10.31624 -10.31567 -10.31503 -10.31502 -10.31410
 Alpha  occ. eigenvalues --  -10.31394 -10.31253 -10.31203 -10.31200 -10.31181
 Alpha  occ. eigenvalues --  -10.31135 -10.31071 -10.31053 -10.30955 -10.30893
 Alpha  occ. eigenvalues --  -10.30890 -10.30848 -10.30820 -10.30531 -10.30486
 Alpha  occ. eigenvalues --  -10.30421 -10.30393 -10.30082 -10.30073 -10.29950
 Alpha  occ. eigenvalues --  -10.29672 -10.29509 -10.29355 -10.29330 -10.29278
 Alpha  occ. eigenvalues --  -10.29246  -3.22421  -3.20237  -1.95997  -1.95542
 Alpha  occ. eigenvalues --   -1.95390  -1.93849  -1.93363  -1.93214  -1.18344
 Alpha  occ. eigenvalues --   -1.17948  -1.13136  -1.11812  -1.11723  -1.11677
 Alpha  occ. eigenvalues --   -1.09616  -1.08857  -1.08815  -1.07170  -1.06924
 Alpha  occ. eigenvalues --   -1.06140  -1.06068  -1.05409  -1.05278  -1.04354
 Alpha  occ. eigenvalues --   -0.95701  -0.94336  -0.91806  -0.90995  -0.90805
 Alpha  occ. eigenvalues --   -0.90568  -0.90525  -0.90281  -0.90215  -0.89434
 Alpha  occ. eigenvalues --   -0.88983  -0.88855  -0.88588  -0.87399  -0.86917
 Alpha  occ. eigenvalues --   -0.86473  -0.85907  -0.85546  -0.84868  -0.84498
 Alpha  occ. eigenvalues --   -0.84305  -0.83792  -0.83280  -0.82858  -0.82646
 Alpha  occ. eigenvalues --   -0.82551  -0.80701  -0.80553  -0.79721  -0.79660
 Alpha  occ. eigenvalues --   -0.79125  -0.79031  -0.78699  -0.77772  -0.77388
 Alpha  occ. eigenvalues --   -0.77034  -0.75418  -0.74710  -0.74460  -0.73733
 Alpha  occ. eigenvalues --   -0.71685  -0.71292  -0.71233  -0.70785  -0.70669
 Alpha  occ. eigenvalues --   -0.70167  -0.69586  -0.68871  -0.68856  -0.67730
 Alpha  occ. eigenvalues --   -0.67588  -0.67479  -0.67315  -0.66961  -0.66543
 Alpha  occ. eigenvalues --   -0.66143  -0.65271  -0.63359  -0.62672  -0.62468
 Alpha  occ. eigenvalues --   -0.62291  -0.61638  -0.61529  -0.60901  -0.60754
 Alpha  occ. eigenvalues --   -0.60617  -0.60172  -0.59906  -0.59344  -0.59169
 Alpha  occ. eigenvalues --   -0.58428  -0.58271  -0.57948  -0.57738  -0.57688
 Alpha  occ. eigenvalues --   -0.57224  -0.57121  -0.56658  -0.56596  -0.56424
 Alpha  occ. eigenvalues --   -0.55992  -0.55704  -0.55672  -0.55041  -0.54976
 Alpha  occ. eigenvalues --   -0.54842  -0.54797  -0.54478  -0.54180  -0.54048
 Alpha  occ. eigenvalues --   -0.53966  -0.53755  -0.53614  -0.53300  -0.53183
 Alpha  occ. eigenvalues --   -0.53102  -0.52848  -0.52710  -0.52602  -0.52391
 Alpha  occ. eigenvalues --   -0.52198  -0.52042  -0.51830  -0.51787  -0.51541
 Alpha  occ. eigenvalues --   -0.51318  -0.51183  -0.51073  -0.50984  -0.50885
 Alpha  occ. eigenvalues --   -0.50839  -0.50549  -0.50530  -0.50484  -0.50320
 Alpha  occ. eigenvalues --   -0.50114  -0.49876  -0.49606  -0.49595  -0.49450
 Alpha  occ. eigenvalues --   -0.49318  -0.49287  -0.48982  -0.48956  -0.48716
 Alpha  occ. eigenvalues --   -0.48659  -0.48447  -0.48440  -0.48310  -0.48133
 Alpha  occ. eigenvalues --   -0.48109  -0.47960  -0.47893  -0.47576  -0.47375
 Alpha  occ. eigenvalues --   -0.47016  -0.46956  -0.46869  -0.46674  -0.46264
 Alpha  occ. eigenvalues --   -0.46199  -0.46127  -0.45996  -0.45867  -0.45602
 Alpha  occ. eigenvalues --   -0.45590  -0.45338  -0.45216  -0.45166  -0.44730
 Alpha  occ. eigenvalues --   -0.44658  -0.44580  -0.44342  -0.44117  -0.44085
 Alpha  occ. eigenvalues --   -0.43917  -0.43673  -0.43446  -0.43400  -0.43183
 Alpha  occ. eigenvalues --   -0.43148  -0.42936  -0.42769  -0.42673  -0.42217
 Alpha  occ. eigenvalues --   -0.42053  -0.41954  -0.41376  -0.41225  -0.41129
 Alpha  occ. eigenvalues --   -0.40848  -0.40641  -0.40213  -0.39806  -0.39677
 Alpha  occ. eigenvalues --   -0.39154  -0.38981  -0.38830  -0.38805  -0.38373
 Alpha  occ. eigenvalues --   -0.38220  -0.38001  -0.37151  -0.36340  -0.36158
 Alpha  occ. eigenvalues --   -0.35979  -0.35945  -0.34909  -0.34176  -0.33577
 Alpha  occ. eigenvalues --   -0.33354  -0.33198  -0.33117  -0.32942  -0.32165
 Alpha  occ. eigenvalues --   -0.31841  -0.31501  -0.31157  -0.26502  -0.26063
 Alpha  occ. eigenvalues --   -0.23425  -0.22868
 Alpha virt. eigenvalues --   -0.07345  -0.07098  -0.00208   0.00097   0.01330
 Alpha virt. eigenvalues --    0.02740   0.03772   0.04443   0.04890   0.06540
 Alpha virt. eigenvalues --    0.06715   0.07090   0.07418   0.07886   0.07997

 Mulliken charges:
               1
     1  Mg   0.969807
     2  C    0.027049
     3  C   -0.088425
     4  C   -0.071907
     5  C   -0.105656
     6  N   -0.331545
     7  C   -0.006584
     8  C   -0.044399
     9  C   -0.151634
    10  C    0.059582
    11  C    0.050715
    12  C    0.000362
    13  C   -0.115680
    14  H    0.029292
    15  N   -0.488174
    16  C    0.172464
    17  C   -0.166510
    18  C   -0.057562
    19  C    0.125925
    20  C    0.053061
    21  C    0.071574
    22  O   -0.233841
    23  C   -0.004446
    24  N   -0.422963
    25  C    0.060757
    26  C   -0.086752
    27  C   -0.053516
    28  C    0.048529
    29  C    0.043010
    30  C   -0.002728
    31  C   -0.069014
    32  N   -0.373816
    33  C    0.159948
    34  C   -0.166860
    35  C   -0.076236
    36  C    0.113010
    37  C    0.102597
    38  C    0.145403
    39  O   -0.193255
    40  C   -0.138588
    41  C    0.241333
    42  O   -0.254404
    43  O   -0.372496
    44  C    0.133497
    45  H   -0.015957
    46  H    0.028657
    47  H    0.001595
    48  H    0.035340
    49  H    0.022029
    50  H    0.039062
    51  H    0.043957
    52  H    0.038595
    53  H    0.034436
    54  H    0.060829
    55  H    0.043922
    56  H    0.059171
    57  H    0.039964
    58  H    0.049999
    59  H    0.047307
    60  H    0.056702
    61  H    0.050063
    62  H    0.049768
    63  H    0.038370
    64  H    0.031728
    65  H    0.040502
    66  H    0.046741
    67  H    0.027851
    68  H    0.036121
    69  H    0.035475
    70  H    0.039359
    71  H    0.045690
    72  H    0.018478
    73  H    0.034723
    74  H    0.072668
    75  H    0.044272
    76  H    0.067421
    77  H    0.062658
    78  H    0.081940
    79  H    0.059636
    80  Mg   0.957880
    81  C   -0.036583
    82  C   -0.091750
    83  C   -0.036387
    84  C   -0.103649
    85  N   -0.341105
    86  C   -0.037912
    87  C    0.005254
    88  C   -0.158247
    89  C    0.057913
    90  C    0.033606
    91  C    0.002433
    92  C   -0.149955
    93  H    0.026557
    94  N   -0.476222
    95  C    0.164660
    96  C   -0.173317
    97  C   -0.081318
    98  C    0.167504
    99  C    0.085943
   100  C    0.055603
   101  O   -0.240269
   102  C   -0.027197
   103  N   -0.273909
   104  C    0.045776
   105  C   -0.055744
   106  C   -0.126040
   107  C    0.077411
   108  C    0.014254
   109  C   -0.041897
   110  C   -0.039881
   111  N   -0.402085
   112  C    0.126872
   113  C   -0.186194
   114  C   -0.008909
   115  C    0.160859
   116  C    0.075237
   117  C    0.093684
   118  O   -0.218399
   119  C   -0.083104
   120  C    0.279572
   121  O   -0.209665
   122  O   -0.397985
   123  C    0.134856
   124  H   -0.010861
   125  H   -0.053662
   126  H    0.002740
   127  H    0.040931
   128  H    0.037002
   129  H    0.035442
   130  H    0.038211
   131  H    0.054882
   132  H    0.045226
   133  H    0.044645
   134  H    0.073086
   135  H    0.074187
   136  H    0.077787
   137  H    0.041006
   138  H    0.036973
   139  H    0.056616
   140  H    0.057181
   141  H    0.052536
   142  H    0.035572
   143  H    0.023260
   144  H    0.033277
   145  H    0.036092
   146  H    0.027213
   147  H    0.043217
   148  H    0.025259
   149  H    0.043739
   150  H    0.037906
   151  H    0.028182
   152  H    0.042885
   153  H    0.055028
   154  H    0.069572
   155  H    0.068625
   156  H    0.065878
   157  H    0.044945
   158  H    0.047272
 Sum of Mulliken charges =  -0.00000

 Dipole moment (field-independent basis, Debye):
    X=             -6.4569    Y=             -1.5387    Z=             -0.3045  Tot=              6.6447
 Quadrupole moment (field-independent basis, Debye-Ang):
   XX=           -540.6002   YY=           -534.3854   ZZ=           -482.8614
   XY=           -107.5121   XZ=            -86.3023   YZ=             -7.6074

 Normal termination of Gaussian 16 at Mon Sep 20 03:51:06 2021.
