 Gaussian 16, Revision A.03,
 Gaussian 16:  ES64L-G16RevA.03 25-Dec-2016

 --------------------------------
 #p wB97XD/Def2SVP td=(nstates=5)
 --------------------------------

 --------------------------------
 TDDFT excited states in gaussian
 --------------------------------
 Symbolic Z-matrix:
 Charge =  0 Multiplicity = 1

                         Standard orientation:
 ---------------------------------------------------------------------
 Center     Atomic      Atomic             Coordinates (Angstroms)
 Number     Number       Type             X           Y           Z
 ---------------------------------------------------------------------
      1         12           0      -22.302227   -0.016651    0.452770
      2          6           0      -19.396405    1.535939   -0.649409
      3          6           0      -23.659009    0.751884   -2.769039
      4          6           0      -24.924067   -1.868529    1.161139
      5          6           0      -20.507084   -1.251111    3.211627
      6          7           0      -21.547921    0.914127   -1.504265
      7          6           0      -20.335123    1.553091   -1.633199
      8          6           0      -20.191633    2.131114   -3.043720
      9          6           0      -21.659734    2.093227   -3.551137
     10          6           0      -22.347443    1.164933   -2.584890
     11          6           0      -22.456629    3.452510   -3.656395
     12          6           0      -19.217760    1.333387   -3.926451
     13          6           0      -18.905234    1.935638   -5.242798
     14          1           0      -17.567756    1.479982   -5.941817
     15          7           0      -24.077845   -0.521786   -0.654074
     16          6           0      -24.454676   -0.087155   -1.934384
     17          6           0      -25.742853   -0.647942   -2.233077
     18          6           0      -26.074206   -1.536271   -1.144412
     19          6           0      -24.997586   -1.309818   -0.119235
     20          6           0      -26.470601   -0.419514   -3.586629
     21          6           0      -27.340402   -2.398633   -1.135959
     22          8           0      -28.211987   -2.272892   -1.980080
     23          6           0      -27.514266   -3.408113   -0.066282
     24          7           0      -22.722827   -1.192749    2.098292
     25          6           0      -23.903242   -1.817859    2.164104
     26          6           0      -23.925348   -2.786342    3.415226
     27          6           0      -22.500380   -2.665703    4.080142
     28          6           0      -21.809491   -1.649225    3.016476
     29          6           0      -25.108129   -2.647002    4.409342
     30          6           0      -21.799890   -4.041226    4.096005
     31          6           0      -20.810977   -4.257329    5.247979
     32          7           0      -20.346277    0.074612    1.211368
     33          6           0      -19.794087   -0.357298    2.384683
     34          6           0      -18.444781    0.209163    2.498563
     35          6           0      -18.303210    1.009898    1.397128
     36          6           0      -19.422218    0.862643    0.609229
     37          6           0      -17.493207    0.041504    3.687576
     38          6           0      -17.389207    1.871879    0.709945
     39          8           0      -16.288275    2.275306    0.993803
     40          6           0      -18.069436    2.262131   -0.644689
     41          6           0      -18.302487    3.732378   -0.622181
     42          8           0      -18.815618    4.372651    0.253145
     43          8           0      -17.947436    4.259573   -1.875948
     44          6           0      -18.188122    5.663832   -2.049352
     45          1           0      -24.014961    1.114630   -3.735083
     46          1           0      -25.729549   -2.501228    1.540960
     47          1           0      -19.941924   -1.558510    4.094126
     48          1           0      -19.911565    3.174936   -2.908583
     49          1           0      -21.817889    1.612192   -4.515747
     50          1           0      -22.852903    3.445179   -4.671561
     51          1           0      -22.008234    4.341902   -3.212836
     52          1           0      -23.341276    3.336222   -3.030485
     53          1           0      -19.567008    0.350609   -4.244272
     54          1           0      -18.289258    1.155019   -3.383965
     55          1           0      -18.889345    3.015428   -5.094805
     56          1           0      -19.739456    1.752700   -5.919854
     57          1           0      -26.272335   -1.404302   -4.010895
     58          1           0      -25.983305    0.264277   -4.281961
     59          1           0      -27.529504   -0.173070   -3.666816
     60          1           0      -26.572542   -3.956816   -0.053313
     61          1           0      -28.296879   -4.102123   -0.373249
     62          1           0      -27.696916   -2.804003    0.822760
     63          1           0      -24.045469   -3.788039    3.001616
     64          1           0      -22.487603   -2.214477    5.071768
     65          1           0      -25.772785   -3.498881    4.262217
     66          1           0      -25.565961   -1.668572    4.267686
     67          1           0      -24.746353   -2.769080    5.430260
     68          1           0      -21.293949   -4.105577    3.133021
     69          1           0      -22.484006   -4.889322    4.061063
     70          1           0      -21.201193   -5.150367    5.737359
     71          1           0      -20.692632   -3.400702    5.911638
     72          1           0      -19.827750   -4.520067    4.857489
     73          1           0      -16.451246   -0.168302    3.448194
     74          1           0      -17.967443   -0.771562    4.237745
     75          1           0      -17.676782    0.895923    4.339203
     76          1           0      -17.366958    1.982436   -1.429891
     77          1           0      -17.208847    6.142159   -2.069584
     78          1           0      -18.820331    6.191472   -1.334799
     79          1           0      -18.691433    5.788773   -3.007702
     80         12           0       21.475295   -0.691208   -0.602081
     81          6           0       22.695545    2.421867    0.537933
     82          6           0       18.507583   -0.023919    0.671441
     83          6           0       20.728920   -4.007330   -0.947176
     84          6           0       25.022257   -1.661195   -0.993715
     85          7           0       20.745962    1.016064    0.535321
     86          6           0       21.318367    2.230641    0.663537
     87          6           0       20.252434    3.245378    1.121433
     88          6           0       18.959424    2.494889    1.136723
     89          6           0       19.402197    1.039249    0.798015
     90          6           0       18.116353    2.744196    2.453673
     91          6           0       20.166351    4.622557    0.382292
     92          6           0       18.787332    5.369877    0.129646
     93          1           0       18.712431    6.879625    0.400694
     94          7           0       19.748296   -1.778913   -0.413862
     95          6           0       18.588603   -1.295098    0.148363
     96          6           0       17.597610   -2.329645    0.060389
     97          6           0       18.208954   -3.566970   -0.382066
     98          6           0       19.622730   -3.164197   -0.549781
     99          6           0       16.241577   -2.035834    0.560984
    100          6           0       17.585390   -4.950820   -0.689580
    101          8           0       18.278150   -5.861334   -1.005091
    102          6           0       16.105995   -5.096335   -0.839150
    103          7           0       22.748098   -2.568500   -0.871244
    104          6           0       22.100429   -3.732027   -1.104794
    105          6           0       23.086379   -4.893561   -1.450079
    106          6           0       24.460390   -4.158682   -1.509652
    107          6           0       24.102905   -2.710912   -1.091356
    108          6           0       23.098512   -6.047318   -0.482849
    109          6           0       25.247682   -4.170296   -2.866497
    110          6           0       24.820044   -3.256169   -3.964485
    111          7           0       23.499180    0.098919   -0.343940
    112          6           0       24.750787   -0.387405   -0.591830
    113          6           0       25.717827    0.666914   -0.406613
    114          6           0       24.996051    1.804856    0.040407
    115          6           0       23.651483    1.386284    0.104867
    116          6           0       27.201142    0.564144   -0.464841
    117          6           0       25.085177    3.165459    0.487864
    118          8           0       26.014849    3.956685    0.597135
    119          6           0       23.594328    3.646829    0.784534
    120          6           0       23.445399    4.316308    2.140312
    121          8           0       23.602900    3.748623    3.190296
    122          8           0       23.064160    5.636041    1.957475
    123          6           0       22.929240    6.377533    3.211805
    124          1           0       17.454708    0.182638    0.876423
    125          1           0       20.400320   -5.038815   -1.088517
    126          1           0       26.062476   -1.912613   -1.210504
    127          1           0       20.659324    3.460691    2.109463
    128          1           0       18.330155    2.913614    0.350881
    129          1           0       18.587040    3.533056    3.040177
    130          1           0       17.970245    1.778727    2.937973
    131          1           0       17.148330    3.190274    2.224784
    132          1           0       20.607198    4.472319   -0.603500
    133          1           0       20.807702    5.372720    0.845662
    134          1           0       18.076523    4.842474    0.766118
    135          1           0       18.477012    5.200087   -0.901430
    136          1           0       15.893881   -2.961164    1.019749
    137          1           0       15.616176   -1.842445   -0.309748
    138          1           0       16.047710   -1.223711    1.261877
    139          1           0       15.798209   -5.362292    0.171260
    140          1           0       15.897793   -5.805436   -1.640937
    141          1           0       15.568448   -4.170473   -1.045089
    142          1           0       22.941198   -5.260665   -2.466279
    143          1           0       25.226474   -4.387822   -0.769565
    144          1           0       22.265569   -5.988357    0.218947
    145          1           0       23.996913   -6.058480    0.134850
    146          1           0       23.017056   -6.943278   -1.097752
    147          1           0       25.242700   -5.177394   -3.283566
    148          1           0       26.306963   -4.062200   -2.632293
    149          1           0       23.773533   -2.982602   -3.828664
    150          1           0       24.821270   -3.584591   -5.004070
    151          1           0       25.525332   -2.425373   -3.926312
    152          1           0       27.639630   -0.140621    0.241066
    153          1           0       27.569483    1.484612   -0.011203
    154          1           0       27.556547    0.398072   -1.482177
    155          1           0       23.348573    4.348271   -0.013018
    156          1           0       21.851423    6.437691    3.064047
    157          1           0       23.455561    7.309660    3.007679
    158          1           0       23.273165    5.817544    4.081687
 ---------------------------------------------------------------------

 SCF Done:  E(RwB97XD) =  -4070.59972544     A.U. after   19 cycles

 Excitation energies and oscillator strengths:

 Excited State   1:      Singlet-A      1.6417 eV  755.20 nm  f=0.3908  <S**2>=0.000
     310 -> 316        0.19301
     312 -> 314        0.68164
     310 <- 316        0.12002
 This state for optimization and/or second-order correction.
 Total Energy, E(TD-HF/TD-DFT) =  -4070.53939248
 Copying the excited state density for this state as the 1-particle RhoCI density.

 Excited State   2:      Singlet-A      1.7224 eV  719.84 nm  f=0.3908  <S**2>=0.000
     309 -> 315       -0.17624
     311 -> 313        0.68543
     309 <- 315       -0.11114

 Excited State   3:      Singlet-A      2.1319 eV  581.56 nm  f=0.1060  <S**2>=0.000
     310 -> 314        0.64022
     312 -> 316       -0.28533

 Excited State   4:      Singlet-A      2.2425 eV  552.88 nm  f=0.1146  <S**2>=0.000
     309 -> 313        0.63522
     311 -> 315        0.29260

 Excited State   5:      Singlet-A      3.3485 eV  370.27 nm  f=0.0010  <S**2>=0.000
     307 -> 314       -0.21759
     308 -> 314        0.65036

 The electronic state is 1-A.
 Alpha  occ. eigenvalues --  -46.96307 -46.96043 -19.30216 -19.29958 -19.25445
 Alpha  occ. eigenvalues --  -19.24931 -19.24577 -19.23793 -19.23656 -19.23569
 Alpha  occ. eigenvalues --  -14.47269 -14.47010 -14.46770 -14.46355 -14.44904
 Alpha  occ. eigenvalues --  -14.44087 -14.43690 -14.43367 -10.43376 -10.42940
 Alpha  occ. eigenvalues --  -10.39666 -10.38895 -10.38790 -10.38157 -10.36490
 Alpha  occ. eigenvalues --  -10.35756 -10.35654 -10.35376 -10.35234 -10.35119
 Alpha  occ. eigenvalues --  -10.35095 -10.34995 -10.34969 -10.34946 -10.34723
 Alpha  occ. eigenvalues --  -10.34586 -10.34328 -10.33831 -10.33582 -10.33460
 Alpha  occ. eigenvalues --  -10.33200 -10.33006 -10.32807 -10.32594 -10.32533
 Alpha  occ. eigenvalues --  -10.32368 -10.32311 -10.32311 -10.32296 -10.32285
 Alpha  occ. eigenvalues --  -10.32276 -10.32056 -10.32054 -10.32046 -10.31985
 Alpha  occ. eigenvalues --  -10.31942 -10.31854 -10.31809 -10.31672 -10.31651
 Alpha  occ. eigenvalues --  -10.31647 -10.31473 -10.31380 -10.31296 -10.30941
 Alpha  occ. eigenvalues --  -10.30929 -10.30749 -10.30734 -10.30729 -10.30531
 Alpha  occ. eigenvalues --  -10.30433 -10.30424 -10.30409 -10.30392 -10.30370
 Alpha  occ. eigenvalues --  -10.30234 -10.30183 -10.30029 -10.30016 -10.29914
 Alpha  occ. eigenvalues --  -10.29468 -10.29244 -10.28926 -10.28890 -10.28753
 Alpha  occ. eigenvalues --  -10.27968  -3.22101  -3.21922  -1.95654  -1.95513
 Alpha  occ. eigenvalues --   -1.95225  -1.95050  -1.95046  -1.94875  -1.18804
 Alpha  occ. eigenvalues --   -1.18432  -1.15104  -1.12569  -1.12414  -1.11418
 Alpha  occ. eigenvalues --   -1.11062  -1.10718  -1.06635  -1.06192  -1.05876
 Alpha  occ. eigenvalues --   -1.05773  -1.05112  -1.04905  -1.04492  -1.03850
 Alpha  occ. eigenvalues --   -0.95259  -0.93549  -0.91326  -0.91220  -0.91134
 Alpha  occ. eigenvalues --   -0.90746  -0.90716  -0.90166  -0.90056  -0.89281
 Alpha  occ. eigenvalues --   -0.89091  -0.88460  -0.88010  -0.87939  -0.87188
 Alpha  occ. eigenvalues --   -0.85955  -0.85857  -0.85570  -0.85125  -0.84561
 Alpha  occ. eigenvalues --   -0.84427  -0.83879  -0.83280  -0.82864  -0.82757
 Alpha  occ. eigenvalues --   -0.82341  -0.80240  -0.79752  -0.79304  -0.79106
 Alpha  occ. eigenvalues --   -0.79035  -0.78989  -0.78169  -0.77780  -0.77531
 Alpha  occ. eigenvalues --   -0.76575  -0.75249  -0.74295  -0.74074  -0.73406
 Alpha  occ. eigenvalues --   -0.71702  -0.71350  -0.71167  -0.71021  -0.70185
 Alpha  occ. eigenvalues --   -0.69794  -0.68910  -0.68799  -0.68028  -0.67595
 Alpha  occ. eigenvalues --   -0.67005  -0.66904  -0.66655  -0.66207  -0.66063
 Alpha  occ. eigenvalues --   -0.65980  -0.64710  -0.63662  -0.62345  -0.62020
 Alpha  occ. eigenvalues --   -0.61914  -0.61483  -0.61333  -0.60829  -0.60778
 Alpha  occ. eigenvalues --   -0.60487  -0.60293  -0.59953  -0.59604  -0.59363
 Alpha  occ. eigenvalues --   -0.58535  -0.58023  -0.57871  -0.57822  -0.57489
 Alpha  occ. eigenvalues --   -0.57307  -0.56968  -0.56871  -0.56503  -0.56357
 Alpha  occ. eigenvalues --   -0.55986  -0.55974  -0.55648  -0.55561  -0.55314
 Alpha  occ. eigenvalues --   -0.55270  -0.55142  -0.54687  -0.54615  -0.54270
 Alpha  occ. eigenvalues --   -0.53888  -0.53695  -0.53651  -0.53650  -0.53116
 Alpha  occ. eigenvalues --   -0.52851  -0.52845  -0.52736  -0.52689  -0.52492
 Alpha  occ. eigenvalues --   -0.52338  -0.52240  -0.52209  -0.51927  -0.51836
 Alpha  occ. eigenvalues --   -0.51404  -0.51282  -0.51084  -0.51006  -0.50911
 Alpha  occ. eigenvalues --   -0.50865  -0.50642  -0.50496  -0.50283  -0.50269
 Alpha  occ. eigenvalues --   -0.50102  -0.49621  -0.49519  -0.49369  -0.49151
 Alpha  occ. eigenvalues --   -0.49122  -0.49048  -0.49026  -0.48702  -0.48453
 Alpha  occ. eigenvalues --   -0.48374  -0.48121  -0.47942  -0.47820  -0.47729
 Alpha  occ. eigenvalues --   -0.47438  -0.47346  -0.47337  -0.47063  -0.46678
 Alpha  occ. eigenvalues --   -0.46532  -0.46485  -0.46224  -0.46120  -0.45981
 Alpha  occ. eigenvalues --   -0.45904  -0.45682  -0.45620  -0.45547  -0.45330
 Alpha  occ. eigenvalues --   -0.45198  -0.45197  -0.44954  -0.44919  -0.44882
 Alpha  occ. eigenvalues --   -0.44677  -0.44495  -0.44374  -0.44307  -0.44277
 Alpha  occ. eigenvalues --   -0.44126  -0.43941  -0.43861  -0.43744  -0.43448
 Alpha  occ. eigenvalues --   -0.43392  -0.42782  -0.42529  -0.42457  -0.42193
 Alpha  occ. eigenvalues --   -0.42000  -0.41836  -0.41637  -0.41076  -0.40822
 Alpha  occ. eigenvalues --   -0.40770  -0.40160  -0.40016  -0.39821  -0.39702
 Alpha  occ. eigenvalues --   -0.39312  -0.38975  -0.38935  -0.38571  -0.38063
 Alpha  occ. eigenvalues --   -0.37893  -0.37642  -0.37239  -0.36573  -0.36311
 Alpha  occ. eigenvalues --   -0.35960  -0.35538  -0.35348  -0.34029  -0.33730
 Alpha  occ. eigenvalues --   -0.33093  -0.33008  -0.32650  -0.32607  -0.32299
 Alpha  occ. eigenvalues --   -0.32163  -0.31992  -0.31484  -0.26649  -0.25714
 Alpha  occ. eigenvalues --   -0.23523  -0.22827
 Alpha virt. eigenvalues --   -0.07412  -0.06977  -0.00063   0.00316   0.02493
 Alpha virt. eigenvalues --    0.02949   0.04272   0.04660   0.04788   0.05170
 Alpha virt. eigenvalues --    0.06912   0.07035   0.07542   0.07820   0.08492

 Mulliken charges:
               1
     1  Mg   0.953710
     2  C   -0.018565
     3  C   -0.078025
     4  C   -0.102432
     5  C   -0.070898
     6  N   -0.331650
     7  C   -0.062310
     8  C    0.031494
     9  C   -0.153784
    10  C    0.038791
    11  C    0.036050
    12  C    0.038156
    13  C   -0.109437
    14  H    0.041332
    15  N   -0.434468
    16  C    0.181730
    17  C   -0.135636
    18  C   -0.121017
    19  C    0.236356
    20  C    0.062940
    21  C    0.024850
    22  O   -0.229552
    23  C    0.002145
    24  N   -0.396573
    25  C    0.068723
    26  C   -0.119407
    27  C   -0.096973
    28  C    0.094354
    29  C    0.022077
    30  C   -0.030765
    31  C   -0.043164
    32  N   -0.424993
    33  C    0.086071
    34  C   -0.233597
    35  C    0.018380
    36  C    0.142572
    37  C    0.107325
    38  C    0.094467
    39  O   -0.186639
    40  C   -0.073751
    41  C    0.260035
    42  O   -0.213102
    43  O   -0.378435
    44  C    0.124736
    45  H   -0.006377
    46  H   -0.019656
    47  H   -0.006040
    48  H    0.020783
    49  H    0.031380
    50  H    0.043452
    51  H    0.049291
    52  H    0.029145
    53  H    0.029836
    54  H    0.035433
    55  H    0.036430
    56  H    0.039814
    57  H    0.058611
    58  H    0.019608
    59  H    0.074562
    60  H    0.052370
    61  H    0.058049
    62  H    0.078973
    63  H    0.040409
    64  H    0.042208
    65  H    0.035933
    66  H    0.050050
    67  H    0.035402
    68  H    0.033095
    69  H    0.030024
    70  H    0.038297
    71  H    0.042317
    72  H    0.038935
    73  H    0.070555
    74  H    0.005436
    75  H    0.058177
    76  H    0.072812
    77  H    0.057087
    78  H    0.062255
    79  H    0.040219
    80  Mg   0.948127
    81  C   -0.025627
    82  C   -0.065241
    83  C   -0.063914
    84  C   -0.102286
    85  N   -0.370800
    86  C   -0.015814
    87  C   -0.028339
    88  C   -0.134520
    89  C    0.098482
    90  C    0.020610
    91  C   -0.030111
    92  C   -0.123661
    93  H    0.053559
    94  N   -0.508308
    95  C    0.144463
    96  C   -0.142154
    97  C   -0.082453
    98  C    0.112957
    99  C    0.033196
   100  C    0.056486
   101  O   -0.199141
   102  C   -0.017923
   103  N   -0.306641
   104  C    0.065528
   105  C   -0.068799
   106  C   -0.047957
   107  C    0.007203
   108  C    0.036425
   109  C   -0.047607
   110  C   -0.030999
   111  N   -0.393363
   112  C    0.166199
   113  C   -0.184936
   114  C   -0.031375
   115  C    0.106013
   116  C    0.061929
   117  C    0.130820
   118  O   -0.210255
   119  C   -0.060393
   120  C    0.252624
   121  O   -0.228664
   122  O   -0.379402
   123  C    0.117912
   124  H   -0.017281
   125  H    0.026200
   126  H   -0.005210
   127  H    0.048806
   128  H    0.042217
   129  H    0.042699
   130  H    0.050110
   131  H    0.032181
   132  H    0.030198
   133  H    0.046375
   134  H    0.034895
   135  H    0.055855
   136  H    0.037148
   137  H    0.055403
   138  H    0.058302
   139  H    0.064553
   140  H    0.073666
   141  H    0.037404
   142  H    0.039924
   143  H    0.035208
   144  H    0.044181
   145  H    0.034833
   146  H    0.041305
   147  H    0.023698
   148  H    0.022402
   149  H    0.035756
   150  H    0.033317
   151  H    0.037179
   152  H    0.045430
   153  H    0.051355
   154  H    0.052614
   155  H    0.070864
   156  H    0.051513
   157  H    0.068773
   158  H    0.086278
 Sum of Mulliken charges =  -0.00000

 Dipole moment (field-independent basis, Debye):
    X=             -7.5476    Y=             -2.1897    Z=             -1.9253  Tot=              8.0912
 Quadrupole moment (field-independent basis, Debye-Ang):
   XX=           -646.6663   YY=           -499.8547   ZZ=           -488.0175
   XY=            -15.8424   XZ=            -77.5909   YZ=            -22.1259

 Normal termination of Gaussian 16 at Mon Sep 20 16:32:19 2021.
