 Gaussian 16, Revision A.03,
 Gaussian 16:  ES64L-G16RevA.03 25-Dec-2016

 --------------------------------
 #p wB97XD/Def2SVP td=(nstates=5)
 --------------------------------

 --------------------------------
 TDDFT excited states in gaussian
 --------------------------------
 Symbolic Z-matrix:
 Charge =  0 Multiplicity = 1

                         Standard orientation:
 ---------------------------------------------------------------------
 Center     Atomic      Atomic             Coordinates (Angstroms)
 Number     Number       Type             X           Y           Z
 ---------------------------------------------------------------------
      1         12           0      -13.809716    0.999229   -0.273760
      2          6           0      -13.923266   -2.581736    0.081204
      3          6           0      -10.456613    0.672528   -0.824947
      4          6           0      -13.662154    4.350200   -0.299947
      5          6           0      -17.041880    1.107743    0.771468
      6          7           0      -12.327239   -0.855809   -0.410691
      7          6           0      -12.676351   -2.167210   -0.266539
      8          6           0      -11.491774   -2.977612   -0.634460
      9          6           0      -10.330350   -1.957715   -0.793438
     10          6           0      -11.010431   -0.570946   -0.629626
     11          6           0       -9.223254   -2.162723    0.289044
     12          6           0      -11.656204   -3.878247   -1.833031
     13          6           0      -10.583335   -4.911306   -2.137469
     14          1           0      -11.038351   -6.288091   -2.385163
     15          7           0      -12.313619    2.302516   -0.633570
     16          6           0      -10.934380    1.974515   -0.747164
     17          6           0      -10.232402    3.227873   -1.081729
     18          6           0      -11.143222    4.252302   -0.837079
     19          6           0      -12.444682    3.643871   -0.506672
     20          6           0       -8.753962    3.236112   -1.409824
     21          6           0      -10.961712    5.780902   -0.956900
     22          8           0      -11.764373    6.617031   -0.501549
     23          6           0       -9.770825    6.254843   -1.685265
     24          7           0      -15.147024    2.561448    0.236526
     25          6           0      -14.915506    3.855129    0.147652
     26          6           0      -16.123453    4.730136    0.581579
     27          6           0      -17.224298    3.670495    0.665256
     28          6           0      -16.446874    2.383893    0.507177
     29          6           0      -15.856666    5.441942    1.950713
     30          6           0      -18.357510    3.781731   -0.329649
     31          6           0      -19.778157    3.545432    0.213065
     32          7           0      -15.206913   -0.431971    0.211190
     33          6           0      -16.506526   -0.212798    0.612731
     34          6           0      -17.235428   -1.500240    0.821187
     35          6           0      -16.194659   -2.386013    0.627575
     36          6           0      -14.996047   -1.731299    0.319399
     37          6           0      -18.700772   -1.722337    1.017243
     38          6           0      -15.900586   -3.811465    0.636549
     39          8           0      -16.684618   -4.735653    0.820605
     40          6           0      -14.410556   -4.018027    0.280188
     41          6           0      -13.863508   -4.883403    1.293790
     42          8           0      -13.554395   -4.568250    2.468205
     43          8           0      -13.553196   -6.097143    0.759928
     44          6           0      -12.746116   -7.012005    1.537328
     45          1           0       -9.401039    0.578664   -1.087425
     46          1           0      -13.581721    5.428116   -0.145762
     47          1           0      -17.976511    1.260466    1.314804
     48          1           0      -11.328481   -3.580191    0.258075
     49          1           0       -9.842995   -2.030630   -1.765843
     50          1           0       -8.162357   -2.255710    0.054636
     51          1           0       -9.506776   -3.092104    0.782720
     52          1           0       -9.266552   -1.471364    1.131048
     53          1           0      -11.668503   -3.303539   -2.759284
     54          1           0      -12.670183   -4.269151   -1.912867
     55          1           0       -9.876416   -4.986282   -1.312543
     56          1           0      -10.217999   -4.656556   -3.131983
     57          1           0       -8.184756    4.008571   -0.893124
     58          1           0       -8.536005    3.334259   -2.473100
     59          1           0       -8.210894    2.341875   -1.103026
     60          1           0       -9.729376    5.742688   -2.646661
     61          1           0       -8.959054    5.923775   -1.038496
     62          1           0       -9.942358    7.309332   -1.898278
     63          1           0      -16.288299    5.439752   -0.229926
     64          1           0      -17.720470    3.569756    1.630114
     65          1           0      -16.498814    5.049609    2.738716
     66          1           0      -16.087426    6.505809    1.895350
     67          1           0      -14.813200    5.230688    2.184983
     68          1           0      -18.210893    3.123596   -1.185483
     69          1           0      -18.159406    4.720390   -0.846104
     70          1           0      -20.453315    4.120637   -0.419750
     71          1           0      -19.862391    3.726608    1.285041
     72          1           0      -19.877645    2.469616    0.070302
     73          1           0      -19.231237   -2.034402    0.117425
     74          1           0      -19.060866   -0.823392    1.516760
     75          1           0      -18.848068   -2.424104    1.839114
     76          1           0      -14.432535   -4.643153   -0.612423
     77          1           0      -12.353139   -6.595979    2.465392
     78          1           0      -11.963214   -7.452801    0.920792
     79          1           0      -13.311209   -7.890439    1.850074
     80         12           0       14.283324   -0.148763    0.375584
     81          6           0       11.629169   -1.449892   -1.456337
     82          6           0       15.471769    1.265550   -2.558866
     83          6           0       16.531802    1.591404    2.061223
     84          6           0       12.739061   -1.180622    3.296038
     85          7           0       13.553638    0.042610   -1.715165
     86          6           0       12.519785   -0.687941   -2.264106
     87          6           0       12.458886   -0.578462   -3.758967
     88          6           0       13.912370   -0.024048   -4.098530
     89          6           0       14.349216    0.503979   -2.738527
     90          6           0       14.978368   -0.884863   -4.929037
     91          6           0       11.232073    0.269978   -4.334372
     92          6           0       10.711293    1.462798   -3.478562
     93          1           0       10.368003    2.697019   -4.277592
     94          7           0       15.729415    1.335965   -0.149703
     95          6           0       16.074019    1.769819   -1.435875
     96          6           0       17.079140    2.796305   -1.394657
     97          6           0       17.404791    2.937263   -0.024561
     98          6           0       16.545114    1.971578    0.722675
     99          6           0       17.744407    3.276253   -2.685589
    100          6           0       18.495997    3.921032    0.455646
    101          8           0       19.065573    4.697091   -0.318355
    102          6           0       18.855638    3.838404    1.879361
    103          7           0       14.466807    0.221964    2.401004
    104          6           0       15.664998    0.757572    2.842531
    105          6           0       15.841960    0.657358    4.373658
    106          6           0       14.462328   -0.040342    4.717191
    107          6           0       13.823559   -0.308929    3.427677
    108          6           0       17.022878   -0.072619    4.931339
    109          6           0       13.492644    0.889952    5.607525
    110          6           0       12.898747    0.113753    6.753948
    111          7           0       12.622362   -1.300938    0.881507
    112          6           0       12.118682   -1.637351    2.124340
    113          6           0       10.876193   -2.427564    1.967503
    114          6           0       10.644658   -2.381028    0.548690
    115          6           0       11.719659   -1.692123   -0.024967
    116          6           0        9.903825   -2.892308    2.974162
    117          6           0        9.730195   -2.700246   -0.568280
    118          8           0        8.632248   -3.206260   -0.539137
    119          6           0       10.346018   -2.152294   -1.895813
    120          6           0       10.491732   -3.232603   -2.872138
    121          8           0        9.975277   -3.372887   -3.981016
    122          8           0       11.142254   -4.303125   -2.204290
    123          6           0       11.439678   -5.485571   -3.040753
    124          1           0       15.942717    1.473341   -3.522461
    125          1           0       17.337852    1.954853    2.701852
    126          1           0       12.376539   -1.522901    4.266959
    127          1           0       12.314170   -1.563028   -4.203562
    128          1           0       13.652194    0.837877   -4.713450
    129          1           0       14.616122   -1.832423   -5.327400
    130          1           0       15.843912   -1.195276   -4.343880
    131          1           0       15.221153   -0.358971   -5.852806
    132          1           0       10.406215   -0.386825   -4.605643
    133          1           0       11.560079    0.652544   -5.300859
    134          1           0       11.428406    1.718868   -2.698043
    135          1           0        9.791852    1.176458   -2.968678
    136          1           0       18.071605    4.315925   -2.652078
    137          1           0       17.009034    3.269381   -3.489701
    138          1           0       18.611491    2.630822   -2.827864
    139          1           0       19.386192    2.901747    2.047887
    140          1           0       17.957595    3.926297    2.491635
    141          1           0       19.526598    4.680623    2.048177
    142          1           0       15.728158    1.662782    4.779636
    143          1           0       14.781130   -1.014374    5.088255
    144          1           0       16.821131   -0.191362    5.996031
    145          1           0       17.872464    0.608032    4.876053
    146          1           0       17.187368   -1.004502    4.389079
    147          1           0       12.742418    1.290310    4.925757
    148          1           0       13.910828    1.823058    5.987180
    149          1           0       11.833688   -0.007202    6.557626
    150          1           0       12.843672    0.702904    7.669957
    151          1           0       13.319594   -0.891263    6.776621
    152          1           0       10.147413   -2.662121    4.012426
    153          1           0        9.900355   -3.979455    2.903497
    154          1           0        9.052370   -2.258353    2.727537
    155          1           0        9.632631   -1.402196   -2.236380
    156          1           0       12.467995   -5.709200   -2.754451
    157          1           0       11.394536   -5.431249   -4.128499
    158          1           0       10.876359   -6.293528   -2.573505
 ---------------------------------------------------------------------

 SCF Done:  E(RwB97XD) =  -4070.61888752     A.U. after   20 cycles

 Excitation energies and oscillator strengths:

 Excited State   1:      Singlet-A      1.6615 eV  746.20 nm  f=0.3962  <S**2>=0.000
     309 -> 315       -0.18767
     311 -> 313        0.68117
     309 <- 315       -0.11473
 This state for optimization and/or second-order correction.
 Total Energy, E(TD-HF/TD-DFT) =  -4070.55782740
 Copying the excited state density for this state as the 1-particle RhoCI density.

 Excited State   2:      Singlet-A      1.6936 eV  732.09 nm  f=0.3541  <S**2>=0.000
     310 -> 316       -0.20439
     312 -> 314        0.67897
     310 <- 316       -0.12245

 Excited State   3:      Singlet-A      2.1480 eV  577.22 nm  f=0.0861  <S**2>=0.000
     309 -> 313        0.62831
     311 -> 315        0.30701

 Excited State   4:      Singlet-A      2.2627 eV  547.95 nm  f=0.0702  <S**2>=0.000
     310 -> 314        0.61590
     312 -> 316        0.33993

 Excited State   5:      Singlet-A      3.7192 eV  333.37 nm  f=0.0000  <S**2>=0.000
     312 -> 313        0.70702

 The electronic state is 1-A.
 Alpha  occ. eigenvalues --  -46.95512 -46.94763 -19.30329 -19.29652 -19.25566
 Alpha  occ. eigenvalues --  -19.24118 -19.24002 -19.23949 -19.23749 -19.23600
 Alpha  occ. eigenvalues --  -14.46910 -14.46846 -14.46400 -14.45632 -14.44324
 Alpha  occ. eigenvalues --  -14.44315 -14.44114 -14.43837 -10.43675 -10.42922
 Alpha  occ. eigenvalues --  -10.39216 -10.39146 -10.39133 -10.38406 -10.35749
 Alpha  occ. eigenvalues --  -10.35277 -10.35094 -10.34876 -10.34795 -10.34733
 Alpha  occ. eigenvalues --  -10.34711 -10.34530 -10.34514 -10.34484 -10.34388
 Alpha  occ. eigenvalues --  -10.34361 -10.34198 -10.34145 -10.34002 -10.33461
 Alpha  occ. eigenvalues --  -10.33119 -10.33010 -10.32861 -10.32684 -10.32636
 Alpha  occ. eigenvalues --  -10.32461 -10.32449 -10.32434 -10.32378 -10.32346
 Alpha  occ. eigenvalues --  -10.32298 -10.32167 -10.32075 -10.32062 -10.31970
 Alpha  occ. eigenvalues --  -10.31940 -10.31775 -10.31643 -10.31486 -10.31401
 Alpha  occ. eigenvalues --  -10.31354 -10.31267 -10.31166 -10.31145 -10.31077
 Alpha  occ. eigenvalues --  -10.31046 -10.30955 -10.30946 -10.30882 -10.30876
 Alpha  occ. eigenvalues --  -10.30802 -10.30141 -10.30132 -10.30132 -10.30024
 Alpha  occ. eigenvalues --  -10.29962 -10.29949 -10.29880 -10.29778 -10.29777
 Alpha  occ. eigenvalues --  -10.29769 -10.29712 -10.29617 -10.29510 -10.29457
 Alpha  occ. eigenvalues --  -10.28568  -3.21482  -3.20801  -1.95054  -1.94620
 Alpha  occ. eigenvalues --   -1.94442  -1.94401  -1.93919  -1.93782  -1.18233
 Alpha  occ. eigenvalues --   -1.17046  -1.12683  -1.11649  -1.11641  -1.11204
 Alpha  occ. eigenvalues --   -1.09186  -1.08082  -1.07697  -1.07120  -1.06539
 Alpha  occ. eigenvalues --   -1.05788  -1.05282  -1.05008  -1.04455  -1.04158
 Alpha  occ. eigenvalues --   -0.95082  -0.94500  -0.91885  -0.91562  -0.91228
 Alpha  occ. eigenvalues --   -0.91099  -0.90334  -0.89949  -0.89627  -0.89460
 Alpha  occ. eigenvalues --   -0.88934  -0.88879  -0.88502  -0.88218  -0.86789
 Alpha  occ. eigenvalues --   -0.86548  -0.86423  -0.85882  -0.84741  -0.84719
 Alpha  occ. eigenvalues --   -0.84445  -0.84342  -0.83120  -0.82861  -0.82784
 Alpha  occ. eigenvalues --   -0.82173  -0.80552  -0.80294  -0.79572  -0.79519
 Alpha  occ. eigenvalues --   -0.79293  -0.78828  -0.78407  -0.78209  -0.77765
 Alpha  occ. eigenvalues --   -0.77099  -0.74911  -0.74694  -0.74188  -0.73850
 Alpha  occ. eigenvalues --   -0.71426  -0.71393  -0.71295  -0.71142  -0.70148
 Alpha  occ. eigenvalues --   -0.69954  -0.68888  -0.68450  -0.68401  -0.68260
 Alpha  occ. eigenvalues --   -0.67288  -0.67027  -0.66964  -0.66580  -0.66488
 Alpha  occ. eigenvalues --   -0.66055  -0.64598  -0.64459  -0.62316  -0.62312
 Alpha  occ. eigenvalues --   -0.61821  -0.61463  -0.61413  -0.61000  -0.60686
 Alpha  occ. eigenvalues --   -0.60340  -0.60287  -0.59577  -0.59545  -0.59263
 Alpha  occ. eigenvalues --   -0.58394  -0.58356  -0.57827  -0.57621  -0.57441
 Alpha  occ. eigenvalues --   -0.57408  -0.57112  -0.56617  -0.56291  -0.55877
 Alpha  occ. eigenvalues --   -0.55865  -0.55755  -0.55338  -0.55055  -0.54923
 Alpha  occ. eigenvalues --   -0.54794  -0.54707  -0.54622  -0.54174  -0.53973
 Alpha  occ. eigenvalues --   -0.53836  -0.53733  -0.53603  -0.53566  -0.53108
 Alpha  occ. eigenvalues --   -0.53042  -0.52807  -0.52646  -0.52437  -0.52369
 Alpha  occ. eigenvalues --   -0.52289  -0.52149  -0.51776  -0.51613  -0.51556
 Alpha  occ. eigenvalues --   -0.51511  -0.51317  -0.50927  -0.50825  -0.50565
 Alpha  occ. eigenvalues --   -0.50524  -0.50243  -0.50237  -0.50195  -0.50161
 Alpha  occ. eigenvalues --   -0.49806  -0.49745  -0.49677  -0.49267  -0.49222
 Alpha  occ. eigenvalues --   -0.49072  -0.48936  -0.48899  -0.48525  -0.48395
 Alpha  occ. eigenvalues --   -0.48277  -0.48208  -0.48063  -0.47891  -0.47724
 Alpha  occ. eigenvalues --   -0.47433  -0.47381  -0.47119  -0.47008  -0.46965
 Alpha  occ. eigenvalues --   -0.46939  -0.46924  -0.46696  -0.46638  -0.46385
 Alpha  occ. eigenvalues --   -0.45925  -0.45806  -0.45755  -0.45561  -0.45419
 Alpha  occ. eigenvalues --   -0.45255  -0.45231  -0.45110  -0.44990  -0.44810
 Alpha  occ. eigenvalues --   -0.44515  -0.44386  -0.44277  -0.44126  -0.44016
 Alpha  occ. eigenvalues --   -0.43894  -0.43735  -0.43640  -0.43593  -0.43564
 Alpha  occ. eigenvalues --   -0.43435  -0.43189  -0.43133  -0.42891  -0.42696
 Alpha  occ. eigenvalues --   -0.42441  -0.41956  -0.41933  -0.41743  -0.41081
 Alpha  occ. eigenvalues --   -0.40641  -0.40497  -0.40026  -0.39766  -0.39463
 Alpha  occ. eigenvalues --   -0.39144  -0.38965  -0.38619  -0.37925  -0.37842
 Alpha  occ. eigenvalues --   -0.37730  -0.37584  -0.37212  -0.36843  -0.35806
 Alpha  occ. eigenvalues --   -0.35634  -0.35415  -0.35089  -0.33702  -0.33562
 Alpha  occ. eigenvalues --   -0.33198  -0.32914  -0.32869  -0.32680  -0.32458
 Alpha  occ. eigenvalues --   -0.32362  -0.32231  -0.31897  -0.26081  -0.25928
 Alpha  occ. eigenvalues --   -0.23084  -0.22648
 Alpha virt. eigenvalues --   -0.07071  -0.06433  -0.00375   0.00175   0.02658
 Alpha virt. eigenvalues --    0.02865   0.04497   0.04695   0.04799   0.06135
 Alpha virt. eigenvalues --    0.06205   0.06758   0.07399   0.08208   0.08605

 Mulliken charges:
               1
     1  Mg   0.974481
     2  C    0.002849
     3  C   -0.073986
     4  C   -0.058983
     5  C   -0.108835
     6  N   -0.330665
     7  C   -0.063300
     8  C    0.015523
     9  C   -0.121653
    10  C    0.063730
    11  C    0.011125
    12  C    0.011734
    13  C   -0.119995
    14  H    0.035222
    15  N   -0.515891
    16  C    0.189955
    17  C   -0.128712
    18  C   -0.091750
    19  C    0.167306
    20  C    0.036358
    21  C    0.055242
    22  O   -0.254896
    23  C    0.008678
    24  N   -0.326374
    25  C   -0.014196
    26  C   -0.059954
    27  C   -0.104924
    28  C    0.037717
    29  C    0.034249
    30  C    0.005251
    31  C   -0.035266
    32  N   -0.421042
    33  C    0.133125
    34  C   -0.209328
    35  C   -0.009039
    36  C    0.152661
    37  C    0.108999
    38  C    0.073298
    39  O   -0.209343
    40  C   -0.031889
    41  C    0.264677
    42  O   -0.283702
    43  O   -0.351476
    44  C    0.134942
    45  H   -0.011998
    46  H    0.030547
    47  H    0.003435
    48  H    0.033967
    49  H    0.037773
    50  H    0.041534
    51  H    0.017676
    52  H    0.035857
    53  H    0.014279
    54  H    0.025608
    55  H    0.056772
    56  H    0.056881
    57  H    0.040500
    58  H    0.054241
    59  H    0.039318
    60  H    0.053249
    61  H    0.060559
    62  H    0.061840
    63  H    0.043713
    64  H    0.028048
    65  H    0.033479
    66  H    0.047921
    67  H    0.054540
    68  H    0.023080
    69  H    0.008794
    70  H    0.052086
    71  H    0.038467
    72  H    0.041132
    73  H    0.077365
    74  H    0.017008
    75  H    0.049335
    76  H    0.080810
    77  H    0.066812
    78  H    0.047481
    79  H    0.045965
    80  Mg   0.956535
    81  C   -0.040737
    82  C   -0.109772
    83  C   -0.099606
    84  C   -0.098484
    85  N   -0.351300
    86  C    0.005513
    87  C   -0.079231
    88  C   -0.050003
    89  C    0.025542
    90  C    0.014898
    91  C   -0.014122
    92  C   -0.131156
    93  H    0.040491
    94  N   -0.438425
    95  C    0.180603
    96  C   -0.147209
    97  C   -0.106937
    98  C    0.207131
    99  C    0.079898
   100  C    0.051247
   101  O   -0.236235
   102  C   -0.010303
   103  N   -0.368845
   104  C    0.022444
   105  C   -0.081730
   106  C   -0.120613
   107  C    0.043046
   108  C    0.052801
   109  C   -0.004593
   110  C   -0.029167
   111  N   -0.431023
   112  C    0.160656
   113  C   -0.200468
   114  C   -0.051399
   115  C    0.127519
   116  C    0.085783
   117  C    0.113309
   118  O   -0.186683
   119  C   -0.040793
   120  C    0.283444
   121  O   -0.240022
   122  O   -0.406627
   123  C    0.140455
   124  H   -0.005315
   125  H   -0.020450
   126  H   -0.017635
   127  H    0.039074
   128  H    0.033366
   129  H    0.033383
   130  H    0.047897
   131  H    0.043656
   132  H    0.053201
   133  H    0.034486
   134  H    0.067987
   135  H    0.053151
   136  H    0.060290
   137  H    0.036783
   138  H    0.064929
   139  H    0.070884
   140  H    0.065170
   141  H    0.051435
   142  H    0.031763
   143  H    0.032504
   144  H    0.042937
   145  H    0.037408
   146  H    0.047669
   147  H    0.039853
   148  H    0.030764
   149  H    0.027310
   150  H    0.038811
   151  H    0.043396
   152  H    0.019244
   153  H    0.066797
   154  H    0.074572
   155  H    0.069044
   156  H    0.037512
   157  H    0.075511
   158  H    0.056780
 Sum of Mulliken charges =  -0.00000

 Dipole moment (field-independent basis, Debye):
    X=              7.1170    Y=              0.3738    Z=              0.3601  Tot=              7.1359
 Quadrupole moment (field-independent basis, Debye-Ang):
   XX=           -477.1779   YY=           -538.7781   ZZ=           -477.6120
   XY=           -101.7628   XZ=             79.8670   YZ=              9.7361

 Normal termination of Gaussian 16 at Mon Sep 20 03:51:07 2021.
