 Gaussian 16, Revision A.03,
 Gaussian 16:  ES64L-G16RevA.03 25-Dec-2016

 --------------------------------
 #p wB97XD/Def2SVP td=(nstates=5)
 --------------------------------

 --------------------------------
 TDDFT excited states in gaussian
 --------------------------------
 Symbolic Z-matrix:
 Charge =  0 Multiplicity = 1

                         Standard orientation:
 ---------------------------------------------------------------------
 Center     Atomic      Atomic             Coordinates (Angstroms)
 Number     Number       Type             X           Y           Z
 ---------------------------------------------------------------------
      1         12           0       28.660293    0.503284   -0.230999
      2          6           0       26.829131   -2.241666    1.064694
      3          6           0       26.035154    2.490382    0.598279
      4          6           0       30.717933    3.169375   -0.697320
      5          6           0       31.405139   -1.594109   -0.512971
      6          7           0       26.742575    0.061346    0.879682
      7          6           0       26.126056   -1.109908    1.232033
      8          6           0       24.745554   -0.885759    1.726927
      9          6           0       24.422888    0.604672    1.239914
     10          6           0       25.788676    1.096261    0.901133
     11          6           0       23.448457    0.621436    0.073213
     12          6           0       24.755297   -1.148061    3.241102
     13          6           0       23.709562   -2.196289    3.811690
     14          1           0       22.720753   -1.814299    4.954076
     15          7           0       28.460993    2.552944   -0.132387
     16          6           0       27.236462    3.173970    0.150221
     17          6           0       27.392272    4.575480   -0.099663
     18          6           0       28.759211    4.837190   -0.452662
     19          6           0       29.358113    3.476910   -0.511801
     20          6           0       26.206394    5.524847    0.013426
     21          6           0       29.429585    6.161337   -0.743333
     22          8           0       28.624902    7.137052   -0.774037
     23          6           0       30.945640    6.471999   -0.894597
     24          7           0       30.796366    0.780984   -0.574658
     25          6           0       31.388208    1.980501   -0.766470
     26          6           0       32.922002    1.878381   -0.978043
     27          6           0       33.117094    0.323692   -1.028586
     28          6           0       31.661792   -0.204922   -0.621700
     29          6           0       33.310077    2.597915   -2.257344
     30          6           0       34.159503   -0.223637   -0.101987
     31          6           0       35.364716   -0.785757   -0.805839
     32          7           0       29.060205   -1.472234   -0.008983
     33          6           0       30.204100   -2.257993   -0.198329
     34          6           0       29.923494   -3.600863   -0.134812
     35          6           0       28.591639   -3.651475    0.324776
     36          6           0       28.145033   -2.338784    0.458235
     37          6           0       30.868907   -4.680338   -0.617800
     38          6           0       27.473039   -4.582962    0.629088
     39          8           0       27.443235   -5.772760    0.566034
     40          6           0       26.357204   -3.623913    1.192482
     41          6           0       25.035726   -4.113709    0.641630
     42          8           0       24.200017   -4.746701    1.286887
     43          8           0       24.877084   -3.694922   -0.701761
     44          6           0       23.560673   -4.035780   -1.240381
     45          1           0       25.131523    3.101668    0.650647
     46          1           0       31.393360    3.989543   -0.951822
     47          1           0       32.255309   -2.262406   -0.365436
     48          1           0       24.070515   -1.598442    1.252938
     49          1           0       23.964121    1.140352    2.070558
     50          1           0       23.604960   -0.195877   -0.629442
     51          1           0       23.632578    1.522849   -0.512251
     52          1           0       22.402075    0.668623    0.374722
     53          1           0       24.587215   -0.189223    3.731273
     54          1           0       25.736583   -1.410205    3.636657
     55          1           0       24.395491   -2.953919    4.191520
     56          1           0       23.215965   -2.729044    2.999749
     57          1           0       25.688152    5.393585    0.963332
     58          1           0       25.519666    5.244957   -0.785337
     59          1           0       26.416834    6.595164    0.024556
     60          1           0       31.203052    5.991384   -1.837906
     61          1           0       31.478090    6.013326   -0.061319
     62          1           0       31.157025    7.541604   -0.886223
     63          1           0       33.511974    2.329183   -0.180438
     64          1           0       33.235683   -0.001692   -2.061786
     65          1           0       32.873815    3.596239   -2.219774
     66          1           0       32.893212    2.042405   -3.098035
     67          1           0       34.359433    2.649361   -2.545225
     68          1           0       33.806959   -1.052078    0.512427
     69          1           0       34.555195    0.459231    0.649566
     70          1           0       36.248263   -0.297995   -0.395946
     71          1           0       35.385127   -0.542903   -1.868245
     72          1           0       35.442988   -1.872521   -0.760501
     73          1           0       30.258840   -5.574049   -0.752843
     74          1           0       31.662909   -4.886499    0.099551
     75          1           0       31.280380   -4.289891   -1.548308
     76          1           0       26.316001   -3.922915    2.240498
     77          1           0       23.279318   -3.339424   -2.030450
     78          1           0       22.774956   -3.869293   -0.504840
     79          1           0       23.492124   -5.069575   -1.580125
     80         12           0      -28.742708    0.376303    0.196275
     81          6           0      -27.213935   -2.195149   -1.422855
     82          6           0      -28.371085    2.412497   -2.551943
     83          6           0      -30.116407    2.895210    1.993168
     84          6           0      -28.672331   -1.582842    3.137117
     85          7           0      -27.681561    0.193287   -1.699682
     86          6           0      -27.440943   -1.033817   -2.233882
     87          6           0      -27.239678   -1.009063   -3.711176
     88          6           0      -27.377551    0.579482   -3.972977
     89          6           0      -27.843500    1.124848   -2.663012
     90          6           0      -26.006050    1.249045   -4.438488
     91          6           0      -28.417094   -1.839085   -4.406587
     92          6           0      -28.152150   -2.392396   -5.808466
     93          1           0      -26.973772   -1.954427   -6.713513
     94          7           0      -29.292548    2.354144   -0.204001
     95          6           0      -29.022957    3.014357   -1.413929
     96          6           0      -29.510998    4.366788   -1.274476
     97          6           0      -30.044817    4.510801    0.022312
     98          6           0      -29.864503    3.198061    0.626813
     99          6           0      -29.454158    5.363145   -2.455939
    100          6           0      -30.624642    5.856380    0.707761
    101          8           0      -31.201842    5.853185    1.802427
    102          6           0      -30.556676    7.236147    0.074233
    103          7           0      -29.380506    0.572732    2.306871
    104          6           0      -29.876056    1.747530    2.763889
    105          6           0      -29.974185    1.756595    4.288495
    106          6           0      -29.817550    0.165565    4.635729
    107          6           0      -29.357342   -0.388102    3.278055
    108          6           0      -29.003954    2.771012    5.050220
    109          6           0      -31.174537   -0.629101    4.991620
    110          6           0      -31.232367   -1.508199    6.227336
    111          7           0      -28.145293   -1.527600    0.813598
    112          6           0      -28.155736   -2.178209    1.990210
    113          6           0      -27.663171   -3.578412    1.799353
    114          6           0      -27.339971   -3.601165    0.421859
    115          6           0      -27.543028   -2.287361   -0.066653
    116          6           0      -27.561613   -4.716803    2.751879
    117          6           0      -26.835926   -4.486813   -0.559676
    118          8           0      -26.494380   -5.683811   -0.467395
    119          6           0      -26.724635   -3.614916   -1.807845
    120          6           0      -25.342660   -3.577114   -2.228434
    121          8           0      -24.356802   -3.265520   -1.636729
    122          8           0      -25.343099   -3.882522   -3.586217
    123          6           0      -24.076412   -3.884158   -4.413790
    124          1           0      -28.493374    3.036117   -3.439530
    125          1           0      -30.468498    3.739417    2.590238
    126          1           0      -28.440452   -2.167221    4.029295
    127          1           0      -26.320768   -1.374868   -4.168888
    128          1           0      -28.122217    0.791411   -4.740195
    129          1           0      -26.093085    2.054572   -5.167265
    130          1           0      -25.311049    0.465008   -4.738697
    131          1           0      -25.575363    1.710154   -3.549079
    132          1           0      -29.335681   -1.255173   -4.467634
    133          1           0      -28.610700   -2.673318   -3.731815
    134          1           0      -29.078823   -2.236848   -6.362349
    135          1           0      -28.076004   -3.477071   -5.742631
    136          1           0      -29.073547    4.937199   -3.384180
    137          1           0      -28.840456    6.200524   -2.125529
    138          1           0      -30.465511    5.744089   -2.599750
    139          1           0      -31.241794    7.179829   -0.770856
    140          1           0      -29.624694    7.402387   -0.466391
    141          1           0      -30.645483    8.010092    0.836340
    142          1           0      -30.995397    2.035712    4.550686
    143          1           0      -29.116482    0.012834    5.456499
    144          1           0      -28.352652    2.246473    5.749737
    145          1           0      -29.588943    3.527903    5.571474
    146          1           0      -28.323218    3.252136    4.347520
    147          1           0      -31.538525   -1.209448    4.143920
    148          1           0      -31.947228    0.131682    5.098156
    149          1           0      -31.513307   -2.503297    5.884198
    150          1           0      -31.919624   -1.133205    6.985218
    151          1           0      -30.231616   -1.615060    6.648216
    152          1           0      -27.969280   -4.523163    3.743918
    153          1           0      -26.521106   -5.005115    2.903522
    154          1           0      -28.095460   -5.566569    2.326902
    155          1           0      -27.332436   -3.993190   -2.630303
    156          1           0      -23.227087   -3.566920   -3.808335
    157          1           0      -24.166365   -3.155517   -5.220562
    158          1           0      -23.962680   -4.909713   -4.764976
 ---------------------------------------------------------------------

 SCF Done:  E(RwB97XD) =  -4070.60651138     A.U. after   19 cycles

 Excitation energies and oscillator strengths:

 Excited State   1:      Singlet-A      1.6249 eV  763.05 nm  f=0.3587  <S**2>=0.000
     309 -> 315       -0.17975
     311 -> 313        0.68480
     309 <- 315       -0.11750
 This state for optimization and/or second-order correction.
 Total Energy, E(TD-HF/TD-DFT) =  -4070.54679908
 Copying the excited state density for this state as the 1-particle RhoCI density.

 Excited State   2:      Singlet-A      1.6817 eV  737.26 nm  f=0.3956  <S**2>=0.000
     310 -> 316       -0.19776
     312 -> 314        0.68064
     310 <- 316       -0.11935

 Excited State   3:      Singlet-A      2.1634 eV  573.09 nm  f=0.1558  <S**2>=0.000
     309 -> 313        0.64646
     311 -> 315        0.27023

 Excited State   4:      Singlet-A      2.1739 eV  570.33 nm  f=0.0986  <S**2>=0.000
     310 -> 314        0.63669
     312 -> 316        0.29860

 Excited State   5:      Singlet-A      3.2312 eV  383.71 nm  f=0.0021  <S**2>=0.000
     307 -> 313        0.24974
     307 -> 318        0.10042
     308 -> 313        0.63515

 The electronic state is 1-A.
 Alpha  occ. eigenvalues --  -46.95728 -46.95374 -19.30869 -19.28933 -19.25976
 Alpha  occ. eigenvalues --  -19.24891 -19.24525 -19.24207 -19.23899 -19.23375
 Alpha  occ. eigenvalues --  -14.47043 -14.46998 -14.46832 -14.46278 -14.44711
 Alpha  occ. eigenvalues --  -14.44129 -14.43980 -14.43626 -10.44259 -10.42485
 Alpha  occ. eigenvalues --  -10.40217 -10.39688 -10.39502 -10.38530 -10.36071
 Alpha  occ. eigenvalues --  -10.35796 -10.35661 -10.35412 -10.35132 -10.34897
 Alpha  occ. eigenvalues --  -10.34748 -10.34723 -10.34670 -10.34661 -10.34564
 Alpha  occ. eigenvalues --  -10.34208 -10.34039 -10.33889 -10.33723 -10.33074
 Alpha  occ. eigenvalues --  -10.33059 -10.32988 -10.32879 -10.32796 -10.32720
 Alpha  occ. eigenvalues --  -10.32599 -10.32588 -10.32453 -10.32440 -10.32383
 Alpha  occ. eigenvalues --  -10.32376 -10.32340 -10.32328 -10.32287 -10.32280
 Alpha  occ. eigenvalues --  -10.32045 -10.32022 -10.32014 -10.31871 -10.31862
 Alpha  occ. eigenvalues --  -10.31596 -10.31576 -10.31428 -10.31405 -10.31401
 Alpha  occ. eigenvalues --  -10.31311 -10.31267 -10.31099 -10.30938 -10.30824
 Alpha  occ. eigenvalues --  -10.30517 -10.30470 -10.30469 -10.30384 -10.30188
 Alpha  occ. eigenvalues --  -10.30117 -10.30045 -10.30023 -10.29956 -10.29913
 Alpha  occ. eigenvalues --  -10.29882 -10.29329 -10.29162 -10.29143 -10.29015
 Alpha  occ. eigenvalues --  -10.28834  -3.21584  -3.21380  -1.95193  -1.94949
 Alpha  occ. eigenvalues --   -1.94687  -1.94563  -1.94507  -1.94353  -1.17786
 Alpha  occ. eigenvalues --   -1.17764  -1.14291  -1.11716  -1.10594  -1.10181
 Alpha  occ. eigenvalues --   -1.09866  -1.09417  -1.07620  -1.07270  -1.06470
 Alpha  occ. eigenvalues --   -1.06308  -1.05585  -1.05408  -1.04819  -1.04647
 Alpha  occ. eigenvalues --   -0.95512  -0.95301  -0.91791  -0.91273  -0.90962
 Alpha  occ. eigenvalues --   -0.90539  -0.90128  -0.89809  -0.89432  -0.88989
 Alpha  occ. eigenvalues --   -0.88980  -0.88791  -0.88158  -0.87923  -0.86788
 Alpha  occ. eigenvalues --   -0.86274  -0.86217  -0.85352  -0.84579  -0.84248
 Alpha  occ. eigenvalues --   -0.83879  -0.83518  -0.83127  -0.82676  -0.82465
 Alpha  occ. eigenvalues --   -0.82266  -0.80369  -0.79786  -0.79402  -0.79390
 Alpha  occ. eigenvalues --   -0.79058  -0.78839  -0.78436  -0.78125  -0.77477
 Alpha  occ. eigenvalues --   -0.77103  -0.75536  -0.74604  -0.74226  -0.73956
 Alpha  occ. eigenvalues --   -0.71390  -0.71276  -0.70934  -0.70562  -0.70158
 Alpha  occ. eigenvalues --   -0.69677  -0.69268  -0.68257  -0.67961  -0.67687
 Alpha  occ. eigenvalues --   -0.67394  -0.67248  -0.67163  -0.66959  -0.66512
 Alpha  occ. eigenvalues --   -0.66246  -0.65126  -0.63836  -0.62543  -0.62463
 Alpha  occ. eigenvalues --   -0.62080  -0.61887  -0.61621  -0.61174  -0.60982
 Alpha  occ. eigenvalues --   -0.60799  -0.60435  -0.60100  -0.59737  -0.58837
 Alpha  occ. eigenvalues --   -0.58245  -0.58016  -0.57801  -0.57644  -0.57510
 Alpha  occ. eigenvalues --   -0.57234  -0.56869  -0.56331  -0.56141  -0.55849
 Alpha  occ. eigenvalues --   -0.55702  -0.55536  -0.55182  -0.54956  -0.54896
 Alpha  occ. eigenvalues --   -0.54702  -0.54647  -0.54255  -0.54109  -0.54076
 Alpha  occ. eigenvalues --   -0.54022  -0.53688  -0.53591  -0.53550  -0.53346
 Alpha  occ. eigenvalues --   -0.53061  -0.52832  -0.52758  -0.52485  -0.52479
 Alpha  occ. eigenvalues --   -0.52262  -0.52011  -0.51843  -0.51725  -0.51617
 Alpha  occ. eigenvalues --   -0.51605  -0.51365  -0.51065  -0.50869  -0.50815
 Alpha  occ. eigenvalues --   -0.50578  -0.50281  -0.50241  -0.50090  -0.49948
 Alpha  occ. eigenvalues --   -0.49881  -0.49686  -0.49549  -0.49239  -0.49176
 Alpha  occ. eigenvalues --   -0.48870  -0.48859  -0.48567  -0.48498  -0.48440
 Alpha  occ. eigenvalues --   -0.48392  -0.48144  -0.48085  -0.47969  -0.47849
 Alpha  occ. eigenvalues --   -0.47704  -0.47512  -0.47452  -0.47267  -0.47144
 Alpha  occ. eigenvalues --   -0.47131  -0.46831  -0.46634  -0.46267  -0.46230
 Alpha  occ. eigenvalues --   -0.46002  -0.45904  -0.45903  -0.45826  -0.45667
 Alpha  occ. eigenvalues --   -0.45649  -0.45217  -0.45069  -0.44643  -0.44587
 Alpha  occ. eigenvalues --   -0.44435  -0.44387  -0.44337  -0.44318  -0.43997
 Alpha  occ. eigenvalues --   -0.43676  -0.43669  -0.43563  -0.43489  -0.43426
 Alpha  occ. eigenvalues --   -0.43297  -0.43063  -0.43050  -0.42921  -0.42751
 Alpha  occ. eigenvalues --   -0.42104  -0.42053  -0.41650  -0.41338  -0.40978
 Alpha  occ. eigenvalues --   -0.40694  -0.40320  -0.40169  -0.39761  -0.39743
 Alpha  occ. eigenvalues --   -0.39525  -0.39512  -0.39283  -0.38762  -0.38568
 Alpha  occ. eigenvalues --   -0.38388  -0.38118  -0.37392  -0.36697  -0.36463
 Alpha  occ. eigenvalues --   -0.36223  -0.35493  -0.35405  -0.33996  -0.33385
 Alpha  occ. eigenvalues --   -0.33132  -0.33131  -0.33017  -0.32566  -0.32360
 Alpha  occ. eigenvalues --   -0.32226  -0.32180  -0.31970  -0.26338  -0.25749
 Alpha  occ. eigenvalues --   -0.23476  -0.22935
 Alpha virt. eigenvalues --   -0.07708  -0.06861   0.00065   0.00194   0.02042
 Alpha virt. eigenvalues --    0.02303   0.04422   0.04444   0.04987   0.05827
 Alpha virt. eigenvalues --    0.06264   0.07321   0.07429   0.08014   0.08145

 Mulliken charges:
               1
     1  Mg   0.972265
     2  C    0.037741
     3  C   -0.077612
     4  C   -0.047463
     5  C   -0.093150
     6  N   -0.359294
     7  C   -0.051976
     8  C   -0.053774
     9  C   -0.081872
    10  C    0.068477
    11  C    0.030567
    12  C    0.005075
    13  C   -0.116296
    14  H    0.047987
    15  N   -0.473434
    16  C    0.150720
    17  C   -0.148771
    18  C   -0.063171
    19  C    0.180190
    20  C    0.070577
    21  C    0.021544
    22  O   -0.276254
    23  C    0.023618
    24  N   -0.303479
    25  C    0.005285
    26  C   -0.045800
    27  C   -0.064939
    28  C    0.055577
    29  C    0.009392
    30  C   -0.002868
    31  C   -0.061522
    32  N   -0.466702
    33  C    0.108541
    34  C   -0.190727
    35  C   -0.079791
    36  C    0.147842
    37  C    0.086713
    38  C    0.122398
    39  O   -0.159446
    40  C   -0.057577
    41  C    0.245562
    42  O   -0.241431
    43  O   -0.390691
    44  C    0.140081
    45  H    0.005729
    46  H   -0.060391
    47  H    0.006991
    48  H    0.035233
    49  H    0.038502
    50  H    0.038036
    51  H    0.024514
    52  H    0.047550
    53  H    0.031357
    54  H    0.047671
    55  H    0.050627
    56  H    0.054815
    57  H    0.034265
    58  H    0.046792
    59  H    0.065059
    60  H    0.062891
    61  H    0.064250
    62  H    0.063540
    63  H    0.043482
    64  H    0.043088
    65  H    0.033458
    66  H    0.024387
    67  H    0.040183
    68  H    0.030970
    69  H    0.026653
    70  H    0.031341
    71  H    0.020864
    72  H    0.039953
    73  H    0.062308
    74  H    0.052059
    75  H    0.046469
    76  H    0.069850
    77  H    0.047275
    78  H    0.043973
    79  H    0.064145
    80  Mg   0.950834
    81  C   -0.080373
    82  C   -0.065148
    83  C   -0.054633
    84  C   -0.099709
    85  N   -0.357767
    86  C    0.029444
    87  C   -0.079405
    88  C   -0.109852
    89  C    0.090192
    90  C    0.022801
    91  C   -0.013571
    92  C   -0.098894
    93  H    0.035616
    94  N   -0.438722
    95  C    0.108636
    96  C   -0.179304
    97  C   -0.083550
    98  C    0.122347
    99  C    0.062474
   100  C    0.076037
   101  O   -0.249662
   102  C    0.010355
   103  N   -0.332056
   104  C    0.030787
   105  C   -0.062630
   106  C   -0.122880
   107  C    0.110973
   108  C    0.017305
   109  C   -0.023484
   110  C   -0.037686
   111  N   -0.390672
   112  C    0.092516
   113  C   -0.157229
   114  C   -0.058338
   115  C    0.195321
   116  C    0.082419
   117  C    0.128998
   118  O   -0.229527
   119  C   -0.055336
   120  C    0.260435
   121  O   -0.202708
   122  O   -0.416602
   123  C    0.130303
   124  H   -0.007825
   125  H    0.015256
   126  H    0.000048
   127  H    0.042251
   128  H    0.032257
   129  H    0.044437
   130  H    0.032994
   131  H    0.038533
   132  H    0.033232
   133  H    0.032507
   134  H    0.042999
   135  H    0.053456
   136  H    0.042695
   137  H    0.051385
   138  H    0.048434
   139  H    0.054883
   140  H    0.026355
   141  H    0.075596
   142  H    0.037492
   143  H    0.035314
   144  H    0.033698
   145  H    0.050457
   146  H    0.045476
   147  H    0.038396
   148  H    0.020846
   149  H    0.037101
   150  H    0.048337
   151  H    0.024429
   152  H    0.023625
   153  H    0.065362
   154  H    0.063744
   155  H    0.069634
   156  H    0.065959
   157  H    0.053347
   158  H    0.069234
 Sum of Mulliken charges =  -0.00000

 Dipole moment (field-independent basis, Debye):
    X=              1.0311    Y=              4.8701    Z=             -4.6950  Tot=              6.8428
 Quadrupole moment (field-independent basis, Debye-Ang):
   XX=           -255.3093   YY=           -585.0528   ZZ=           -471.1530
   XY=             -1.7866   XZ=              7.4946   YZ=             -1.2434

 Normal termination of Gaussian 16 at Sun Sep 19 19:20:11 2021.
