 Gaussian 16, Revision A.03,
 Gaussian 16:  ES64L-G16RevA.03 25-Dec-2016

 --------------------------------
 #p wB97XD/Def2SVP td=(nstates=5)
 --------------------------------

 --------------------------------
 TDDFT excited states in gaussian
 --------------------------------
 Symbolic Z-matrix:
 Charge =  0 Multiplicity = 1

                         Standard orientation:
 ---------------------------------------------------------------------
 Center     Atomic      Atomic             Coordinates (Angstroms)
 Number     Number       Type             X           Y           Z
 ---------------------------------------------------------------------
      1         12           0       25.040951   -0.400909   -0.257221
      2          6           0       21.407024   -0.418425   -0.500561
      3          6           0       25.062975    1.714929   -2.961350
      4          6           0       27.984152    0.788133    0.794522
      5          6           0       24.834493   -2.607118    2.318893
      6          7           0       23.360786    0.690661   -1.454103
      7          6           0       21.938938    0.456708   -1.414815
      8          6           0       21.277332    1.147548   -2.610556
      9          6           0       22.460273    1.489856   -3.563614
     10          6           0       23.753183    1.292931   -2.656146
     11          6           0       22.536533    0.547524   -4.856628
     12          6           0       20.300563    2.247814   -2.314410
     13          6           0       20.337308    2.874159   -0.900397
     14          1           0       19.487057    4.052470   -0.391366
     15          7           0       26.429058    0.974542   -1.071271
     16          6           0       26.230340    1.757026   -2.187251
     17          6           0       27.496736    2.505492   -2.460658
     18          6           0       28.258481    2.306727   -1.312003
     19          6           0       27.578590    1.372848   -0.417467
     20          6           0       27.645454    3.334851   -3.686713
     21          6           0       29.624395    2.998178   -1.031205
     22          8           0       30.013978    3.832435   -1.828904
     23          6           0       30.421964    2.824802    0.218696
     24          7           0       26.124998   -0.780895    1.444388
     25          6           0       27.404667   -0.236205    1.545181
     26          6           0       28.167072   -0.842685    2.723232
     27          6           0       27.326170   -2.129850    3.049359
     28          6           0       26.068473   -1.865529    2.218538
     29          6           0       29.672451   -1.166476    2.542448
     30          6           0       27.040921   -2.400612    4.561439
     31          6           0       27.855967   -3.604936    5.221457
     32          7           0       23.478394   -1.417912    0.697193
     33          6           0       23.577717   -2.367889    1.703298
     34          6           0       22.285781   -2.976412    1.905204
     35          6           0       21.446448   -2.174256    1.120197
     36          6           0       22.248011   -1.259762    0.393234
     37          6           0       22.019762   -4.098247    2.923898
     38          6           0       20.100201   -1.968278    0.681561
     39          8           0       19.118694   -2.656293    1.027524
     40          6           0       19.993693   -0.912008   -0.505916
     41          6           0       18.946431    0.030498   -0.064266
     42          8           0       18.867775    0.584016    1.037523
     43          8           0       18.161488    0.267132   -1.143777
     44          6           0       16.910456    1.050008   -0.895366
     45          1           0       25.066855    2.401159   -3.810221
     46          1           0       28.952470    1.176621    1.117651
     47          1           0       24.820084   -3.403775    3.065113
     48          1           0       20.751213    0.275175   -2.998274
     49          1           0       22.511836    2.549479   -3.814520
     50          1           0       22.308368    1.230811   -5.673691
     51          1           0       21.834151   -0.278817   -4.744838
     52          1           0       23.576161    0.224328   -4.920530
     53          1           0       19.319709    1.860243   -2.589154
     54          1           0       20.581321    2.976933   -3.075188
     55          1           0       21.380255    3.156114   -0.752548
     56          1           0       20.081452    2.116207   -0.159757
     57          1           0       27.661319    4.369581   -3.345642
     58          1           0       26.799555    3.127166   -4.341321
     59          1           0       28.545307    3.029715   -4.221959
     60          1           0       29.994682    3.179858    1.155722
     61          1           0       31.342845    3.407204    0.213587
     62          1           0       30.645592    1.759557    0.162573
     63          1           0       28.017221   -0.015133    3.417598
     64          1           0       27.879952   -2.941926    2.577711
     65          1           0       30.334181   -0.414553    2.973555
     66          1           0       29.916936   -1.178327    1.480810
     67          1           0       29.841846   -2.164298    2.948589
     68          1           0       25.989494   -2.569052    4.795978
     69          1           0       27.271452   -1.450647    5.043808
     70          1           0       28.161925   -3.171669    6.173371
     71          1           0       28.724203   -3.939458    4.653487
     72          1           0       27.182647   -4.460990    5.246867
     73          1           0       21.204882   -4.775937    2.668368
     74          1           0       21.730239   -3.513354    3.796253
     75          1           0       22.872294   -4.775581    2.968931
     76          1           0       19.741566   -1.434953   -1.429618
     77          1           0       16.374353    1.177997   -1.836384
     78          1           0       17.137131    2.043579   -0.508200
     79          1           0       16.384422    0.412567   -0.186084
     80         12           0      -24.775630    0.315554    0.385813
     81          6           0      -21.725568   -1.279890   -0.243730
     82          6           0      -26.438981   -2.345491   -0.967963
     83          6           0      -27.588026    2.028338    0.698857
     84          6           0      -22.901992    3.107621    1.598359
     85          7           0      -24.113828   -1.581624   -0.549341
     86          6           0      -22.839264   -2.092409   -0.655550
     87          6           0      -22.884523   -3.556266   -1.053080
     88          6           0      -24.375996   -3.746277   -1.538138
     89          6           0      -25.023804   -2.481628   -0.878016
     90          6           0      -24.529507   -3.751429   -3.053766
     91          6           0      -22.325093   -4.447547    0.115051
     92          6           0      -22.530105   -5.970284   -0.117249
     93          1           0      -22.541854   -6.443070   -1.556096
     94          7           0      -26.676363   -0.095948   -0.041247
     95          6           0      -27.185276   -1.208154   -0.699906
     96          6           0      -28.639417   -1.098970   -0.911415
     97          6           0      -28.962319    0.185193   -0.374438
     98          6           0      -27.711971    0.760397    0.114363
     99          6           0      -29.457768   -2.182501   -1.507225
    100          6           0      -30.330781    0.815482   -0.342606
    101          8           0      -30.536326    1.939423    0.193877
    102          6           0      -31.536198    0.093566   -0.881013
    103          7           0      -25.185697    2.290951    1.116059
    104          6           0      -26.450537    2.712448    1.122934
    105          6           0      -26.521966    4.242111    1.557852
    106          6           0      -24.958149    4.618157    1.818644
    107          6           0      -24.302298    3.278351    1.481744
    108          6           0      -27.213741    5.063741    0.394122
    109          6           0      -24.619065    5.017112    3.318313
    110          6           0      -24.834856    6.513115    3.686625
    111          7           0      -22.786549    0.884867    0.585745
    112          6           0      -22.144207    1.993239    1.198233
    113          6           0      -20.632324    1.770816    1.198799
    114          6           0      -20.412495    0.543332    0.581981
    115          6           0      -21.769835    0.009801    0.301196
    116          6           0      -19.575539    2.654244    1.784179
    117          6           0      -19.433559   -0.443695    0.190645
    118          8           0      -18.200836   -0.462934    0.264258
    119          6           0      -20.257181   -1.768344   -0.203175
    120          6           0      -19.792003   -2.381321   -1.504210
    121          8           0      -20.200371   -2.054683   -2.585793
    122          8           0      -19.006691   -3.533251   -1.272819
    123          6           0      -18.858542   -4.482349   -2.386367
    124          1           0      -26.815507   -3.241251   -1.466986
    125          1           0      -28.517922    2.594550    0.785235
    126          1           0      -22.266781    3.957743    1.856135
    127          1           0      -22.198621   -3.688478   -1.888869
    128          1           0      -24.895897   -4.615020   -1.133002
    129          1           0      -25.017704   -4.695451   -3.295340
    130          1           0      -23.549039   -3.586364   -3.499869
    131          1           0      -25.283144   -3.046576   -3.404117
    132          1           0      -22.722610   -3.928422    0.986613
    133          1           0      -21.256409   -4.238081    0.146852
    134          1           0      -23.484219   -6.165798    0.372263
    135          1           0      -21.725896   -6.499323    0.393890
    136          1           0      -29.814322   -1.723886   -2.429367
    137          1           0      -30.253073   -2.532661   -0.849754
    138          1           0      -28.973145   -3.103840   -1.832826
    139          1           0      -31.705603   -0.802795   -0.285985
    140          1           0      -31.183777   -0.062218   -1.901397
    141          1           0      -32.455555    0.673530   -0.956909
    142          1           0      -27.088498    4.146026    2.484904
    143          1           0      -24.460726    5.246073    1.078239
    144          1           0      -27.486669    4.470378   -0.478367
    145          1           0      -26.540178    5.845958    0.043023
    146          1           0      -28.156081    5.417824    0.811075
    147          1           0      -23.664306    4.609562    3.649408
    148          1           0      -25.334642    4.472681    3.933614
    149          1           0      -25.508085    6.529009    4.542990
    150          1           0      -25.197049    7.037612    2.802323
    151          1           0      -23.907532    6.996575    3.994853
    152          1           0      -19.224212    2.148966    2.684088
    153          1           0      -19.986999    3.639945    2.004767
    154          1           0      -18.672524    2.824424    1.198287
    155          1           0      -20.129594   -2.458431    0.630350
    156          1           0      -18.110052   -4.030888   -3.037012
    157          1           0      -19.828111   -4.717721   -2.825735
    158          1           0      -18.510176   -5.415004   -1.943445
 ---------------------------------------------------------------------

 SCF Done:  E(RwB97XD) =  -4070.59063984     A.U. after   19 cycles

 Excitation energies and oscillator strengths:

 Excited State   1:      Singlet-A      1.6103 eV  769.93 nm  f=0.3622  <S**2>=0.000
     309 -> 316        0.16149
     311 -> 313        0.68855
     309 <- 316        0.10999
 This state for optimization and/or second-order correction.
 Total Energy, E(TD-HF/TD-DFT) =  -4070.53146121
 Copying the excited state density for this state as the 1-particle RhoCI density.

 Excited State   2:      Singlet-A      1.6549 eV  749.21 nm  f=0.3781  <S**2>=0.000
     310 -> 315        0.20543
     312 -> 314        0.67801
     310 <- 315        0.12142

 Excited State   3:      Singlet-A      2.2276 eV  556.58 nm  f=0.0766  <S**2>=0.000
     309 -> 313        0.61814
     311 -> 316       -0.32515

 Excited State   4:      Singlet-A      2.2347 eV  554.81 nm  f=0.0334  <S**2>=0.000
     310 -> 314        0.58750
     312 -> 315       -0.38608

 Excited State   5:      Singlet-A      3.3589 eV  369.13 nm  f=0.1111  <S**2>=0.000
     305 -> 313       -0.45937
     308 -> 313        0.33879
     308 -> 318        0.14051
     308 -> 321       -0.15565
     309 -> 313       -0.10180
     311 -> 316       -0.29867

 The electronic state is 1-A.
 Alpha  occ. eigenvalues --  -46.95630 -46.94400 -19.30538 -19.29196 -19.25203
 Alpha  occ. eigenvalues --  -19.24324 -19.24247 -19.24125 -19.23438 -19.22072
 Alpha  occ. eigenvalues --  -14.47049 -14.46721 -14.46178 -14.46107 -14.44561
 Alpha  occ. eigenvalues --  -14.44487 -14.44347 -14.43244 -10.43260 -10.42937
 Alpha  occ. eigenvalues --  -10.39562 -10.39507 -10.39220 -10.37503 -10.36041
 Alpha  occ. eigenvalues --  -10.35835 -10.35727 -10.35467 -10.34990 -10.34945
 Alpha  occ. eigenvalues --  -10.34930 -10.34922 -10.34742 -10.34644 -10.34506
 Alpha  occ. eigenvalues --  -10.34372 -10.34352 -10.34349 -10.34155 -10.33574
 Alpha  occ. eigenvalues --  -10.33474 -10.33391 -10.33223 -10.33044 -10.32932
 Alpha  occ. eigenvalues --  -10.32784 -10.32598 -10.32539 -10.32432 -10.32376
 Alpha  occ. eigenvalues --  -10.32332 -10.32275 -10.32227 -10.31943 -10.31858
 Alpha  occ. eigenvalues --  -10.31835 -10.31786 -10.31734 -10.31681 -10.31661
 Alpha  occ. eigenvalues --  -10.31650 -10.31552 -10.31528 -10.31373 -10.31257
 Alpha  occ. eigenvalues --  -10.31204 -10.31094 -10.31093 -10.30968 -10.30806
 Alpha  occ. eigenvalues --  -10.30773 -10.30687 -10.30620 -10.30360 -10.30291
 Alpha  occ. eigenvalues --  -10.30218 -10.30202 -10.30064 -10.30035 -10.29865
 Alpha  occ. eigenvalues --  -10.29848 -10.29601 -10.29412 -10.29180 -10.29179
 Alpha  occ. eigenvalues --  -10.27923  -3.21571  -3.20499  -1.95129  -1.94715
 Alpha  occ. eigenvalues --   -1.94517  -1.94100  -1.93612  -1.93503  -1.18203
 Alpha  occ. eigenvalues --   -1.17601  -1.12935  -1.11358  -1.10008  -1.09963
 Alpha  occ. eigenvalues --   -1.09613  -1.08831  -1.06808  -1.06309  -1.06012
 Alpha  occ. eigenvalues --   -1.05461  -1.04906  -1.04808  -1.03386  -1.02331
 Alpha  occ. eigenvalues --   -0.93857  -0.93562  -0.91242  -0.90864  -0.90835
 Alpha  occ. eigenvalues --   -0.90479  -0.90415  -0.89731  -0.89469  -0.88781
 Alpha  occ. eigenvalues --   -0.88626  -0.88626  -0.88222  -0.87978  -0.86272
 Alpha  occ. eigenvalues --   -0.86135  -0.85577  -0.84828  -0.84647  -0.84239
 Alpha  occ. eigenvalues --   -0.84100  -0.83797  -0.82892  -0.82671  -0.82093
 Alpha  occ. eigenvalues --   -0.81941  -0.80923  -0.80005  -0.79639  -0.79328
 Alpha  occ. eigenvalues --   -0.78876  -0.78398  -0.77900  -0.77680  -0.77170
 Alpha  occ. eigenvalues --   -0.76463  -0.74981  -0.74050  -0.73666  -0.73419
 Alpha  occ. eigenvalues --   -0.71542  -0.71326  -0.70945  -0.70495  -0.70271
 Alpha  occ. eigenvalues --   -0.69543  -0.69067  -0.68900  -0.68122  -0.67391
 Alpha  occ. eigenvalues --   -0.67355  -0.67095  -0.66661  -0.65895  -0.65745
 Alpha  occ. eigenvalues --   -0.65494  -0.64087  -0.63253  -0.62642  -0.61647
 Alpha  occ. eigenvalues --   -0.61449  -0.61097  -0.61008  -0.60684  -0.59911
 Alpha  occ. eigenvalues --   -0.59716  -0.59506  -0.59504  -0.59169  -0.58744
 Alpha  occ. eigenvalues --   -0.58742  -0.58136  -0.58113  -0.57799  -0.57078
 Alpha  occ. eigenvalues --   -0.56509  -0.56508  -0.56159  -0.56112  -0.55864
 Alpha  occ. eigenvalues --   -0.55607  -0.55584  -0.55423  -0.55179  -0.54727
 Alpha  occ. eigenvalues --   -0.54499  -0.54427  -0.54225  -0.54128  -0.53813
 Alpha  occ. eigenvalues --   -0.53715  -0.53629  -0.53357  -0.53335  -0.53125
 Alpha  occ. eigenvalues --   -0.53075  -0.52966  -0.52772  -0.52557  -0.52375
 Alpha  occ. eigenvalues --   -0.52019  -0.51877  -0.51527  -0.51513  -0.51440
 Alpha  occ. eigenvalues --   -0.51357  -0.51215  -0.50900  -0.50819  -0.50761
 Alpha  occ. eigenvalues --   -0.50694  -0.50411  -0.50239  -0.50050  -0.50037
 Alpha  occ. eigenvalues --   -0.50002  -0.49678  -0.49543  -0.49339  -0.49100
 Alpha  occ. eigenvalues --   -0.48838  -0.48764  -0.48763  -0.48457  -0.48126
 Alpha  occ. eigenvalues --   -0.48084  -0.47994  -0.47654  -0.47642  -0.47493
 Alpha  occ. eigenvalues --   -0.47395  -0.47117  -0.47096  -0.47076  -0.46869
 Alpha  occ. eigenvalues --   -0.46751  -0.46604  -0.46311  -0.46085  -0.45913
 Alpha  occ. eigenvalues --   -0.45895  -0.45823  -0.45398  -0.45382  -0.45290
 Alpha  occ. eigenvalues --   -0.45049  -0.44981  -0.44851  -0.44817  -0.44632
 Alpha  occ. eigenvalues --   -0.44468  -0.44457  -0.44215  -0.44207  -0.44082
 Alpha  occ. eigenvalues --   -0.44041  -0.43888  -0.43658  -0.43472  -0.43277
 Alpha  occ. eigenvalues --   -0.42940  -0.42806  -0.42760  -0.42236  -0.42065
 Alpha  occ. eigenvalues --   -0.41804  -0.41226  -0.41097  -0.40977  -0.40938
 Alpha  occ. eigenvalues --   -0.40447  -0.40424  -0.40085  -0.39878  -0.39336
 Alpha  occ. eigenvalues --   -0.39217  -0.38808  -0.38541  -0.38266  -0.38232
 Alpha  occ. eigenvalues --   -0.37788  -0.37775  -0.36465  -0.36291  -0.36122
 Alpha  occ. eigenvalues --   -0.35794  -0.35392  -0.34902  -0.33726  -0.33459
 Alpha  occ. eigenvalues --   -0.33149  -0.33048  -0.32577  -0.32434  -0.32303
 Alpha  occ. eigenvalues --   -0.32215  -0.31524  -0.31128  -0.26378  -0.25894
 Alpha  occ. eigenvalues --   -0.22560  -0.22202
 Alpha virt. eigenvalues --   -0.06902  -0.06220  -0.00223   0.00149   0.01854
 Alpha virt. eigenvalues --    0.03165   0.04273   0.04491   0.04659   0.06331
 Alpha virt. eigenvalues --    0.06723   0.07103   0.07717   0.07793   0.08502

 Mulliken charges:
               1
     1  Mg   0.954191
     2  C   -0.033246
     3  C   -0.083095
     4  C   -0.079695
     5  C   -0.082968
     6  N   -0.368489
     7  C   -0.053269
     8  C   -0.005063
     9  C   -0.142378
    10  C    0.044689
    11  C    0.037067
    12  C    0.030891
    13  C   -0.102344
    14  H    0.037326
    15  N   -0.471127
    16  C    0.144983
    17  C   -0.159876
    18  C   -0.079522
    19  C    0.169738
    20  C    0.104744
    21  C    0.036078
    22  O   -0.227578
    23  C    0.002024
    24  N   -0.386413
    25  C    0.091537
    26  C   -0.126945
    27  C   -0.015443
    28  C    0.025888
    29  C    0.031684
    30  C   -0.022231
    31  C   -0.061820
    32  N   -0.378001
    33  C    0.092235
    34  C   -0.180456
    35  C   -0.010849
    36  C    0.118990
    37  C    0.073289
    38  C    0.083828
    39  O   -0.250516
    40  C   -0.041203
    41  C    0.265153
    42  O   -0.260763
    43  O   -0.368592
    44  C    0.138629
    45  H    0.004101
    46  H   -0.041825
    47  H   -0.008975
    48  H    0.025770
    49  H    0.040001
    50  H    0.048696
    51  H    0.050489
    52  H    0.040799
    53  H    0.031504
    54  H    0.017645
    55  H    0.047092
    56  H    0.072080
    57  H    0.073559
    58  H    0.022229
    59  H    0.060940
    60  H    0.076680
    61  H    0.048857
    62  H    0.056610
    63  H    0.052203
    64  H    0.031492
    65  H    0.041487
    66  H    0.036508
    67  H    0.042371
    68  H    0.044464
    69  H    0.024539
    70  H    0.051157
    71  H    0.034932
    72  H    0.047433
    73  H    0.051634
    74  H    0.071757
    75  H    0.038725
    76  H    0.074325
    77  H    0.059739
    78  H    0.067150
    79  H    0.072746
    80  Mg   0.984987
    81  C   -0.029956
    82  C   -0.097601
    83  C   -0.087947
    84  C   -0.091665
    85  N   -0.320810
    86  C   -0.001184
    87  C   -0.052507
    88  C   -0.133795
    89  C    0.011217
    90  C    0.044515
    91  C   -0.023226
    92  C   -0.099792
    93  H    0.046648
    94  N   -0.499619
    95  C    0.214608
    96  C   -0.158508
    97  C   -0.076703
    98  C    0.175162
    99  C    0.073540
   100  C    0.037635
   101  O   -0.272523
   102  C    0.020806
   103  N   -0.349044
   104  C    0.045659
   105  C   -0.087832
   106  C   -0.049377
   107  C    0.040630
   108  C    0.013479
   109  C   -0.039899
   110  C   -0.032210
   111  N   -0.451937
   112  C    0.124960
   113  C   -0.194071
   114  C   -0.009012
   115  C    0.139216
   116  C    0.070651
   117  C    0.151180
   118  O   -0.214954
   119  C   -0.144533
   120  C    0.289358
   121  O   -0.219329
   122  O   -0.405870
   123  C    0.143361
   124  H   -0.011159
   125  H    0.021187
   126  H    0.001227
   127  H    0.028675
   128  H    0.029441
   129  H    0.028572
   130  H    0.059099
   131  H    0.036153
   132  H    0.041271
   133  H    0.036914
   134  H    0.058407
   135  H    0.059636
   136  H    0.054134
   137  H    0.057857
   138  H    0.036146
   139  H    0.065597
   140  H    0.039175
   141  H    0.055165
   142  H    0.050620
   143  H    0.044467
   144  H    0.052655
   145  H    0.038273
   146  H    0.049580
   147  H    0.034827
   148  H    0.019197
   149  H    0.041747
   150  H    0.039424
   151  H    0.036840
   152  H    0.060624
   153  H    0.027147
   154  H    0.060490
   155  H    0.091869
   156  H    0.068556
   157  H    0.050127
   158  H    0.052346
 Sum of Mulliken charges =  -0.00000

 Dipole moment (field-independent basis, Debye):
    X=              0.7402    Y=             -4.3195    Z=             -1.3130  Tot=              4.5749
 Quadrupole moment (field-independent basis, Debye-Ang):
   XX=           -176.7147   YY=           -484.1593   ZZ=           -490.1057
   XY=             33.9722   XZ=             -2.1718   YZ=             10.5739

 Normal termination of Gaussian 16 at Sat Sep 18 15:36:08 2021.
