 Gaussian 16, Revision A.03,
 Gaussian 16:  ES64L-G16RevA.03 25-Dec-2016

 --------------------------------
 #p wB97XD/Def2SVP td=(nstates=5)
 --------------------------------

 --------------------------------
 TDDFT excited states in gaussian
 --------------------------------
 Symbolic Z-matrix:
 Charge =  0 Multiplicity = 1

                         Standard orientation:
 ---------------------------------------------------------------------
 Center     Atomic      Atomic             Coordinates (Angstroms)
 Number     Number       Type             X           Y           Z
 ---------------------------------------------------------------------
      1         12           0      -21.045903    0.067678    0.078899
      2          6           0      -17.950744    1.316059   -0.975999
      3          6           0      -21.308620   -1.310787   -3.082032
      4          6           0      -23.836692   -1.455489    1.095493
      5          6           0      -20.192459    0.807987    3.387065
      6          7           0      -19.557545   -0.123412   -1.827982
      7          6           0      -18.426473    0.580640   -2.025112
      8          6           0      -17.807737    0.361503   -3.384807
      9          6           0      -19.092797   -0.238189   -4.072935
     10          6           0      -20.058141   -0.647147   -2.965145
     11          6           0      -19.779665    0.844787   -4.947104
     12          6           0      -16.523306   -0.471291   -3.286473
     13          6           0      -16.453621   -1.662100   -2.307903
     14          1           0      -15.924567   -2.969506   -2.885551
     15          7           0      -22.378418   -1.179866   -0.844568
     16          6           0      -22.357637   -1.515870   -2.172269
     17          6           0      -23.694985   -1.977591   -2.566524
     18          6           0      -24.437289   -2.190217   -1.336632
     19          6           0      -23.544282   -1.580355   -0.304626
     20          6           0      -24.025207   -2.498023   -4.017663
     21          6           0      -25.799384   -2.873300   -1.191146
     22          8           0      -26.435320   -3.180240   -2.160749
     23          6           0      -26.372792   -3.122511    0.173981
     24          7           0      -21.766908   -0.447588    2.063894
     25          6           0      -23.045425   -1.003799    2.254595
     26          6           0      -23.460213   -1.092944    3.784070
     27          6           0      -22.264165   -0.283589    4.479057
     28          6           0      -21.350711    0.096517    3.225242
     29          6           0      -24.923582   -0.619147    4.259337
     30          6           0      -21.464324   -1.014261    5.651812
     31          6           0      -20.983624    0.050375    6.757020
     32          7           0      -19.436420    0.947012    1.080793
     33          6           0      -19.279042    1.259037    2.415883
     34          6           0      -18.044719    2.015501    2.587584
     35          6           0      -17.472754    2.152604    1.296456
     36          6           0      -18.330416    1.406311    0.410114
     37          6           0      -17.571559    2.686520    3.850412
     38          6           0      -16.324628    2.621933    0.454222
     39          8           0      -15.278436    3.139451    0.776340
     40          6           0      -16.662239    2.130255   -1.017231
     41          6           0      -16.782687    3.366507   -1.865309
     42          8           0      -15.800952    4.029433   -2.284267
     43          8           0      -18.109474    3.558135   -2.222632
     44          6           0      -18.340070    4.557747   -3.211377
     45          1           0      -21.436708   -1.669099   -4.105669
     46          1           0      -24.807022   -1.735058    1.511679
     47          1           0      -20.038278    1.205667    4.392445
     48          1           0      -17.619913    1.303636   -3.899447
     49          1           0      -18.968251   -1.108986   -4.715171
     50          1           0      -20.848595    0.637799   -4.890214
     51          1           0      -19.352197    0.855996   -5.948728
     52          1           0      -19.780142    1.880874   -4.607086
     53          1           0      -15.761261    0.211391   -2.911795
     54          1           0      -16.262157   -0.808496   -4.289638
     55          1           0      -17.460020   -1.888173   -1.956418
     56          1           0      -15.771443   -1.396026   -1.500989
     57          1           0      -23.665141   -3.502560   -4.241491
     58          1           0      -23.621172   -1.803169   -4.753969
     59          1           0      -25.076602   -2.486426   -4.302641
     60          1           0      -27.265239   -3.747885    0.133831
     61          1           0      -26.626305   -2.205944    0.707026
     62          1           0      -25.602729   -3.748491    0.625596
     63          1           0      -23.349263   -2.166251    3.933709
     64          1           0      -22.618073    0.663566    4.885157
     65          1           0      -25.574845   -1.490621    4.203366
     66          1           0      -25.304421    0.189102    3.635613
     67          1           0      -24.846992   -0.236022    5.277114
     68          1           0      -20.519920   -1.419226    5.288385
     69          1           0      -22.050232   -1.828248    6.079420
     70          1           0      -19.896444    0.069431    6.834104
     71          1           0      -21.393775   -0.226294    7.727832
     72          1           0      -21.176544    1.109592    6.590425
     73          1           0      -17.460129    1.925440    4.621967
     74          1           0      -18.316986    3.410157    4.180943
     75          1           0      -16.596805    3.158820    3.729503
     76          1           0      -15.747130    1.635517   -1.341909
     77          1           0      -19.395195    4.555430   -3.483925
     78          1           0      -17.645848    4.456008   -4.045706
     79          1           0      -18.226107    5.564565   -2.809683
     80         12           0       20.151771   -0.917990    0.050770
     81          6           0       21.489888    2.216047   -0.212265
     82          6           0       17.260938    0.321649    1.150174
     83          6           0       19.141628   -3.991446    0.445767
     84          6           0       23.447754   -2.135235   -0.547026
     85          7           0       19.488821    1.074035    0.600687
     86          6           0       20.117955    2.187659    0.148971
     87          6           0       19.200365    3.379331    0.124062
     88          6           0       17.923939    2.785989    0.844807
     89          6           0       18.251960    1.313059    0.959071
     90          6           0       17.557285    3.475573    2.180846
     91          6           0       18.977370    4.034572   -1.372040
     92          6           0       19.089259    5.558622   -1.530147
     93          1           0       18.829650    6.422107   -0.255825
     94          7           0       18.455349   -1.689238    0.518178
     95          6           0       17.333436   -1.064986    0.962386
     96          6           0       16.295900   -1.980728    1.370018
     97          6           0       16.744398   -3.207393    0.983123
     98          6           0       18.206436   -3.003125    0.741140
     99          6           0       15.094031   -1.392614    2.086399
    100          6           0       16.005262   -4.559979    1.011557
    101          8           0       16.509743   -5.614416    0.702716
    102          6           0       14.589231   -4.468221    1.498401
    103          7           0       21.236339   -2.781908    0.121396
    104          6           0       20.502042   -3.907439    0.180987
    105          6           0       21.379518   -5.144836   -0.032636
    106          6           0       22.682163   -4.544533   -0.662336
    107          6           0       22.475145   -3.053294   -0.326777
    108          6           0       21.665219   -6.092076    1.209475
    109          6           0       22.848789   -4.713331   -2.219535
    110          6           0       21.846748   -4.180978   -3.209866
    111          7           0       22.106919   -0.206903   -0.399829
    112          6           0       23.373965   -0.784624   -0.530126
    113          6           0       24.408841    0.229417   -0.769142
    114          6           0       23.705387    1.438468   -0.661504
    115          6           0       22.336785    1.083509   -0.444397
    116          6           0       25.861779    0.020869   -1.111197
    117          6           0       23.805030    2.825714   -0.690736
    118          8           0       24.747606    3.592562   -0.811541
    119          6           0       22.361007    3.388593   -0.640539
    120          6           0       22.472905    4.464837    0.370536
    121          8           0       22.474762    4.300598    1.592930
    122          8           0       22.691738    5.675527   -0.220268
    123          6           0       23.125379    6.810604    0.600503
    124          1           0       16.277343    0.765908    1.317741
    125          1           0       18.861769   -5.044614    0.504860
    126          1           0       24.389825   -2.647473   -0.756970
    127          1           0       19.561901    4.156626    0.797354
    128          1           0       17.077546    2.840100    0.160468
    129          1           0       17.870133    2.834924    3.005252
    130          1           0       16.473753    3.585200    2.226302
    131          1           0       18.092648    4.425000    2.195652
    132          1           0       17.976219    3.717145   -1.663906
    133          1           0       19.716260    3.646175   -2.072247
    134          1           0       18.320589    5.923486   -2.210892
    135          1           0       20.036186    5.811123   -2.007149
    136          1           0       15.315677   -0.890366    3.028187
    137          1           0       14.337421   -2.044258    2.523030
    138          1           0       14.669299   -0.772563    1.296918
    139          1           0       14.021521   -3.756998    0.898894
    140          1           0       14.732743   -4.235192    2.553282
    141          1           0       13.948373   -5.345666    1.419559
    142          1           0       20.770807   -5.726186   -0.726086
    143          1           0       23.539753   -4.891209   -0.085320
    144          1           0       21.151199   -5.702533    2.087862
    145          1           0       22.714466   -6.043662    1.498314
    146          1           0       21.430864   -7.149672    1.079109
    147          1           0       22.921981   -5.799834   -2.273480
    148          1           0       23.783153   -4.285953   -2.582021
    149          1           0       20.959999   -3.832148   -2.679015
    150          1           0       21.515828   -4.972909   -3.881586
    151          1           0       22.153736   -3.312929   -3.792919
    152          1           0       26.523724    0.271057   -0.283326
    153          1           0       26.123330    0.616888   -1.985692
    154          1           0       25.927370   -1.059249   -1.244511
    155          1           0       22.015733    3.711314   -1.622921
    156          1           0       23.682556    7.548255    0.021779
    157          1           0       23.596105    6.487407    1.527717
    158          1           0       22.287783    7.360527    1.029203
 ---------------------------------------------------------------------

 SCF Done:  E(RwB97XD) =  -4070.59995561     A.U. after   20 cycles

 Excitation energies and oscillator strengths:

 Excited State   1:      Singlet-A      1.6942 eV  731.83 nm  f=0.3689  <S**2>=0.000
     309 -> 315       -0.19915
     311 -> 313        0.67847
     309 <- 315       -0.11859
 This state for optimization and/or second-order correction.
 Total Energy, E(TD-HF/TD-DFT) =  -4070.53769642
 Copying the excited state density for this state as the 1-particle RhoCI density.

 Excited State   2:      Singlet-A      1.7220 eV  720.00 nm  f=0.3641  <S**2>=0.000
     310 -> 316        0.19582
     312 -> 314        0.67965
     310 <- 316        0.11414

 Excited State   3:      Singlet-A      2.1842 eV  567.65 nm  f=0.1017  <S**2>=0.000
     309 -> 313        0.63338
     311 -> 315        0.30088

 Excited State   4:      Singlet-A      2.2244 eV  557.39 nm  f=0.0565  <S**2>=0.000
     310 -> 314        0.61468
     312 -> 316       -0.33869

 Excited State   5:      Singlet-A      3.4334 eV  361.11 nm  f=0.6417  <S**2>=0.000
     308 -> 314        0.11344
     310 -> 314        0.32260
     312 -> 316        0.60141
     310 <- 314       -0.11172

 The electronic state is 1-A.
 Alpha  occ. eigenvalues --  -46.96781 -46.94265 -19.31290 -19.29082 -19.25031
 Alpha  occ. eigenvalues --  -19.24946 -19.24613 -19.24112 -19.23237 -19.22644
 Alpha  occ. eigenvalues --  -14.46880 -14.46453 -14.46244 -14.45596 -14.45171
 Alpha  occ. eigenvalues --  -14.44606 -14.44083 -14.43284 -10.43893 -10.42055
 Alpha  occ. eigenvalues --  -10.39915 -10.39851 -10.39324 -10.37480 -10.36994
 Alpha  occ. eigenvalues --  -10.35990 -10.35747 -10.35224 -10.35000 -10.34901
 Alpha  occ. eigenvalues --  -10.34599 -10.34581 -10.34411 -10.34347 -10.34255
 Alpha  occ. eigenvalues --  -10.34238 -10.34197 -10.33994 -10.33840 -10.33597
 Alpha  occ. eigenvalues --  -10.33290 -10.33077 -10.33057 -10.32949 -10.32865
 Alpha  occ. eigenvalues --  -10.32633 -10.32626 -10.32546 -10.32528 -10.32490
 Alpha  occ. eigenvalues --  -10.32205 -10.32182 -10.32079 -10.31974 -10.31953
 Alpha  occ. eigenvalues --  -10.31945 -10.31867 -10.31854 -10.31850 -10.31769
 Alpha  occ. eigenvalues --  -10.31700 -10.31679 -10.31661 -10.31609 -10.31567
 Alpha  occ. eigenvalues --  -10.31492 -10.31347 -10.31316 -10.30862 -10.30535
 Alpha  occ. eigenvalues --  -10.30370 -10.30370 -10.30318 -10.30193 -10.30152
 Alpha  occ. eigenvalues --  -10.30151 -10.30151 -10.29973 -10.29871 -10.29860
 Alpha  occ. eigenvalues --  -10.29827 -10.29702 -10.29579 -10.28976 -10.28968
 Alpha  occ. eigenvalues --  -10.28015  -3.22625  -3.20524  -1.96169  -1.95759
 Alpha  occ. eigenvalues --   -1.95575  -1.94086  -1.93669  -1.93534  -1.18672
 Alpha  occ. eigenvalues --   -1.16961  -1.13787  -1.13737  -1.12927  -1.11171
 Alpha  occ. eigenvalues --   -1.09292  -1.08056  -1.07603  -1.06838  -1.06715
 Alpha  occ. eigenvalues --   -1.06070  -1.06002  -1.04991  -1.04973  -1.03945
 Alpha  occ. eigenvalues --   -0.94508  -0.94270  -0.91566  -0.90938  -0.90338
 Alpha  occ. eigenvalues --   -0.90313  -0.89851  -0.89813  -0.89626  -0.89353
 Alpha  occ. eigenvalues --   -0.89303  -0.88445  -0.88020  -0.87708  -0.86802
 Alpha  occ. eigenvalues --   -0.86248  -0.85436  -0.85288  -0.84654  -0.84595
 Alpha  occ. eigenvalues --   -0.84457  -0.83844  -0.82951  -0.82792  -0.82443
 Alpha  occ. eigenvalues --   -0.82384  -0.80968  -0.79535  -0.79338  -0.79262
 Alpha  occ. eigenvalues --   -0.78854  -0.78674  -0.78363  -0.77588  -0.77321
 Alpha  occ. eigenvalues --   -0.77100  -0.74833  -0.74575  -0.74080  -0.73626
 Alpha  occ. eigenvalues --   -0.71900  -0.71521  -0.71376  -0.70970  -0.70265
 Alpha  occ. eigenvalues --   -0.70083  -0.69274  -0.69246  -0.67865  -0.67303
 Alpha  occ. eigenvalues --   -0.66893  -0.66885  -0.66868  -0.66708  -0.66662
 Alpha  occ. eigenvalues --   -0.65735  -0.65708  -0.63656  -0.63118  -0.62119
 Alpha  occ. eigenvalues --   -0.61310  -0.61250  -0.61226  -0.60983  -0.60195
 Alpha  occ. eigenvalues --   -0.59836  -0.59757  -0.59752  -0.59490  -0.59377
 Alpha  occ. eigenvalues --   -0.58306  -0.58286  -0.58062  -0.57518  -0.57194
 Alpha  occ. eigenvalues --   -0.57049  -0.57046  -0.56549  -0.56356  -0.56252
 Alpha  occ. eigenvalues --   -0.55696  -0.55552  -0.55178  -0.55079  -0.55055
 Alpha  occ. eigenvalues --   -0.54802  -0.54552  -0.54518  -0.54293  -0.54139
 Alpha  occ. eigenvalues --   -0.53892  -0.53663  -0.53560  -0.53392  -0.53153
 Alpha  occ. eigenvalues --   -0.53070  -0.52687  -0.52518  -0.52494  -0.52376
 Alpha  occ. eigenvalues --   -0.52095  -0.52051  -0.51945  -0.51721  -0.51538
 Alpha  occ. eigenvalues --   -0.51451  -0.51215  -0.50970  -0.50928  -0.50678
 Alpha  occ. eigenvalues --   -0.50632  -0.50447  -0.50339  -0.49975  -0.49901
 Alpha  occ. eigenvalues --   -0.49674  -0.49548  -0.49310  -0.49214  -0.49054
 Alpha  occ. eigenvalues --   -0.48921  -0.48705  -0.48669  -0.48536  -0.48392
 Alpha  occ. eigenvalues --   -0.48300  -0.48047  -0.47661  -0.47580  -0.47495
 Alpha  occ. eigenvalues --   -0.47361  -0.47289  -0.47154  -0.47104  -0.46872
 Alpha  occ. eigenvalues --   -0.46727  -0.46411  -0.46219  -0.46034  -0.45935
 Alpha  occ. eigenvalues --   -0.45851  -0.45764  -0.45724  -0.45642  -0.45465
 Alpha  occ. eigenvalues --   -0.45428  -0.45271  -0.45032  -0.44971  -0.44799
 Alpha  occ. eigenvalues --   -0.44757  -0.44742  -0.44332  -0.44284  -0.44210
 Alpha  occ. eigenvalues --   -0.44027  -0.43967  -0.43741  -0.43673  -0.43468
 Alpha  occ. eigenvalues --   -0.43164  -0.43114  -0.42944  -0.42650  -0.42409
 Alpha  occ. eigenvalues --   -0.42306  -0.41860  -0.41451  -0.41074  -0.41045
 Alpha  occ. eigenvalues --   -0.40896  -0.40342  -0.40119  -0.40056  -0.39392
 Alpha  occ. eigenvalues --   -0.39274  -0.38985  -0.38835  -0.38379  -0.38286
 Alpha  occ. eigenvalues --   -0.38266  -0.37101  -0.36718  -0.36445  -0.36301
 Alpha  occ. eigenvalues --   -0.35428  -0.35398  -0.34909  -0.34597  -0.33598
 Alpha  occ. eigenvalues --   -0.33366  -0.33264  -0.32971  -0.32891  -0.32854
 Alpha  occ. eigenvalues --   -0.32024  -0.31900  -0.31821  -0.25997  -0.25723
 Alpha  occ. eigenvalues --   -0.23254  -0.22391
 Alpha virt. eigenvalues --   -0.07027  -0.06126  -0.00216   0.00194   0.02142
 Alpha virt. eigenvalues --    0.02339   0.03889   0.04105   0.04622   0.05914
 Alpha virt. eigenvalues --    0.06615   0.07613   0.07860   0.08529   0.08602

 Mulliken charges:
               1
     1  Mg   0.955004
     2  C    0.126697
     3  C   -0.086865
     4  C   -0.102671
     5  C   -0.086806
     6  N   -0.280373
     7  C   -0.106186
     8  C    0.024648
     9  C   -0.115310
    10  C    0.019687
    11  C    0.018001
    12  C    0.021141
    13  C   -0.133104
    14  H    0.032658
    15  N   -0.458993
    16  C    0.175420
    17  C   -0.148391
    18  C   -0.099811
    19  C    0.211633
    20  C    0.047860
    21  C    0.038256
    22  O   -0.200577
    23  C   -0.013000
    24  N   -0.368007
    25  C    0.007602
    26  C   -0.062987
    27  C   -0.084134
    28  C    0.069846
    29  C    0.005026
    30  C   -0.009916
    31  C   -0.093974
    32  N   -0.439645
    33  C    0.138835
    34  C   -0.213579
    35  C   -0.016311
    36  C    0.078889
    37  C    0.071705
    38  C    0.139918
    39  O   -0.173531
    40  C   -0.211043
    41  C    0.295946
    42  O   -0.266990
    43  O   -0.352070
    44  C    0.141290
    45  H    0.007228
    46  H   -0.025052
    47  H   -0.020927
    48  H    0.029475
    49  H    0.028328
    50  H    0.024594
    51  H    0.050165
    52  H    0.027457
    53  H    0.036923
    54  H    0.046168
    55  H    0.070720
    56  H    0.060429
    57  H    0.063299
    58  H    0.025826
    59  H    0.056115
    60  H    0.047048
    61  H    0.080208
    62  H    0.053764
    63  H    0.053711
    64  H    0.040285
    65  H    0.049462
    66  H    0.047524
    67  H    0.050499
    68  H    0.049703
    69  H    0.044002
    70  H    0.038375
    71  H    0.044461
    72  H    0.040028
    73  H    0.037426
    74  H    0.051985
    75  H    0.058823
    76  H    0.085044
    77  H    0.049560
    78  H    0.054950
    79  H    0.046609
    80  Mg   0.992985
    81  C    0.011047
    82  C   -0.117715
    83  C   -0.080903
    84  C   -0.116917
    85  N   -0.330626
    86  C   -0.016843
    87  C   -0.037193
    88  C   -0.154013
    89  C    0.076210
    90  C    0.047321
    91  C    0.007238
    92  C   -0.126082
    93  H    0.026455
    94  N   -0.509714
    95  C    0.179970
    96  C   -0.131401
    97  C   -0.119675
    98  C    0.182847
    99  C    0.046463
   100  C    0.071688
   101  O   -0.201908
   102  C   -0.025297
   103  N   -0.321288
   104  C    0.020980
   105  C   -0.086064
   106  C   -0.050115
   107  C   -0.008399
   108  C    0.024219
   109  C   -0.010724
   110  C   -0.046777
   111  N   -0.398759
   112  C    0.159857
   113  C   -0.187054
   114  C    0.034840
   115  C    0.091360
   116  C    0.104722
   117  C    0.050683
   118  O   -0.214319
   119  C   -0.074934
   120  C    0.264761
   121  O   -0.268229
   122  O   -0.355860
   123  C    0.151813
   124  H   -0.008371
   125  H    0.016473
   126  H   -0.010571
   127  H    0.043135
   128  H    0.031943
   129  H    0.045715
   130  H    0.038663
   131  H    0.045934
   132  H    0.033269
   133  H    0.041158
   134  H    0.049156
   135  H    0.062471
   136  H    0.060506
   137  H    0.029761
   138  H    0.066584
   139  H    0.061579
   140  H    0.069431
   141  H    0.048080
   142  H    0.035043
   143  H    0.029168
   144  H    0.038308
   145  H    0.025889
   146  H    0.050213
   147  H    0.032239
   148  H    0.032262
   149  H    0.028556
   150  H    0.041146
   151  H    0.043828
   152  H    0.059407
   153  H    0.063913
   154  H    0.019660
   155  H    0.072674
   156  H    0.061535
   157  H    0.057148
   158  H    0.029442
 Sum of Mulliken charges =  -0.00000

 Dipole moment (field-independent basis, Debye):
    X=            -10.4248    Y=             -1.8749    Z=              0.6042  Tot=             10.6092
 Quadrupole moment (field-independent basis, Debye-Ang):
   XX=           -551.9199   YY=           -521.2834   ZZ=           -472.5473
   XY=            -69.2181   XZ=            -83.1603   YZ=            -11.8034

 Normal termination of Gaussian 16 at Sun Sep 19 17:41:52 2021.
