 Gaussian 16, Revision A.03,
 Gaussian 16:  ES64L-G16RevA.03 25-Dec-2016

 -----------------------------------
 #p cam-b3lyp/Def2SVP td=(nstates=5)
 -----------------------------------

 --------------------------------
 TDDFT excited states in gaussian
 --------------------------------
 Symbolic Z-matrix:
 Charge =  0 Multiplicity = 1

                         Standard orientation:
 ---------------------------------------------------------------------
 Center     Atomic      Atomic             Coordinates (Angstroms)
 Number     Number       Type             X           Y           Z
 ---------------------------------------------------------------------
      1         12           0        4.783763    0.192334    0.455560
      2          6           0        4.828391   -2.966892   -1.226556
      3          6           0        5.898654    1.588022   -2.451696
      4          6           0        5.186226    2.909025    2.041194
      5          6           0        4.777542   -1.573972    3.459854
      6          7           0        5.263549   -0.682282   -1.520673
      7          6           0        5.180908   -1.897596   -2.052984
      8          6           0        5.430906   -1.916870   -3.590678
      9          6           0        6.292103   -0.581590   -3.722454
     10          6           0        5.762458    0.169340   -2.513526
     11          6           0        7.790762   -0.803184   -3.545198
     12          6           0        4.100196   -1.823586   -4.410581
     13          6           0        4.224637   -2.162336   -5.898908
     14          1           0        3.123460   -2.851265   -6.554754
     15          7           0        4.971719    2.045016   -0.204054
     16          6           0        5.426506    2.429177   -1.420966
     17          6           0        5.376613    3.907067   -1.426799
     18          6           0        5.035654    4.356277   -0.048375
     19          6           0        5.077175    3.106339    0.666683
     20          6           0        5.589043    4.732670   -2.658466
     21          6           0        4.732444    5.700403    0.534308
     22          8           0        4.690480    5.900898    1.796297
     23          6           0        4.571005    6.810004   -0.422648
     24          7           0        5.179336    0.621554    2.459788
     25          6           0        5.248184    1.884620    2.894424
     26          6           0        5.256351    1.946666    4.393097
     27          6           0        4.932356    0.467044    4.898568
     28          6           0        4.871784   -0.243913    3.524108
     29          6           0        6.563510    2.430733    5.035768
     30          6           0        3.735190    0.301491    5.868003
     31          6           0        2.443411    0.613754    5.146271
     32          7           0        4.621672   -1.889279    1.048568
     33          6           0        4.665333   -2.399944    2.353937
     34          6           0        4.625313   -3.869794    2.244357
     35          6           0        4.577566   -4.114077    0.873266
     36          6           0        4.613643   -2.876130    0.170074
     37          6           0        4.693524   -4.788475    3.328703
     38          6           0        4.529321   -5.133772   -0.161989
     39          8           0        4.388892   -6.357593   -0.167853
     40          6           0        4.812691   -4.436740   -1.565440
     41          6           0        3.769501   -4.923983   -2.533768
     42          8           0        2.568703   -4.616758   -2.388642
     43          8           0        4.373476   -5.470240   -3.600239
     44          6           0        3.394950   -5.947508   -4.613579
     45          1           0        6.468757    2.097988   -3.230708
     46          1           0        5.215520    3.826724    2.632302
     47          1           0        4.687143   -2.188607    4.357354
     48          1           0        6.009427   -2.769616   -3.946432
     49          1           0        6.061180   -0.037081   -4.637826
     50          1           0        8.007986   -1.823311   -3.228853
     51          1           0        8.101417   -0.092673   -2.778934
     52          1           0        8.333055   -0.525035   -4.449260
     53          1           0        3.794948   -0.779713   -4.482790
     54          1           0        3.326281   -2.447616   -3.962285
     55          1           0        5.170240   -2.659601   -6.116786
     56          1           0        4.274422   -1.228371   -6.458757
     57          1           0        5.984165    4.134320   -3.478466
     58          1           0        6.384326    5.442740   -2.432559
     59          1           0        4.687843    5.271188   -2.952012
     60          1           0        5.485361    6.917571   -1.006543
     61          1           0        4.270376    7.674867    0.167676
     62          1           0        3.783120    6.553245   -1.131352
     63          1           0        4.488201    2.625889    4.760557
     64          1           0        5.772183    0.025092    5.435266
     65          1           0        6.437755    3.298541    5.683688
     66          1           0        7.274867    2.638837    4.237048
     67          1           0        7.097836    1.674510    5.610259
     68          1           0        3.817915    1.004493    6.696189
     69          1           0        3.658549   -0.700642    6.290031
     70          1           0        2.383907    1.699530    5.212464
     71          1           0        1.600496    0.144822    5.655003
     72          1           0        2.505353    0.354655    4.089145
     73          1           0        3.944537   -5.554252    3.127278
     74          1           0        4.506414   -4.292053    4.280627
     75          1           0        5.722081   -5.136334    3.234248
     76          1           0        5.818164   -4.731307   -1.864398
     77          1           0        3.605778   -7.002067   -4.791597
     78          1           0        3.469798   -5.266404   -5.461459
     79          1           0        2.353917   -5.997122   -4.292447
     80         12           0       -4.185563    0.865671    0.052047
     81          6           0       -6.911364   -1.462318    0.223816
     82          6           0       -6.210661    2.868997   -1.824190
     83          6           0       -1.672655    2.723543   -0.496667
     84          6           0       -2.069611   -1.760309    0.931056
     85          7           0       -6.271579    0.625361   -0.642954
     86          6           0       -7.228628   -0.272683   -0.464321
     87          6           0       -8.624230    0.162084   -0.986676
     88          6           0       -8.147371    1.234910   -2.082361
     89          6           0       -6.807444    1.633482   -1.467198
     90          6           0       -7.882858    0.623319   -3.448122
     91          6           0       -9.498548    0.832119    0.130749
     92          6           0      -10.977566    1.000202   -0.224269
     93          1           0      -11.969534    0.849362    0.836728
     94          7           0       -4.091285    2.746529   -0.574099
     95          6           0       -5.012282    3.407532   -1.306317
     96          6           0       -4.463148    4.755160   -1.521979
     97          6           0       -3.070580    4.783638   -0.997897
     98          6           0       -2.879435    3.382496   -0.681130
     99          6           0       -5.272107    5.880880   -2.097963
    100          6           0       -2.071206    5.886917   -0.824044
    101          8           0       -0.838137    5.644869   -0.571474
    102          6           0       -2.559175    7.255179   -1.050430
    103          7           0       -2.141739    0.490178   -0.012509
    104          6           0       -1.262100    1.485896   -0.219197
    105          6           0        0.151927    1.029104    0.049614
    106          6           0        0.016469   -0.418332    0.716066
    107          6           0       -1.515753   -0.593322    0.631839
    108          6           0        1.066767    0.943078   -1.171878
    109          6           0        0.709969   -0.628214    2.089996
    110          6           0        0.020814    0.202740    3.148278
    111          7           0       -4.431977   -1.186816    0.680241
    112          6           0       -3.411232   -2.117582    0.973236
    113          6           0       -4.067732   -3.413368    1.242288
    114          6           0       -5.434120   -3.149972    1.063195
    115          6           0       -5.614772   -1.791287    0.687909
    116          6           0       -3.403881   -4.633756    1.552235
    117          6           0       -6.763911   -3.715032    1.095921
    118          8           0       -7.239261   -4.798678    1.432796
    119          6           0       -7.769549   -2.679436    0.430616
    120          6           0       -8.965670   -2.548217    1.333160
    121          8           0       -8.849729   -2.053454    2.468229
    122          8           0      -10.079731   -2.825189    0.631356
    123          6           0      -11.293813   -2.697762    1.480818
    124          1           0       -6.681236    3.465737   -2.606069
    125          1           0       -0.778992    3.348048   -0.566170
    126          1           0       -1.486795   -2.603643    1.307624
    127          1           0       -9.196902   -0.625296   -1.461908
    128          1           0       -8.819451    2.088378   -2.118099
    129          1           0       -7.945652   -0.454510   -3.425916
    130          1           0       -6.884900    0.938565   -3.723321
    131          1           0       -8.553364    1.060827   -4.193336
    132          1           0       -9.207970    1.886000    0.228967
    133          1           0       -9.407601    0.298563    1.056846
    134          1           0      -11.260702    0.406997   -1.102267
    135          1           0      -11.144605    2.034570   -0.534442
    136          1           0       -6.207474    5.518086   -2.541669
    137          1           0       -4.705879    6.280036   -2.946455
    138          1           0       -5.446278    6.684901   -1.379716
    139          1           0       -2.951776    7.335953   -2.061271
    140          1           0       -1.724488    7.909636   -0.791875
    141          1           0       -3.397778    7.444422   -0.371055
    142          1           0        0.646495    1.692763    0.748222
    143          1           0        0.457525   -1.201630    0.082243
    144          1           0        1.983589    1.554644   -1.074469
    145          1           0        0.500803    1.242523   -2.043984
    146          1           0        1.387545   -0.062461   -1.438711
    147          1           0        1.745377   -0.281285    2.048497
    148          1           0        0.730193   -1.664705    2.409766
    149          1           0        0.479802    1.188342    3.025802
    150          1           0        0.214238   -0.202324    4.139505
    151          1           0       -1.048584    0.307903    2.931503
    152          1           0       -3.956818   -5.092187    2.361307
    153          1           0       -2.364990   -4.462699    1.826510
    154          1           0       -3.495398   -5.154113    0.595100
    155          1           0       -8.038791   -3.069227   -0.551807
    156          1           0      -11.827484   -3.651303    1.420471
    157          1           0      -11.823794   -1.799656    1.111649
    158          1           0      -11.149302   -2.603623    2.550728
 ---------------------------------------------------------------------

 SCF Done:  E(RCAM-B3LYP) =  -4069.81074612     A.U. after   19 cycles

 Excitation energies and oscillator strengths:

 Excited State   1:      Singlet-A      1.6403 eV  755.87 nm  f=0.0012  <S**2>=0.000
     309 -> 315       -0.11489
     310 -> 316        0.11759
     311 -> 313       -0.47833
     312 -> 314        0.49433
 This state for optimization and/or second-order correction.
 Total Energy, E(TD-HF/TD-DFT) =  -4069.75046651
 Copying the excited state density for this state as the 1-particle RhoCI density.

 Excited State   2:      Singlet-A      1.7051 eV  727.14 nm  f=0.6842  <S**2>=0.000
     309 -> 315        0.13104
     310 -> 316        0.12456
     311 -> 313        0.49147
     312 -> 314        0.47549

 Excited State   3:      Singlet-A      2.1824 eV  568.11 nm  f=0.1128  <S**2>=0.000
     310 -> 314        0.64025
     312 -> 316       -0.26805

 Excited State   4:      Singlet-A      2.1974 eV  564.23 nm  f=0.0905  <S**2>=0.000
     309 -> 313        0.63621
     311 -> 315       -0.27767

 Excited State   5:      Singlet-A      2.3254 eV  533.17 nm  f=0.0003  <S**2>=0.000
     312 -> 313        0.70423

 The electronic state is 1-A.
 Alpha  occ. eigenvalues --  -46.87926 -46.87428 -19.26405 -19.26190 -19.19178
 Alpha  occ. eigenvalues --  -19.18992 -19.18649 -19.18576 -19.18254 -19.17839
 Alpha  occ. eigenvalues --  -14.42549 -14.42269 -14.41562 -14.41116 -14.39504
 Alpha  occ. eigenvalues --  -14.39130 -14.38716 -14.38357 -10.39227 -10.38917
 Alpha  occ. eigenvalues --  -10.35273 -10.35260 -10.34482 -10.34015 -10.31771
 Alpha  occ. eigenvalues --  -10.31618 -10.31530 -10.31070 -10.30982 -10.30836
 Alpha  occ. eigenvalues --  -10.30696 -10.30604 -10.30277 -10.30148 -10.30105
 Alpha  occ. eigenvalues --  -10.30038 -10.29889 -10.29685 -10.29647 -10.29319
 Alpha  occ. eigenvalues --  -10.29207 -10.29158 -10.28838 -10.28620 -10.28548
 Alpha  occ. eigenvalues --  -10.28527 -10.28450 -10.28203 -10.28198 -10.27960
 Alpha  occ. eigenvalues --  -10.27861 -10.27824 -10.27771 -10.27610 -10.27560
 Alpha  occ. eigenvalues --  -10.27507 -10.27507 -10.27442 -10.27400 -10.27316
 Alpha  occ. eigenvalues --  -10.27262 -10.27258 -10.27245 -10.27188 -10.27157
 Alpha  occ. eigenvalues --  -10.26849 -10.26815 -10.26542 -10.26336 -10.26305
 Alpha  occ. eigenvalues --  -10.26187 -10.26123 -10.26041 -10.25939 -10.25895
 Alpha  occ. eigenvalues --  -10.25860 -10.25619 -10.25464 -10.25435 -10.25301
 Alpha  occ. eigenvalues --  -10.24916 -10.24866 -10.24749 -10.24638 -10.24472
 Alpha  occ. eigenvalues --  -10.24211  -3.16645  -3.16178  -1.91530  -1.91113
 Alpha  occ. eigenvalues --   -1.91060  -1.90956  -1.90649  -1.90486  -1.16758
 Alpha  occ. eigenvalues --   -1.16482  -1.08721  -1.08447  -1.07036  -1.06835
 Alpha  occ. eigenvalues --   -1.06791  -1.06776  -1.04676  -1.04275  -1.03856
 Alpha  occ. eigenvalues --   -1.03431  -1.03330  -1.02796  -1.02509  -1.01877
 Alpha  occ. eigenvalues --   -0.92071  -0.91762  -0.89609  -0.89280  -0.89230
 Alpha  occ. eigenvalues --   -0.88964  -0.88366  -0.88003  -0.87958  -0.87760
 Alpha  occ. eigenvalues --   -0.87517  -0.87449  -0.87224  -0.86937  -0.85053
 Alpha  occ. eigenvalues --   -0.84811  -0.84056  -0.83650  -0.82916  -0.82766
 Alpha  occ. eigenvalues --   -0.82620  -0.82470  -0.81675  -0.81387  -0.80650
 Alpha  occ. eigenvalues --   -0.80238  -0.78808  -0.78416  -0.77306  -0.77049
 Alpha  occ. eigenvalues --   -0.76910  -0.76687  -0.76004  -0.75638  -0.74987
 Alpha  occ. eigenvalues --   -0.74603  -0.72858  -0.72450  -0.71751  -0.71379
 Alpha  occ. eigenvalues --   -0.70092  -0.69433  -0.68921  -0.68632  -0.67695
 Alpha  occ. eigenvalues --   -0.67391  -0.67239  -0.67032  -0.65378  -0.65080
 Alpha  occ. eigenvalues --   -0.64949  -0.64706  -0.64536  -0.64445  -0.64362
 Alpha  occ. eigenvalues --   -0.63970  -0.62402  -0.62074  -0.60442  -0.60145
 Alpha  occ. eigenvalues --   -0.59886  -0.59594  -0.59073  -0.58768  -0.58582
 Alpha  occ. eigenvalues --   -0.58210  -0.57690  -0.57366  -0.57342  -0.57029
 Alpha  occ. eigenvalues --   -0.56368  -0.56070  -0.55971  -0.55705  -0.55508
 Alpha  occ. eigenvalues --   -0.55447  -0.55265  -0.55056  -0.54644  -0.54345
 Alpha  occ. eigenvalues --   -0.53982  -0.53730  -0.53365  -0.53203  -0.53054
 Alpha  occ. eigenvalues --   -0.52994  -0.52928  -0.52718  -0.52673  -0.52584
 Alpha  occ. eigenvalues --   -0.52509  -0.52219  -0.52012  -0.51638  -0.51567
 Alpha  occ. eigenvalues --   -0.51480  -0.51293  -0.50959  -0.50438  -0.50332
 Alpha  occ. eigenvalues --   -0.50093  -0.49928  -0.49795  -0.49696  -0.49483
 Alpha  occ. eigenvalues --   -0.49317  -0.49250  -0.49151  -0.49005  -0.48894
 Alpha  occ. eigenvalues --   -0.48669  -0.48518  -0.48398  -0.48346  -0.48178
 Alpha  occ. eigenvalues --   -0.48170  -0.47694  -0.47394  -0.47322  -0.46928
 Alpha  occ. eigenvalues --   -0.46890  -0.46638  -0.46482  -0.46469  -0.46356
 Alpha  occ. eigenvalues --   -0.46289  -0.46001  -0.45929  -0.45825  -0.45582
 Alpha  occ. eigenvalues --   -0.45307  -0.45038  -0.44657  -0.44500  -0.44338
 Alpha  occ. eigenvalues --   -0.44266  -0.44194  -0.44160  -0.43994  -0.43949
 Alpha  occ. eigenvalues --   -0.43917  -0.43755  -0.43580  -0.43474  -0.43340
 Alpha  occ. eigenvalues --   -0.43177  -0.43075  -0.42820  -0.42797  -0.42707
 Alpha  occ. eigenvalues --   -0.42599  -0.42293  -0.41946  -0.41793  -0.41672
 Alpha  occ. eigenvalues --   -0.41556  -0.41454  -0.41290  -0.41184  -0.40925
 Alpha  occ. eigenvalues --   -0.40798  -0.40697  -0.40627  -0.40578  -0.40496
 Alpha  occ. eigenvalues --   -0.40278  -0.40227  -0.40073  -0.39667  -0.38889
 Alpha  occ. eigenvalues --   -0.38539  -0.38121  -0.37826  -0.37480  -0.37395
 Alpha  occ. eigenvalues --   -0.37348  -0.37008  -0.36977  -0.36822  -0.36585
 Alpha  occ. eigenvalues --   -0.36274  -0.35963  -0.34382  -0.34022  -0.33917
 Alpha  occ. eigenvalues --   -0.33681  -0.33279  -0.32935  -0.31235  -0.31135
 Alpha  occ. eigenvalues --   -0.31072  -0.30748  -0.30121  -0.29740  -0.29493
 Alpha  occ. eigenvalues --   -0.29391  -0.29117  -0.28968  -0.24186  -0.23793
 Alpha  occ. eigenvalues --   -0.21216  -0.20881
 Alpha virt. eigenvalues --   -0.08837  -0.08562  -0.01839  -0.01473  -0.00027
 Alpha virt. eigenvalues --    0.00151   0.02121   0.02438   0.03308   0.03637
 Alpha virt. eigenvalues --    0.04600   0.04935   0.04952   0.05345   0.05991

 Mulliken charges:
               1
     1  Mg   0.805357
     2  C   -0.001379
     3  C   -0.090089
     4  C   -0.044057
     5  C   -0.063772
     6  N   -0.253769
     7  C   -0.056469
     8  C   -0.013047
     9  C   -0.087091
    10  C    0.044593
    11  C    0.104651
    12  C    0.051720
    13  C   -0.071974
    14  H    0.036345
    15  N   -0.436588
    16  C    0.167392
    17  C   -0.175773
    18  C   -0.002338
    19  C    0.149588
    20  C    0.110357
    21  C    0.018622
    22  O   -0.248804
    23  C    0.060165
    24  N   -0.336193
    25  C    0.035875
    26  C   -0.027965
    27  C   -0.025520
    28  C    0.071797
    29  C    0.076799
    30  C    0.055911
    31  C   -0.030582
    32  N   -0.308652
    33  C    0.078243
    34  C   -0.172877
    35  C    0.008730
    36  C    0.077348
    37  C    0.127816
    38  C    0.044868
    39  O   -0.188301
    40  C   -0.006334
    41  C    0.213221
    42  O   -0.259354
    43  O   -0.304370
    44  C    0.157442
    45  H   -0.017702
    46  H   -0.016210
    47  H   -0.042648
    48  H    0.001061
    49  H   -0.003541
    50  H    0.025696
    51  H    0.017110
    52  H    0.017000
    53  H    0.012157
    54  H    0.043272
    55  H    0.018200
    56  H    0.018417
    57  H    0.005222
    58  H    0.027003
    59  H    0.043331
    60  H    0.034608
    61  H    0.036763
    62  H    0.039884
    63  H    0.017427
    64  H    0.009877
    65  H    0.023778
    66  H    0.012892
    67  H    0.004944
    68  H    0.004653
    69  H    0.002936
    70  H    0.011795
    71  H    0.028677
    72  H    0.023661
    73  H    0.046550
    74  H    0.008865
    75  H    0.046543
    76  H    0.035770
    77  H    0.043552
    78  H    0.046668
    79  H    0.053643
    80  Mg   0.838037
    81  C   -0.017445
    82  C   -0.088417
    83  C   -0.045425
    84  C   -0.062371
    85  N   -0.254654
    86  C   -0.049564
    87  C   -0.015117
    88  C   -0.090427
    89  C    0.045629
    90  C    0.114589
    91  C    0.062614
    92  C   -0.077588
    93  H    0.034400
    94  N   -0.423192
    95  C    0.162452
    96  C   -0.175649
    97  C   -0.008919
    98  C    0.151722
    99  C    0.099794
   100  C    0.015033
   101  O   -0.254976
   102  C    0.061306
   103  N   -0.350289
   104  C    0.037571
   105  C   -0.027148
   106  C   -0.034309
   107  C    0.088713
   108  C    0.042865
   109  C    0.003466
   110  C   -0.001754
   111  N   -0.324376
   112  C    0.077922
   113  C   -0.161782
   114  C    0.001969
   115  C    0.096701
   116  C    0.132089
   117  C    0.042737
   118  O   -0.187774
   119  C    0.000882
   120  C    0.211173
   121  O   -0.251266
   122  O   -0.305627
   123  C    0.152167
   124  H   -0.020742
   125  H   -0.016561
   126  H   -0.034252
   127  H   -0.000892
   128  H   -0.004906
   129  H    0.022432
   130  H    0.014280
   131  H    0.015462
   132  H    0.013866
   133  H    0.037611
   134  H    0.020614
   135  H    0.019296
   136  H    0.008314
   137  H    0.024566
   138  H    0.039078
   139  H    0.037251
   140  H    0.035028
   141  H    0.034467
   142  H    0.017548
   143  H    0.027066
   144  H    0.051832
   145  H    0.008426
   146  H    0.025263
   147  H    0.031620
   148  H    0.010654
   149  H    0.012718
   150  H    0.018896
   151  H    0.024631
   152  H    0.044843
   153  H    0.011781
   154  H    0.049469
   155  H    0.034886
   156  H    0.043688
   157  H    0.049229
   158  H    0.053382
 Sum of Mulliken charges =  -0.00000

 Dipole moment (field-independent basis, Debye):
    X=              1.5050    Y=              5.9765    Z=             -5.7858  Tot=              8.4533
 Quadrupole moment (field-independent basis, Debye-Ang):
   XX=           -463.6750   YY=           -546.5742   ZZ=           -473.2531
   XY=            -30.4242   XZ=             12.5864   YZ=            -12.0058

 Normal termination of Gaussian 16 at Fri Sep 10 08:02:07 2021.
