 Gaussian 16, Revision A.03,
 Gaussian 16:  ES64L-G16RevA.03 25-Dec-2016

 -----------------------------------
 #p cam-b3lyp/Def2SVP td=(nstates=5)
 -----------------------------------

 --------------------------------
 TDDFT excited states in gaussian
 --------------------------------
 Symbolic Z-matrix:
 Charge =  0 Multiplicity = 1

                         Standard orientation:
 ---------------------------------------------------------------------
 Center     Atomic      Atomic             Coordinates (Angstroms)
 Number     Number       Type             X           Y           Z
 ---------------------------------------------------------------------
      1         12           0       -3.710235    0.432247   -1.233291
      2          6           0       -4.358231   -2.628172    0.506291
      3          6           0       -5.510547    2.018861    1.192529
      4          6           0       -3.538644    3.070826   -2.984028
      5          6           0       -2.965912   -1.493323   -4.041105
      6          7           0       -4.751075   -0.318014    0.570706
      7          6           0       -4.873116   -1.504786    1.157093
      8          6           0       -5.533924   -1.432646    2.566171
      9          6           0       -6.335723   -0.064805    2.398458
     10          6           0       -5.462114    0.601916    1.350502
     11          6           0       -7.737679   -0.246653    1.825786
     12          6           0       -4.474684   -1.338592    3.715474
     13          6           0       -5.016134   -1.592057    5.125418
     14          1           0       -4.168831   -2.280044    6.087759
     15          7           0       -3.985256    2.323057   -0.731242
     16          6           0       -4.736654    2.787147    0.296039
     17          6           0       -4.622001    4.260771    0.251660
     18          6           0       -3.897387    4.623359   -0.997963
     19          6           0       -3.799887    3.338575   -1.642325
     20          6           0       -5.124138    5.158312    1.340709
     21          6           0       -3.384872    5.923371   -1.532219
     22          8           0       -2.990841    6.053797   -2.741476
     23          6           0       -3.439648    7.077277   -0.616498
     24          7           0       -3.523490    0.765047   -3.285608
     25          6           0       -3.412648    2.004313   -3.776443
     26          6           0       -3.008589    1.985394   -5.220852
     27          6           0       -2.627676    0.470803   -5.553527
     28          6           0       -2.977466   -0.166325   -4.186053
     29          6           0       -4.066888    2.476360   -6.218332
     30          6           0       -1.220352    0.214055   -6.148454
     31          6           0       -0.161607    0.522607   -5.113585
     32          7           0       -3.488829   -1.682587   -1.668606
     33          6           0       -3.198104   -2.261453   -2.912417
     34          6           0       -3.257485   -3.723741   -2.732813
     35          6           0       -3.597112   -3.894890   -1.392214
     36          6           0       -3.766492   -2.620184   -0.780064
     37          6           0       -3.069533   -4.697044   -3.753494
     38          6           0       -3.880434   -4.858093   -0.340632
     39          8           0       -3.803653   -6.083733   -0.243650
     40          6           0       -4.503567   -4.077255    0.899459
     41          6           0       -3.787951   -4.545155    2.137309
     42          8           0       -2.580269   -4.285576    2.314760
     43          8           0       -4.684646   -5.012897    3.019181
     44          6           0       -4.042992   -5.466295    4.282060
     45          1           0       -6.247422    2.588567    1.762082
     46          1           0       -3.363048    3.955656   -3.599398
     47          1           0       -2.662493   -2.158251   -4.851821
     48          1           0       -6.226345   -2.245559    2.785600
     49          1           0       -6.338496    0.520621    3.317692
     50          1           0       -7.907219   -1.274774    1.506189
     51          1           0       -7.794218    0.431104    0.973764
     52          1           0       -8.492675    0.097561    2.533087
     53          1           0       -4.152831   -0.302857    3.823750
     54          1           0       -3.637497   -2.010887    3.524518
     55          1           0       -6.007232   -2.045685    5.096187
     56          1           0       -5.173612   -0.628036    5.609219
     57          1           0       -5.755279    4.618427    2.045500
     58          1           0       -5.793870    5.880684    0.874504
     59          1           0       -4.313387    5.682237    1.847184
     60          1           0       -4.472665    7.246061   -0.311646
     61          1           0       -2.949676    7.898655   -1.138146
     62          1           0       -2.887847    6.833680    0.291866
     63          1           0       -2.138774    2.618311   -5.391918
     64          1           0       -3.308625    0.028089   -6.280842
     65          1           0       -3.729102    3.303266   -6.843498
     66          1           0       -4.958828    2.750484   -5.655668
     67          1           0       -4.458485    1.707991   -6.884423
     68          1           0       -1.041314    0.873530   -6.996973
     69          1           0       -1.077833   -0.811415   -6.489556
     70          1           0       -0.036183    1.600690   -5.207604
     71          1           0        0.765547   -0.000421   -5.350307
     72          1           0       -0.521629    0.323258   -4.104066
     73          1           0       -2.440180   -5.474827   -3.321129
     74          1           0       -2.606980   -4.259236   -4.637786
     75          1           0       -4.099752   -5.005537   -3.930516
     76          1           0       -5.564958   -4.322248    0.922911
     77          1           0       -4.342904   -6.502234    4.440545
     78          1           0       -4.314853   -4.738224    5.046527
     79          1           0       -2.957284   -5.567156    4.261918
     80         12           0        3.823444    0.774657    1.266254
     81          6           0        4.573365   -1.596651   -1.320937
     82          6           0        2.437097   -1.801885    3.019554
     83          6           0        2.750022    2.906081    3.357249
     84          6           0        4.214426    3.288095   -1.116064
     85          7           0        3.595791   -1.376305    0.803881
     86          6           0        3.974328   -2.175098   -0.182521
     87          6           0        3.768046   -3.687543    0.099457
     88          6           0        2.598794   -3.570805    1.194033
     89          6           0        2.910597   -2.177788    1.737128
     90          6           0        1.206063   -3.545914    0.586564
     91          6           0        5.050565   -4.364170    0.698919
     92          6           0        5.024802   -5.894190    0.710363
     93          1           0        6.274887   -6.613111    0.480340
     94          7           0        3.198197    0.538381    3.134895
     95          6           0        2.685050   -0.581652    3.685791
     96          6           0        2.360233   -0.233033    5.077590
     97          6           0        2.570441    1.229380    5.256152
     98          6           0        2.833488    1.626915    3.887628
     99          6           0        1.976931   -1.258193    6.104988
    100          6           0        2.527562    2.124279    6.457615
    101          8           0        2.506311    3.400950    6.345872
    102          6           0        2.416905    1.461387    7.765210
    103          7           0        3.316592    2.783872    1.097512
    104          6           0        2.927765    3.491434    2.172725
    105          6           0        2.882449    4.969345    1.865922
    106          6           0        3.557447    5.129899    0.425027
    107          6           0        3.806393    3.641792    0.094961
    108          6           0        1.491550    5.603015    1.849518
    109          6           0        4.747889    6.121252    0.312052
    110          6           0        5.933130    5.595183    1.089130
    111          7           0        4.483047    0.881215   -0.788401
    112          6           0        4.544882    2.031007   -1.605870
    113          6           0        4.945245    1.584337   -2.955908
    114          6           0        5.067166    0.191853   -2.834989
    115          6           0        4.744562   -0.203760   -1.508748
    116          6           0        5.099915    2.420897   -4.097119
    117          6           0        5.385111   -1.034485   -3.530467
    118          8           0        5.813200   -1.312355   -4.649967
    119          6           0        4.956898   -2.260669   -2.614234
    120          6           0        6.097464   -3.240915   -2.587233
    121          8           0        7.182193   -2.934161   -2.061990
    122          8           0        5.652592   -4.445750   -2.988255
    123          6           0        6.745210   -5.454501   -2.967836
    124          1           0        1.777714   -2.488683    3.550986
    125          1           0        2.490802    3.694893    4.067211
    126          1           0        4.452966    4.021701   -1.889113
    127          1           0        3.425393   -4.265488   -0.750452
    128          1           0        2.712357   -4.318597    1.974593
    129          1           0        1.237642   -3.491651   -0.491495
    130          1           0        0.722389   -2.668498    0.995540
    131          1           0        0.625224   -4.402612    0.940136
    132          1           0        5.087157   -4.168796    1.778376
    133          1           0        5.933175   -4.021390    0.194795
    134          1           0        4.226905   -6.297758    0.075186
    135          1           0        4.761700   -6.229299    1.716589
    136          1           0        1.745041   -2.225036    5.641481
    137          1           0        1.027348   -0.932304    6.543110
    138          1           0        2.718604   -1.354767    6.900769
    139          1           0        1.515333    0.853801    7.786939
    140          1           0        2.490837    2.260628    8.505222
    141          1           0        3.262385    0.774219    7.881751
    142          1           0        3.459668    5.532314    2.589095
    143          1           0        2.840476    5.501730   -0.321646
    144          1           0        1.390235    6.451649    2.552095
    145          1           0        0.763727    4.834607    2.073899
    146          1           0        1.158154    5.959986    0.876576
    147          1           0        4.484384    7.082188    0.760722
    148          1           0        5.052145    6.316080   -0.710912
    149          1           0        5.717565    5.913474    2.113484
    150          1           0        6.857576    6.038359    0.724386
    151          1           0        5.953428    4.499192    1.081866
    152          1           0        6.007931    2.105476   -4.593611
    153          1           0        5.143316    3.471362   -3.817094
    154          1           0        4.183509    2.178866   -4.642009
    155          1           0        4.054748   -2.694112   -3.047620
    156          1           0        6.798578   -5.888037   -3.971268
    157          1           0        6.502638   -6.140820   -2.134842
    158          1           0        7.758760   -5.093000   -2.839456
 ---------------------------------------------------------------------

 SCF Done:  E(RCAM-B3LYP) =  -4069.81427576     A.U. after   18 cycles

 Excitation energies and oscillator strengths:

 Excited State   1:      Singlet-A      1.6642 eV  745.00 nm  f=0.2635  <S**2>=0.000
     310 -> 316        0.14256
     311 -> 313       -0.36772
     312 -> 314        0.57954
 This state for optimization and/or second-order correction.
 Total Energy, E(TD-HF/TD-DFT) =  -4069.75311649
 Copying the excited state density for this state as the 1-particle RhoCI density.

 Excited State   2:      Singlet-A      1.6758 eV  739.86 nm  f=0.3853  <S**2>=0.000
     309 -> 315        0.14753
     311 -> 313        0.57853
     312 -> 314        0.36710

 Excited State   3:      Singlet-A      2.1816 eV  568.32 nm  f=0.0935  <S**2>=0.000
     309 -> 313       -0.16987
     310 -> 314        0.62080
     312 -> 316       -0.25709

 Excited State   4:      Singlet-A      2.1935 eV  565.23 nm  f=0.1025  <S**2>=0.000
     309 -> 313        0.61785
     310 -> 314        0.16825
     311 -> 315       -0.26837

 Excited State   5:      Singlet-A      2.2029 eV  562.82 nm  f=0.0000  <S**2>=0.000
     312 -> 313        0.70701

 The electronic state is 1-A.
 Alpha  occ. eigenvalues --  -46.87974 -46.87344 -19.26820 -19.26069 -19.19657
 Alpha  occ. eigenvalues --  -19.18992 -19.18882 -19.18544 -19.18464 -19.17802
 Alpha  occ. eigenvalues --  -14.42637 -14.42107 -14.41612 -14.41060 -14.39579
 Alpha  occ. eigenvalues --  -14.39045 -14.38785 -14.38297 -10.39647 -10.38810
 Alpha  occ. eigenvalues --  -10.35621 -10.35227 -10.34694 -10.33974 -10.32216
 Alpha  occ. eigenvalues --  -10.31615 -10.31487 -10.31117 -10.30860 -10.30771
 Alpha  occ. eigenvalues --  -10.30697 -10.30629 -10.30333 -10.30130 -10.30089
 Alpha  occ. eigenvalues --  -10.30032 -10.29852 -10.29826 -10.29642 -10.29419
 Alpha  occ. eigenvalues --  -10.29135 -10.29128 -10.29004 -10.28882 -10.28577
 Alpha  occ. eigenvalues --  -10.28333 -10.28179 -10.28135 -10.28088 -10.27992
 Alpha  occ. eigenvalues --  -10.27904 -10.27771 -10.27707 -10.27625 -10.27602
 Alpha  occ. eigenvalues --  -10.27558 -10.27536 -10.27499 -10.27355 -10.27301
 Alpha  occ. eigenvalues --  -10.27221 -10.27219 -10.27207 -10.27195 -10.27150
 Alpha  occ. eigenvalues --  -10.27023 -10.26764 -10.26565 -10.26426 -10.26301
 Alpha  occ. eigenvalues --  -10.26212 -10.26169 -10.26152 -10.26031 -10.25952
 Alpha  occ. eigenvalues --  -10.25636 -10.25628 -10.25512 -10.25355 -10.25055
 Alpha  occ. eigenvalues --  -10.24962 -10.24698 -10.24616 -10.24586 -10.24559
 Alpha  occ. eigenvalues --  -10.24419  -3.16716  -3.16095  -1.91597  -1.91184
 Alpha  occ. eigenvalues --   -1.91027  -1.90978  -1.90565  -1.90403  -1.17174
 Alpha  occ. eigenvalues --   -1.16363  -1.08948  -1.08414  -1.07392  -1.07226
 Alpha  occ. eigenvalues --   -1.06804  -1.06668  -1.04778  -1.04113  -1.03932
 Alpha  occ. eigenvalues --   -1.03417  -1.03336  -1.02748  -1.02593  -1.01805
 Alpha  occ. eigenvalues --   -0.92217  -0.91666  -0.89644  -0.89417  -0.89237
 Alpha  occ. eigenvalues --   -0.88518  -0.88397  -0.88070  -0.87992  -0.87863
 Alpha  occ. eigenvalues --   -0.87511  -0.87441  -0.87301  -0.86877  -0.85214
 Alpha  occ. eigenvalues --   -0.84512  -0.84056  -0.83676  -0.83109  -0.82881
 Alpha  occ. eigenvalues --   -0.82739  -0.82217  -0.81905  -0.81282  -0.80837
 Alpha  occ. eigenvalues --   -0.80131  -0.78972  -0.78353  -0.77398  -0.77181
 Alpha  occ. eigenvalues --   -0.76824  -0.76467  -0.76172  -0.75323  -0.75041
 Alpha  occ. eigenvalues --   -0.74552  -0.72955  -0.72374  -0.71867  -0.71190
 Alpha  occ. eigenvalues --   -0.69963  -0.69530  -0.69096  -0.68376  -0.67855
 Alpha  occ. eigenvalues --   -0.67461  -0.67319  -0.66810  -0.65532  -0.65103
 Alpha  occ. eigenvalues --   -0.64833  -0.64832  -0.64446  -0.64397  -0.64272
 Alpha  occ. eigenvalues --   -0.63936  -0.62639  -0.61989  -0.60600  -0.60098
 Alpha  occ. eigenvalues --   -0.60023  -0.59294  -0.59191  -0.58724  -0.58672
 Alpha  occ. eigenvalues --   -0.58122  -0.57941  -0.57488  -0.57266  -0.56991
 Alpha  occ. eigenvalues --   -0.56557  -0.56328  -0.55894  -0.55738  -0.55570
 Alpha  occ. eigenvalues --   -0.55557  -0.55158  -0.55007  -0.54776  -0.54241
 Alpha  occ. eigenvalues --   -0.54140  -0.53485  -0.53466  -0.53339  -0.53210
 Alpha  occ. eigenvalues --   -0.52952  -0.52945  -0.52821  -0.52575  -0.52483
 Alpha  occ. eigenvalues --   -0.52253  -0.52181  -0.52127  -0.51860  -0.51635
 Alpha  occ. eigenvalues --   -0.51415  -0.51239  -0.50878  -0.50711  -0.50245
 Alpha  occ. eigenvalues --   -0.50160  -0.50066  -0.49750  -0.49724  -0.49552
 Alpha  occ. eigenvalues --   -0.49460  -0.49334  -0.49092  -0.48879  -0.48861
 Alpha  occ. eigenvalues --   -0.48683  -0.48600  -0.48540  -0.48186  -0.48147
 Alpha  occ. eigenvalues --   -0.48032  -0.47893  -0.47484  -0.47227  -0.46975
 Alpha  occ. eigenvalues --   -0.46839  -0.46802  -0.46568  -0.46364  -0.46356
 Alpha  occ. eigenvalues --   -0.46107  -0.46051  -0.45961  -0.45838  -0.45480
 Alpha  occ. eigenvalues --   -0.45330  -0.44988  -0.44846  -0.44686  -0.44372
 Alpha  occ. eigenvalues --   -0.44268  -0.44233  -0.44224  -0.44105  -0.43840
 Alpha  occ. eigenvalues --   -0.43804  -0.43666  -0.43576  -0.43544  -0.43242
 Alpha  occ. eigenvalues --   -0.43239  -0.43120  -0.42966  -0.42758  -0.42648
 Alpha  occ. eigenvalues --   -0.42568  -0.42312  -0.42164  -0.41919  -0.41751
 Alpha  occ. eigenvalues --   -0.41668  -0.41348  -0.41337  -0.41070  -0.41035
 Alpha  occ. eigenvalues --   -0.41010  -0.40682  -0.40585  -0.40498  -0.40465
 Alpha  occ. eigenvalues --   -0.40308  -0.40014  -0.39758  -0.39482  -0.39203
 Alpha  occ. eigenvalues --   -0.38596  -0.38081  -0.38021  -0.37511  -0.37459
 Alpha  occ. eigenvalues --   -0.37237  -0.37157  -0.36956  -0.36756  -0.36500
 Alpha  occ. eigenvalues --   -0.36421  -0.35906  -0.34495  -0.34304  -0.33926
 Alpha  occ. eigenvalues --   -0.33579  -0.33390  -0.32859  -0.31521  -0.31236
 Alpha  occ. eigenvalues --   -0.31100  -0.30638  -0.30332  -0.29704  -0.29641
 Alpha  occ. eigenvalues --   -0.29529  -0.29066  -0.28934  -0.24273  -0.23710
 Alpha  occ. eigenvalues --   -0.21309  -0.20790
 Alpha virt. eigenvalues --   -0.08964  -0.08493  -0.01923  -0.01383  -0.00256
 Alpha virt. eigenvalues --    0.00267   0.01962   0.02359   0.02596   0.03642
 Alpha virt. eigenvalues --    0.04499   0.04572   0.05201   0.05454   0.05860

 Mulliken charges:
               1
     1  Mg   0.839292
     2  C   -0.004722
     3  C   -0.093537
     4  C   -0.045366
     5  C   -0.063292
     6  N   -0.256970
     7  C   -0.052648
     8  C   -0.014238
     9  C   -0.087219
    10  C    0.046630
    11  C    0.104654
    12  C    0.053448
    13  C   -0.071275
    14  H    0.032610
    15  N   -0.433340
    16  C    0.169224
    17  C   -0.176395
    18  C   -0.003716
    19  C    0.149226
    20  C    0.109893
    21  C    0.011860
    22  O   -0.249429
    23  C    0.061833
    24  N   -0.341208
    25  C    0.041922
    26  C   -0.028341
    27  C   -0.024070
    28  C    0.075056
    29  C    0.076068
    30  C    0.034885
    31  C   -0.006418
    32  N   -0.310175
    33  C    0.079804
    34  C   -0.170849
    35  C    0.007488
    36  C    0.082370
    37  C    0.127547
    38  C    0.044013
    39  O   -0.189932
    40  C   -0.005088
    41  C    0.215162
    42  O   -0.262269
    43  O   -0.302961
    44  C    0.158251
    45  H   -0.017123
    46  H   -0.016404
    47  H   -0.040533
    48  H    0.000693
    49  H   -0.003504
    50  H    0.025458
    51  H    0.016970
    52  H    0.017168
    53  H    0.012955
    54  H    0.040844
    55  H    0.018715
    56  H    0.019476
    57  H    0.006375
    58  H    0.027162
    59  H    0.041155
    60  H    0.038033
    61  H    0.035506
    62  H    0.032183
    63  H    0.016929
    64  H    0.009796
    65  H    0.023643
    66  H    0.012295
    67  H    0.005295
    68  H    0.007172
    69  H    0.005889
    70  H    0.007658
    71  H    0.023343
    72  H    0.028365
    73  H    0.045988
    74  H    0.010507
    75  H    0.046430
    76  H    0.036057
    77  H    0.044219
    78  H    0.047435
    79  H    0.050004
    80  Mg   0.836261
    81  C   -0.016997
    82  C   -0.086962
    83  C   -0.047039
    84  C   -0.065013
    85  N   -0.255386
    86  C   -0.048523
    87  C   -0.015351
    88  C   -0.090269
    89  C    0.044094
    90  C    0.114358
    91  C    0.062334
    92  C   -0.077216
    93  H    0.032038
    94  N   -0.423645
    95  C    0.162493
    96  C   -0.173818
    97  C   -0.009378
    98  C    0.152690
    99  C    0.099548
   100  C    0.014590
   101  O   -0.254874
   102  C    0.061616
   103  N   -0.350475
   104  C    0.037631
   105  C   -0.019580
   106  C   -0.035416
   107  C    0.088799
   108  C    0.073167
   109  C    0.035041
   110  C   -0.007505
   111  N   -0.324010
   112  C    0.077961
   113  C   -0.163618
   114  C    0.001499
   115  C    0.096130
   116  C    0.131476
   117  C    0.040837
   118  O   -0.189797
   119  C    0.001610
   120  C    0.211381
   121  O   -0.251371
   122  O   -0.305393
   123  C    0.152298
   124  H   -0.011189
   125  H   -0.017684
   126  H   -0.040952
   127  H   -0.000336
   128  H   -0.004425
   129  H    0.017549
   130  H    0.017594
   131  H    0.032983
   132  H    0.012979
   133  H    0.035905
   134  H    0.022726
   135  H    0.019968
   136  H    0.011285
   137  H    0.024341
   138  H    0.038569
   139  H    0.037258
   140  H    0.035055
   141  H    0.034192
   142  H    0.013648
   143  H    0.013974
   144  H    0.022594
   145  H    0.010173
   146  H    0.006286
   147  H    0.005136
   148  H    0.003859
   149  H    0.010196
   150  H    0.017397
   151  H    0.030664
   152  H    0.045118
   153  H    0.008406
   154  H    0.045744
   155  H    0.034520
   156  H    0.042909
   157  H    0.050473
   158  H    0.052933
 Sum of Mulliken charges =  -0.00000

 Dipole moment (field-independent basis, Debye):
    X=             -6.2271    Y=              0.9942    Z=              4.2802  Tot=              7.6213
 Quadrupole moment (field-independent basis, Debye-Ang):
   XX=           -517.7742   YY=           -508.6242   ZZ=           -493.3945
   XY=            -15.1230   XZ=             -2.4469   YZ=            -13.4766

 Normal termination of Gaussian 16 at Thu Sep  9 11:13:06 2021.
