 Gaussian 16, Revision A.03,
 Gaussian 16:  ES64L-G16RevA.03 25-Dec-2016

 -----------------------------------
 #p cam-b3lyp/Def2SVP td=(nstates=5)
 -----------------------------------

 --------------------------------
 TDDFT excited states in gaussian
 --------------------------------
 Symbolic Z-matrix:
 Charge =  0 Multiplicity = 1

                         Standard orientation:
 ---------------------------------------------------------------------
 Center     Atomic      Atomic             Coordinates (Angstroms)
 Number     Number       Type             X           Y           Z
 ---------------------------------------------------------------------
      1         12           0        3.245264   -1.900741    0.653967
      2          6           0        4.714775    1.198792   -0.368602
      3          6           0        3.926708   -0.991129    3.871312
      4          6           0        2.370913   -4.814922    1.548216
      5          6           0        3.715099   -3.030283   -2.609321
      6          7           0        4.200833   -0.098924    1.514774
      7          6           0        4.665998    1.043228    1.018505
      8          6           0        5.027195    2.090996    2.113536
      9          6           0        5.275160    1.100271    3.337863
     10          6           0        4.387725   -0.052077    2.901426
     11          6           0        6.713463    0.602321    3.437030
     12          6           0        3.846682    3.077524    2.404882
     13          6           0        4.220256    4.322409    3.214856
     14          1           0        3.554593    5.580476    2.912354
     15          7           0        2.713092   -2.591250    2.426773
     16          6           0        3.069277   -2.086894    3.632610
     17          6           0        2.420457   -2.949820    4.643091
     18          6           0        1.813940   -4.108290    3.930224
     19          6           0        2.303848   -3.895409    2.592297
     20          6           0        2.377153   -2.617646    6.103069
     21          6           0        0.941267   -5.235076    4.385115
     22          8           0        0.717720   -6.260031    3.654315
     23          6           0        0.419536   -5.147737    5.761055
     24          7           0        3.265114   -3.749428   -0.315361
     25          6           0        2.775905   -4.844388    0.276855
     26          6           0        2.635100   -5.975688   -0.697964
     27          6           0        2.903799   -5.350519   -2.142512
     28          6           0        3.251964   -3.904062   -1.712613
     29          6           0        3.572799   -7.170553   -0.476536
     30          6           0        1.803747   -5.557015   -3.213803
     31          6           0        0.561086   -4.785971   -2.828597
     32          7           0        3.899963   -1.033463   -1.224927
     33          6           0        4.041310   -1.693341   -2.454258
     34          6           0        4.614576   -0.721089   -3.403026
     35          6           0        4.783415    0.439525   -2.650487
     36          6           0        4.367971    0.199213   -1.309612
     37          6           0        4.963098   -0.984196   -4.757183
     38          6           0        5.241141    1.819463   -2.661160
     39          8           0        5.614091    2.602633   -3.535829
     40          6           0        5.328946    2.329906   -1.155316
     41          6           0        4.659193    3.675528   -1.091754
     42          8           0        3.430220    3.787829   -1.277175
     43          8           0        5.518874    4.576853   -0.592652
     44          6           0        4.907514    5.927658   -0.475514
     45          1           0        4.300402   -0.919507    4.894622
     46          1           0        1.974057   -5.804055    1.786035
     47          1           0        3.810515   -3.286087   -3.666162
     48          1           0        5.930717    2.666532    1.911467
     49          1           0        4.917786    1.518531    4.278642
     50          1           0        7.301862    0.909356    2.572486
     51          1           0        6.642671   -0.484596    3.482778
     52          1           0        7.166863    0.912960    4.378683
     53          1           0        3.148551    2.607936    3.097818
     54          1           0        3.361452    3.383160    1.477270
     55          1           0        5.300882    4.462125    3.255315
     56          1           0        3.929745    4.154916    4.252039
     57          1           0        3.048067   -1.794794    6.346653
     58          1           0        2.791371   -3.472900    6.636616
     59          1           0        1.361963   -2.424426    6.450038
     60          1           0        1.254600   -5.092729    6.459762
     61          1           0       -0.255566   -5.994323    5.880966
     62          1           0       -0.133620   -4.214451    5.870350
     63          1           0        1.629157   -6.392532   -0.670631
     64          1           0        3.803803   -5.758042   -2.603589
     65          1           0        3.050733   -8.119351   -0.350309
     66          1           0        4.199866   -6.951304    0.387181
     67          1           0        4.320433   -7.315440   -1.255939
     68          1           0        1.523758   -6.608283   -3.272020
     69          1           0        2.109003   -5.239396   -4.210892
     70          1           0        0.057864   -5.463630   -2.139846
     71          1           0       -0.055202   -4.594022   -3.707548
     72          1           0        0.809946   -3.881848   -2.272613
     73          1           0        4.611721   -0.128944   -5.334285
     74          1           0        4.512104   -1.911758   -5.109085
     75          1           0        6.047954   -1.051474   -4.677067
     76          1           0        6.387808    2.387414   -0.905063
     77          1           0        5.544701    6.617461   -1.029047
     78          1           0        4.766732    6.112775    0.589529
     79          1           0        3.955161    6.071737   -0.986986
     80         12           0       -4.158857    0.664231   -0.661057
     81          6           0       -1.378853    2.933656   -0.680279
     82          6           0       -5.180685    2.175691    2.220951
     83          6           0       -6.360396   -1.602050   -0.370169
     84          6           0       -2.342263   -1.360709   -2.839420
     85          7           0       -3.306248    2.329224    0.519248
     86          6           0       -2.280360    3.155624    0.381537
     87          6           0       -2.261615    4.331964    1.394168
     88          6           0       -3.138689    3.660048    2.559557
     89          6           0       -3.955917    2.682326    1.717609
     90          6           0       -2.310289    2.859967    3.551011
     91          6           0       -2.952579    5.620972    0.825815
     92          6           0       -2.700007    6.895580    1.634123
     93          1           0       -2.573620    8.161172    0.916652
     94          7           0       -5.822003    0.620708    0.420894
     95          6           0       -6.076918    1.315252    1.549563
     96          6           0       -7.429156    0.916987    1.970296
     97          6           0       -7.886803   -0.192026    1.089744
     98          6           0       -6.672737   -0.453861    0.343029
     99          6           0       -8.185015    1.625385    3.056698
    100          6           0       -9.196229   -0.908115    0.952525
    101          8           0       -9.300388   -1.999760    0.288988
    102          6           0      -10.332869   -0.344045    1.695058
    103          7           0       -4.246941   -1.307935   -1.313100
    104          6           0       -5.341715   -2.058622   -1.098969
    105          6           0       -5.286566   -3.342376   -1.892272
    106          6           0       -4.034164   -3.186917   -2.874582
    107          6           0       -3.505460   -1.817045   -2.395711
    108          6           0       -5.134897   -4.624255   -1.073635
    109          6           0       -4.300576   -3.387116   -4.391693
    110          6           0       -5.172322   -2.268215   -4.914673
    111          7           0       -2.299311    0.826082   -1.749153
    112          6           0       -1.712006   -0.149492   -2.584264
    113          6           0       -0.396868    0.374017   -3.007109
    114          6           0       -0.299587    1.617726   -2.365066
    115          6           0       -1.462556    1.843807   -1.580274
    116          6           0        0.541283   -0.304234   -3.835339
    117          6           0        0.527140    2.786030   -2.164330
    118          8           0        1.585215    3.193911   -2.641663
    119          6           0       -0.079010    3.633901   -0.964301
    120          6           0       -0.138499    5.073482   -1.396256
    121          8           0       -0.889490    5.424712   -2.323226
    122          8           0        0.532300    5.828393   -0.507151
    123          6           0        0.492410    7.265861   -0.886505
    124          1           0       -5.464560    2.425983    3.243519
    125          1           0       -7.137331   -2.369770   -0.391599
    126          1           0       -1.758416   -1.888748   -3.596376
    127          1           0       -1.279476    4.591627    1.770677
    128          1           0       -3.788954    4.389675    3.035127
    129          1           0       -1.279374    2.777218    3.240383
    130          1           0       -2.771057    1.881930    3.597632
    131          1           0       -2.406599    3.286581    4.553537
    132          1           0       -4.039068    5.530320    0.952575
    133          1           0       -2.675945    5.781611   -0.198047
    134          1           0       -1.876127    6.774528    2.347919
    135          1           0       -3.573227    7.086681    2.262594
    136          1           0       -7.531142    2.291315    3.633215
    137          1           0       -8.499197    0.862583    3.777318
    138          1           0       -9.070128    2.145253    2.683908
    139          1           0      -10.093452   -0.316167    2.755412
    140          1           0      -11.198935   -0.939962    1.400605
    141          1           0      -10.477283    0.694695    1.377612
    142          1           0       -6.184230   -3.469699   -2.484788
    143          1           0       -3.247624   -3.922747   -2.651575
    144          1           0       -5.942387   -5.357826   -1.257756
    145          1           0       -5.095160   -4.357451   -0.025891
    146          1           0       -4.193403   -5.152734   -1.213325
    147          1           0       -4.852467   -4.315131   -4.560063
    148          1           0       -3.394547   -3.438858   -4.986186
    149          1           0       -6.182116   -2.600650   -4.656038
    150          1           0       -5.055186   -2.162610   -5.991315
    151          1           0       -4.983172   -1.335138   -4.371311
    152          1           0        0.917576    0.424481   -4.540933
    153          1           0        0.084158   -1.151073   -4.342931
    154          1           0        1.270951   -0.620427   -3.085084
    155          1           0        0.572443    3.492071   -0.101132
    156          1           0        1.529781    7.609156   -0.947280
    157          1           0       -0.156881    7.754935   -0.136195
    158          1           0        0.129518    7.512844   -1.877348
 ---------------------------------------------------------------------

 SCF Done:  E(RCAM-B3LYP) =  -4069.80163355     A.U. after   19 cycles

 Excitation energies and oscillator strengths:

 Excited State   1:      Singlet-A      1.6274 eV  761.87 nm  f=0.1444  <S**2>=0.000
     309 -> 315        0.11426
     310 -> 316       -0.11443
     311 -> 313        0.47581
     312 -> 313       -0.11484
     312 -> 314        0.47802
 This state for optimization and/or second-order correction.
 Total Energy, E(TD-HF/TD-DFT) =  -4069.74182873
 Copying the excited state density for this state as the 1-particle RhoCI density.

 Excited State   2:      Singlet-A      1.7187 eV  721.38 nm  f=0.5777  <S**2>=0.000
     309 -> 315       -0.13159
     310 -> 316       -0.12950
     311 -> 313       -0.48280
     312 -> 314        0.48305

 Excited State   3:      Singlet-A      2.1782 eV  569.20 nm  f=0.0005  <S**2>=0.000
     309 -> 313        0.43968
     310 -> 314        0.43994
     311 -> 315       -0.18089
     312 -> 313        0.17803
     312 -> 316        0.18461

 Excited State   4:      Singlet-A      2.1922 eV  565.56 nm  f=0.0001  <S**2>=0.000
     309 -> 313       -0.12612
     310 -> 314       -0.10994
     312 -> 313        0.67330

 Excited State   5:      Singlet-A      2.2034 eV  562.69 nm  f=0.1591  <S**2>=0.000
     309 -> 313       -0.44577
     310 -> 314        0.44657
     311 -> 315        0.20220
     312 -> 316        0.20249

 The electronic state is 1-A.
 Alpha  occ. eigenvalues --  -46.87717 -46.87173 -19.25827 -19.25599 -19.18736
 Alpha  occ. eigenvalues --  -19.18525 -19.18257 -19.17914 -19.17731 -19.16679
 Alpha  occ. eigenvalues --  -14.42382 -14.42058 -14.41384 -14.40865 -14.39312
 Alpha  occ. eigenvalues --  -14.38845 -14.38535 -14.38055 -10.38446 -10.38092
 Alpha  occ. eigenvalues --  -10.35373 -10.34946 -10.33957 -10.32791 -10.31530
 Alpha  occ. eigenvalues --  -10.31296 -10.31283 -10.30807 -10.30782 -10.30590
 Alpha  occ. eigenvalues --  -10.30452 -10.30404 -10.30192 -10.29842 -10.29833
 Alpha  occ. eigenvalues --  -10.29765 -10.29756 -10.29522 -10.29354 -10.29209
 Alpha  occ. eigenvalues --  -10.29013 -10.28823 -10.28681 -10.28556 -10.28464
 Alpha  occ. eigenvalues --  -10.28389 -10.28227 -10.28053 -10.27841 -10.27818
 Alpha  occ. eigenvalues --  -10.27657 -10.27630 -10.27559 -10.27481 -10.27466
 Alpha  occ. eigenvalues --  -10.27439 -10.27373 -10.27259 -10.27215 -10.27150
 Alpha  occ. eigenvalues --  -10.27065 -10.26964 -10.26959 -10.26913 -10.26722
 Alpha  occ. eigenvalues --  -10.26721 -10.26401 -10.26365 -10.26358 -10.26166
 Alpha  occ. eigenvalues --  -10.26140 -10.26057 -10.25987 -10.25866 -10.25828
 Alpha  occ. eigenvalues --  -10.25667 -10.25484 -10.25435 -10.25169 -10.25018
 Alpha  occ. eigenvalues --  -10.24990 -10.24699 -10.24642 -10.24451 -10.24246
 Alpha  occ. eigenvalues --  -10.24164  -3.16463  -3.15925  -1.91344  -1.90931
 Alpha  occ. eigenvalues --   -1.90808  -1.90773  -1.90397  -1.90231  -1.16070
 Alpha  occ. eigenvalues --   -1.15913  -1.08137  -1.07408  -1.07140  -1.06520
 Alpha  occ. eigenvalues --   -1.06289  -1.05649  -1.04492  -1.04023  -1.03690
 Alpha  occ. eigenvalues --   -1.03164  -1.03147  -1.02528  -1.02329  -1.01591
 Alpha  occ. eigenvalues --   -0.91760  -0.91352  -0.89513  -0.89122  -0.89031
 Alpha  occ. eigenvalues --   -0.88808  -0.88273  -0.87783  -0.87723  -0.87608
 Alpha  occ. eigenvalues --   -0.87250  -0.87192  -0.87170  -0.86641  -0.84913
 Alpha  occ. eigenvalues --   -0.84610  -0.83950  -0.83457  -0.82915  -0.82539
 Alpha  occ. eigenvalues --   -0.82509  -0.82240  -0.81315  -0.81095  -0.80419
 Alpha  occ. eigenvalues --   -0.79963  -0.78695  -0.78116  -0.77177  -0.76836
 Alpha  occ. eigenvalues --   -0.76743  -0.76490  -0.75749  -0.75384  -0.74835
 Alpha  occ. eigenvalues --   -0.74352  -0.72680  -0.72184  -0.71566  -0.71113
 Alpha  occ. eigenvalues --   -0.69990  -0.69390  -0.68790  -0.68416  -0.67506
 Alpha  occ. eigenvalues --   -0.67167  -0.67058  -0.66807  -0.65195  -0.64848
 Alpha  occ. eigenvalues --   -0.64745  -0.64476  -0.64302  -0.64225  -0.64202
 Alpha  occ. eigenvalues --   -0.63749  -0.61956  -0.61770  -0.60372  -0.59855
 Alpha  occ. eigenvalues --   -0.59717  -0.59386  -0.58869  -0.58480  -0.58346
 Alpha  occ. eigenvalues --   -0.57876  -0.57339  -0.57022  -0.56850  -0.56715
 Alpha  occ. eigenvalues --   -0.56185  -0.55709  -0.55643  -0.55425  -0.55411
 Alpha  occ. eigenvalues --   -0.55237  -0.55013  -0.54838  -0.54299  -0.54008
 Alpha  occ. eigenvalues --   -0.53811  -0.53544  -0.53209  -0.53124  -0.52904
 Alpha  occ. eigenvalues --   -0.52763  -0.52698  -0.52690  -0.52451  -0.52381
 Alpha  occ. eigenvalues --   -0.52274  -0.51992  -0.51784  -0.51530  -0.51275
 Alpha  occ. eigenvalues --   -0.51187  -0.51009  -0.50591  -0.50533  -0.50076
 Alpha  occ. eigenvalues --   -0.50065  -0.49844  -0.49607  -0.49493  -0.49421
 Alpha  occ. eigenvalues --   -0.49198  -0.49065  -0.48984  -0.48755  -0.48625
 Alpha  occ. eigenvalues --   -0.48471  -0.48351  -0.48247  -0.48070  -0.47917
 Alpha  occ. eigenvalues --   -0.47602  -0.47436  -0.47181  -0.47023  -0.46734
 Alpha  occ. eigenvalues --   -0.46674  -0.46446  -0.46278  -0.46264  -0.46197
 Alpha  occ. eigenvalues --   -0.45897  -0.45793  -0.45569  -0.45563  -0.45210
 Alpha  occ. eigenvalues --   -0.45133  -0.44745  -0.44485  -0.44335  -0.44149
 Alpha  occ. eigenvalues --   -0.44090  -0.44016  -0.43876  -0.43741  -0.43651
 Alpha  occ. eigenvalues --   -0.43604  -0.43368  -0.43340  -0.43186  -0.43072
 Alpha  occ. eigenvalues --   -0.42899  -0.42880  -0.42731  -0.42433  -0.42294
 Alpha  occ. eigenvalues --   -0.42137  -0.41980  -0.41871  -0.41558  -0.41514
 Alpha  occ. eigenvalues --   -0.41437  -0.41079  -0.41027  -0.40887  -0.40778
 Alpha  occ. eigenvalues --   -0.40650  -0.40514  -0.40447  -0.40335  -0.40306
 Alpha  occ. eigenvalues --   -0.40219  -0.39978  -0.39903  -0.39566  -0.39055
 Alpha  occ. eigenvalues --   -0.38475  -0.37960  -0.37701  -0.37325  -0.37293
 Alpha  occ. eigenvalues --   -0.37175  -0.36832  -0.36747  -0.36403  -0.36251
 Alpha  occ. eigenvalues --   -0.35753  -0.35511  -0.34189  -0.33743  -0.33251
 Alpha  occ. eigenvalues --   -0.33230  -0.32821  -0.32439  -0.31261  -0.30877
 Alpha  occ. eigenvalues --   -0.30822  -0.30470  -0.29598  -0.29340  -0.29167
 Alpha  occ. eigenvalues --   -0.28804  -0.28481  -0.28363  -0.23977  -0.23532
 Alpha  occ. eigenvalues --   -0.21052  -0.20601
 Alpha virt. eigenvalues --   -0.08661  -0.08220  -0.01684  -0.01233   0.00062
 Alpha virt. eigenvalues --    0.00498   0.02429   0.02594   0.03251   0.03788
 Alpha virt. eigenvalues --    0.04746   0.05084   0.05658   0.05902   0.06174

 Mulliken charges:
               1
     1  Mg   0.835723
     2  C   -0.003916
     3  C   -0.094578
     4  C   -0.046182
     5  C   -0.067268
     6  N   -0.255938
     7  C   -0.056053
     8  C   -0.011465
     9  C   -0.086574
    10  C    0.045242
    11  C    0.104919
    12  C    0.046821
    13  C   -0.070732
    14  H    0.035420
    15  N   -0.432926
    16  C    0.167673
    17  C   -0.177706
    18  C   -0.004356
    19  C    0.149183
    20  C    0.110346
    21  C    0.012328
    22  O   -0.250137
    23  C    0.062569
    24  N   -0.341267
    25  C    0.041362
    26  C   -0.028412
    27  C   -0.023342
    28  C    0.076287
    29  C    0.076203
    30  C    0.037433
    31  C   -0.011615
    32  N   -0.312817
    33  C    0.072502
    34  C   -0.170427
    35  C    0.014641
    36  C    0.085923
    37  C    0.126435
    38  C    0.060317
    39  O   -0.184303
    40  C   -0.009242
    41  C    0.208260
    42  O   -0.222110
    43  O   -0.309043
    44  C    0.158175
    45  H   -0.018148
    46  H   -0.017482
    47  H   -0.042246
    48  H    0.001817
    49  H   -0.005138
    50  H    0.025902
    51  H    0.016402
    52  H    0.016112
    53  H    0.008201
    54  H    0.051513
    55  H    0.018712
    56  H    0.016216
    57  H    0.005180
    58  H    0.026569
    59  H    0.038430
    60  H    0.037057
    61  H    0.035542
    62  H    0.031100
    63  H    0.015703
    64  H    0.009958
    65  H    0.022975
    66  H    0.013030
    67  H    0.004651
    68  H    0.006406
    69  H    0.004220
    70  H    0.010249
    71  H    0.016542
    72  H    0.030389
    73  H    0.050301
    74  H    0.007210
    75  H    0.045788
    76  H    0.032837
    77  H    0.039881
    78  H    0.042632
    79  H    0.052957
    80  Mg   0.834312
    81  C   -0.017763
    82  C   -0.088258
    83  C   -0.046345
    84  C   -0.067485
    85  N   -0.253496
    86  C   -0.051090
    87  C   -0.013557
    88  C   -0.090230
    89  C    0.044027
    90  C    0.114704
    91  C    0.062933
    92  C   -0.076712
    93  H    0.033619
    94  N   -0.423071
    95  C    0.161129
    96  C   -0.176256
    97  C   -0.009126
    98  C    0.151042
    99  C    0.100031
   100  C    0.014518
   101  O   -0.254761
   102  C    0.061646
   103  N   -0.350530
   104  C    0.037283
   105  C   -0.019989
   106  C   -0.035118
   107  C    0.090099
   108  C    0.073771
   109  C    0.034718
   110  C   -0.007306
   111  N   -0.324360
   112  C    0.077349
   113  C   -0.172861
   114  C    0.012153
   115  C    0.091769
   116  C    0.132365
   117  C    0.037798
   118  O   -0.148105
   119  C    0.000712
   120  C    0.216920
   121  O   -0.253217
   122  O   -0.304218
   123  C    0.154766
   124  H   -0.022118
   125  H   -0.016911
   126  H   -0.042554
   127  H   -0.002420
   128  H   -0.005721
   129  H    0.020725
   130  H    0.013887
   131  H    0.013358
   132  H    0.013859
   133  H    0.038316
   134  H    0.018701
   135  H    0.018874
   136  H    0.007024
   137  H    0.024165
   138  H    0.038169
   139  H    0.037380
   140  H    0.034991
   141  H    0.033231
   142  H    0.013248
   143  H    0.013680
   144  H    0.023790
   145  H    0.012333
   146  H    0.005473
   147  H    0.005199
   148  H    0.001476
   149  H    0.010833
   150  H    0.016752
   151  H    0.031090
   152  H    0.044458
   153  H    0.001734
   154  H    0.060656
   155  H    0.039290
   156  H    0.032838
   157  H    0.047556
   158  H    0.054011
 Sum of Mulliken charges =  -0.00000

 Dipole moment (field-independent basis, Debye):
    X=              1.0181    Y=              0.4726    Z=              7.4418  Tot=              7.5260
 Quadrupole moment (field-independent basis, Debye-Ang):
   XX=           -519.3515   YY=           -500.5445   ZZ=           -482.9135
   XY=            -25.2825   XZ=              9.4340   YZ=             53.9306

 Normal termination of Gaussian 16 at Thu Sep  9 04:57:38 2021.
