 Gaussian 16, Revision A.03,
 Gaussian 16:  ES64L-G16RevA.03 25-Dec-2016

 -----------------------------------
 #p cam-b3lyp/Def2SVP td=(nstates=5)
 -----------------------------------

 --------------------------------
 TDDFT excited states in gaussian
 --------------------------------
 Symbolic Z-matrix:
 Charge =  0 Multiplicity = 1

                         Standard orientation:
 ---------------------------------------------------------------------
 Center     Atomic      Atomic             Coordinates (Angstroms)
 Number     Number       Type             X           Y           Z
 ---------------------------------------------------------------------
      1         12           0       -6.285087   -1.148290    0.457238
      2          6           0       -6.748044    2.387517    0.147471
      3          6           0       -7.307815   -1.416302   -2.787028
      4          6           0       -6.320732   -4.295831    0.842386
      5          6           0       -6.403856   -0.712246    3.912874
      6          7           0       -6.919038    0.366310   -1.027599
      7          6           0       -6.994881    1.693444   -1.039112
      8          6           0       -7.287849    2.283302   -2.451065
      9          6           0       -7.989083    1.013936   -3.113620
     10          6           0       -7.341436   -0.081439   -2.284989
     11          6           0       -9.497930    0.968109   -2.895024
     12          6           0       -5.978609    2.677804   -3.213947
     13          6           0       -6.183209    3.554789   -4.452652
     14          1           0       -5.189414    4.571402   -4.762841
     15          7           0       -6.271683   -2.602834   -0.879539
     16          6           0       -6.711543   -2.531081   -2.158859
     17          6           0       -6.488098   -3.871294   -2.742453
     18          6           0       -6.058600   -4.780229   -1.643606
     19          6           0       -6.227265   -3.924692   -0.496878
     20          6           0       -6.635792   -4.167657   -4.203311
     21          6           0       -5.583176   -6.198631   -1.628196
     22          8           0       -5.482992   -6.870680   -0.545197
     23          6           0       -5.318696   -6.817118   -2.939900
     24          7           0       -6.571753   -2.371790    2.124123
     25          6           0       -6.479296   -3.702607    2.027371
     26          6           0       -6.438637   -4.346980    3.381280
     27          6           0       -6.277323   -3.156254    4.432899
     28          6           0       -6.338962   -1.962197    3.448675
     29          6           0       -7.661396   -5.196064    3.755348
     30          6           0       -5.081635   -3.242095    5.414419
     31          6           0       -3.782531   -3.090469    4.655185
     32          7           0       -6.352975    0.538130    1.821944
     33          6           0       -6.420355    0.487762    3.221800
     34          6           0       -6.556793    1.876544    3.697970
     35          6           0       -6.576100    2.641955    2.533660
     36          6           0       -6.485547    1.783465    1.400925
     37          6           0       -6.702718    2.282066    5.053954
     38          6           0       -6.676957    3.983427    1.982173
     39          8           0       -6.681875    5.119088    2.459399
     40          6           0       -6.914966    3.863181    0.412231
     41          6           0       -5.963619    4.811210   -0.265625
     42          8           0       -4.731440    4.617182   -0.227494
     43          8           0       -6.657002    5.655204   -1.045008
     44          6           0       -5.769915    6.604049   -1.769524
     45          1           0       -7.835210   -1.644532   -3.715310
     46          1           0       -6.225364   -5.368082    1.025743
     47          1           0       -6.361690   -0.492078    4.981144
     48          1           0       -7.972406    3.131701   -2.456106
     49          1           0       -7.721041    0.903044   -4.164134
     50          1           0       -9.824968    1.749135   -2.208755
     51          1           0       -9.701415   -0.017214   -2.475233
     52          1           0      -10.028485    1.003668   -3.846877
     53          1           0       -5.554645    1.790015   -3.683143
     54          1           0       -5.271484    3.163886   -2.540877
     55          1           0       -7.186465    3.981111   -4.477881
     56          1           0       -6.138105    2.915898   -5.334686
     57          1           0       -7.121174   -3.347744   -4.731224
     58          1           0       -7.335345   -4.998765   -4.290456
     59          1           0       -5.685902   -4.436668   -4.665560
     60          1           0       -6.229816   -6.795618   -3.538187
     61          1           0       -4.902073   -7.801535   -2.729665
     62          1           0       -4.586448   -6.211464   -3.474638
     63          1           0       -5.585960   -5.019038    3.469060
     64          1           0       -7.148190   -3.063240    5.082217
     65          1           0       -7.416423   -6.226560    4.013750
     66          1           0       -8.365110   -5.157990    2.924308
     67          1           0       -8.264979   -4.794693    4.568985
     68          1           0       -5.058036   -4.217647    5.898864
     69          1           0       -5.111923   -2.483844    6.196971
     70          1           0       -3.593740   -4.099969    4.291729
     71          1           0       -2.986970   -2.761340    5.324490
     72          1           0       -3.903780   -2.447541    3.783160
     73          1           0       -6.055005    3.148899    5.184484
     74          1           0       -6.432176    1.478710    5.738811
     75          1           0       -7.767305    2.513857    5.081950
     76          1           0       -7.956019    4.129168    0.231731
     77          1           0       -6.108334    7.610815   -1.524313
     78          1           0       -5.787441    6.305660   -2.817885
     79          1           0       -4.733490    6.647652   -1.432982
     80         12           0        6.898028   -0.234329   -0.214213
     81          6           0        5.119954    2.879387   -0.064770
     82          6           0        4.809743   -1.133282   -2.756959
     83          6           0        8.142650   -3.149530   -0.073043
     84          6           0        8.051103    0.429003    3.006978
     85          7           0        5.221247    0.822739   -1.195695
     86          6           0        4.675989    2.025697   -1.096061
     87          6           0        3.650159    2.361309   -2.211672
     88          6           0        3.234686    0.863406   -2.614838
     89          6           0        4.511161    0.135303   -2.198701
     90          6           0        2.081922    0.315878   -1.789792
     91          6           0        4.306203    3.119936   -3.418368
     92          6           0        3.313729    3.749724   -4.398220
     93          1           0        3.665990    5.020677   -5.025159
     94          7           0        6.877715   -1.705303   -1.546283
     95          6           0        5.968424   -1.906001   -2.523115
     96          6           0        6.387968   -3.133285   -3.217314
     97          6           0        7.525532   -3.731170   -2.466857
     98          6           0        7.546374   -2.877757   -1.295808
     99          6           0        5.776765   -3.585437   -4.511692
    100          6           0        8.434884   -4.888484   -2.749550
    101          8           0        9.201580   -5.378538   -1.846855
    102          6           0        8.333341   -5.490575   -4.086957
    103          7           0        7.772760   -1.320825    1.327436
    104          6           0        8.279640   -2.546759    1.108140
    105          6           0        9.098265   -3.017371    2.286604
    106          6           0        9.236203   -1.747225    3.248534
    107          6           0        8.359833   -0.742722    2.468568
    108          6           0        8.516744   -4.191189    3.074244
    109          6           0       10.675188   -1.319017    3.646818
    110          6           0       11.413160   -0.798989    2.434237
    111          7           0        6.802746    1.430242    1.159892
    112          6           0        7.331005    1.487584    2.468232
    113          6           0        6.914895    2.780428    3.049478
    114          6           0        6.148037    3.380360    2.039283
    115          6           0        6.073453    2.513312    0.915830
    116          6           0        7.209399    3.233780    4.366234
    117          6           0        5.375813    4.545428    1.671856
    118          8           0        5.157704    5.641031    2.187407
    119          6           0        4.570436    4.218771    0.341043
    120          6           0        4.757076    5.369747   -0.609184
    121          8           0        5.879286    5.624424   -1.080785
    122          8           0        3.550447    5.841749   -0.971971
    123          6           0        3.683017    6.977517   -1.922907
    124          1           0        4.068190   -1.603034   -3.403739
    125          1           0        8.681122   -4.098077   -0.011519
    126          1           0        8.451665    0.752608    3.970046
    127          1           0        2.778914    2.911539   -1.877079
    128          1           0        3.075813    0.772371   -3.686202
    129          1           0        1.808959    0.983469   -0.986078
    130          1           0        2.426526   -0.630813   -1.394738
    131          1           0        1.232775    0.080848   -2.437892
    132          1           0        4.787239    2.389558   -4.081608
    133          1           0        4.993779    3.866289   -3.070758
    134          1           0        2.298402    3.793077   -3.985691
    135          1           0        3.221854    3.094778   -5.268063
    136          1           0        4.853395   -3.036449   -4.733960
    137          1           0        5.449062   -4.620479   -4.366229
    138          1           0        6.481948   -3.551789   -5.344917
    139          1           0        7.315516   -5.836395   -4.250980
    140          1           0        9.122766   -6.243502   -4.129173
    141          1           0        8.526464   -4.714236   -4.835705
    142          1           0       10.086674   -3.328424    1.971338
    143          1           0        8.739395   -1.912797    4.215798
    144          1           0        9.202604   -5.057028    3.137295
    145          1           0        7.580759   -4.480165    2.614934
    146          1           0        8.211845   -3.957921    4.092985
    147          1           0       11.240672   -2.181527    4.008013
    148          1           0       10.701318   -0.566712    4.428056
    149          1           0       11.777963   -1.713209    1.956518
    150          1           0       12.237076   -0.154703    2.734395
    151          1           0       10.724839   -0.312807    1.733171
    152          1           0        7.496608    4.273343    4.280636
    153          1           0        7.997045    2.639354    4.824521
    154          1           0        6.241320    3.074188    4.848539
    155          1           0        3.524204    4.081027    0.616738
    156          1           0        3.136523    7.821484   -1.490761
    157          1           0        3.328169    6.593812   -2.897895
    158          1           0        4.668533    7.408729   -2.054338
 ---------------------------------------------------------------------

 SCF Done:  E(RCAM-B3LYP) =  -4069.81157976     A.U. after   19 cycles

 Excitation energies and oscillator strengths:

 Excited State   1:      Singlet-A      1.6647 eV  744.78 nm  f=0.0055  <S**2>=0.000
     309 -> 315        0.11182
     310 -> 316       -0.12948
     311 -> 313        0.44683
     312 -> 314        0.52141
 This state for optimization and/or second-order correction.
 Total Energy, E(TD-HF/TD-DFT) =  -4069.75040278
 Copying the excited state density for this state as the 1-particle RhoCI density.

 Excited State   2:      Singlet-A      1.6895 eV  733.84 nm  f=0.7352  <S**2>=0.000
     309 -> 315        0.13529
     310 -> 316        0.11506
     311 -> 313        0.52014
     312 -> 314       -0.44585

 Excited State   3:      Singlet-A      2.1846 eV  567.55 nm  f=0.0585  <S**2>=0.000
     309 -> 313        0.17365
     310 -> 314        0.61916
     312 -> 316        0.26179

 Excited State   4:      Singlet-A      2.1932 eV  565.32 nm  f=0.1347  <S**2>=0.000
     309 -> 313        0.61676
     310 -> 314       -0.17216
     311 -> 315       -0.26865

 Excited State   5:      Singlet-A      2.6132 eV  474.44 nm  f=0.0000  <S**2>=0.000
     312 -> 313        0.70699

 The electronic state is 1-A.
 Alpha  occ. eigenvalues --  -46.87935 -46.87530 -19.26399 -19.26133 -19.19140
 Alpha  occ. eigenvalues --  -19.18971 -19.18958 -19.18613 -19.18274 -19.17880
 Alpha  occ. eigenvalues --  -14.42589 -14.42362 -14.41580 -14.41231 -14.39542
 Alpha  occ. eigenvalues --  -14.39224 -14.38718 -14.38465 -10.39199 -10.38896
 Alpha  occ. eigenvalues --  -10.35593 -10.35293 -10.34495 -10.34053 -10.31790
 Alpha  occ. eigenvalues --  -10.31551 -10.31537 -10.31162 -10.31055 -10.30883
 Alpha  occ. eigenvalues --  -10.30699 -10.30635 -10.30338 -10.30267 -10.30224
 Alpha  occ. eigenvalues --  -10.30039 -10.30027 -10.29765 -10.29759 -10.29390
 Alpha  occ. eigenvalues --  -10.29316 -10.29274 -10.28906 -10.28734 -10.28544
 Alpha  occ. eigenvalues --  -10.28521 -10.28500 -10.28267 -10.28263 -10.27975
 Alpha  occ. eigenvalues --  -10.27918 -10.27868 -10.27864 -10.27720 -10.27642
 Alpha  occ. eigenvalues --  -10.27607 -10.27555 -10.27540 -10.27537 -10.27416
 Alpha  occ. eigenvalues --  -10.27385 -10.27343 -10.27341 -10.27275 -10.27272
 Alpha  occ. eigenvalues --  -10.26900 -10.26852 -10.26576 -10.26550 -10.26361
 Alpha  occ. eigenvalues --  -10.26341 -10.26277 -10.26144 -10.26048 -10.25921
 Alpha  occ. eigenvalues --  -10.25816 -10.25811 -10.25716 -10.25530 -10.25301
 Alpha  occ. eigenvalues --  -10.24955 -10.24916 -10.24786 -10.24734 -10.24645
 Alpha  occ. eigenvalues --  -10.24562  -3.16679  -3.16280  -1.91561  -1.91162
 Alpha  occ. eigenvalues --   -1.91147  -1.90989  -1.90750  -1.90587  -1.16749
 Alpha  occ. eigenvalues --   -1.16434  -1.08729  -1.08481  -1.07359  -1.06867
 Alpha  occ. eigenvalues --   -1.06761  -1.06752  -1.04720  -1.04356  -1.03892
 Alpha  occ. eigenvalues --   -1.03532  -1.03366  -1.02911  -1.02542  -1.01980
 Alpha  occ. eigenvalues --   -0.92099  -0.91835  -0.89637  -0.89374  -0.89338
 Alpha  occ. eigenvalues --   -0.88991  -0.88402  -0.88107  -0.87983  -0.87812
 Alpha  occ. eigenvalues --   -0.87658  -0.87551  -0.87418  -0.87014  -0.85131
 Alpha  occ. eigenvalues --   -0.84855  -0.84046  -0.83762  -0.83110  -0.82834
 Alpha  occ. eigenvalues --   -0.82789  -0.82513  -0.81708  -0.81433  -0.80728
 Alpha  occ. eigenvalues --   -0.80296  -0.78932  -0.78517  -0.77349  -0.77067
 Alpha  occ. eigenvalues --   -0.77013  -0.76750  -0.76053  -0.75679  -0.75012
 Alpha  occ. eigenvalues --   -0.74679  -0.72898  -0.72568  -0.71798  -0.71439
 Alpha  occ. eigenvalues --   -0.70016  -0.69652  -0.69016  -0.68686  -0.67772
 Alpha  occ. eigenvalues --   -0.67469  -0.67381  -0.67071  -0.65431  -0.65118
 Alpha  occ. eigenvalues --   -0.64980  -0.64750  -0.64632  -0.64504  -0.64388
 Alpha  occ. eigenvalues --   -0.64083  -0.62416  -0.62108  -0.60578  -0.60227
 Alpha  occ. eigenvalues --   -0.59947  -0.59644  -0.59113  -0.58856  -0.58629
 Alpha  occ. eigenvalues --   -0.58284  -0.57702  -0.57431  -0.57380  -0.57107
 Alpha  occ. eigenvalues --   -0.56436  -0.56105  -0.56072  -0.55718  -0.55654
 Alpha  occ. eigenvalues --   -0.55451  -0.55316  -0.55111  -0.54637  -0.54341
 Alpha  occ. eigenvalues --   -0.54046  -0.53758  -0.53431  -0.53363  -0.53102
 Alpha  occ. eigenvalues --   -0.53042  -0.53001  -0.52906  -0.52755  -0.52553
 Alpha  occ. eigenvalues --   -0.52544  -0.52296  -0.52015  -0.51767  -0.51747
 Alpha  occ. eigenvalues --   -0.51520  -0.51316  -0.51056  -0.50727  -0.50381
 Alpha  occ. eigenvalues --   -0.50151  -0.50059  -0.49852  -0.49755  -0.49656
 Alpha  occ. eigenvalues --   -0.49358  -0.49342  -0.49229  -0.49056  -0.48944
 Alpha  occ. eigenvalues --   -0.48714  -0.48591  -0.48563  -0.48405  -0.48259
 Alpha  occ. eigenvalues --   -0.48214  -0.47829  -0.47461  -0.47426  -0.46998
 Alpha  occ. eigenvalues --   -0.46923  -0.46704  -0.46579  -0.46484  -0.46411
 Alpha  occ. eigenvalues --   -0.46278  -0.46146  -0.45948  -0.45933  -0.45664
 Alpha  occ. eigenvalues --   -0.45316  -0.45090  -0.44698  -0.44646  -0.44365
 Alpha  occ. eigenvalues --   -0.44339  -0.44270  -0.44229  -0.44145  -0.43981
 Alpha  occ. eigenvalues --   -0.43959  -0.43805  -0.43612  -0.43521  -0.43395
 Alpha  occ. eigenvalues --   -0.43242  -0.43151  -0.42816  -0.42778  -0.42767
 Alpha  occ. eigenvalues --   -0.42727  -0.42442  -0.42132  -0.41839  -0.41828
 Alpha  occ. eigenvalues --   -0.41680  -0.41519  -0.41321  -0.41270  -0.41011
 Alpha  occ. eigenvalues --   -0.40973  -0.40847  -0.40688  -0.40607  -0.40568
 Alpha  occ. eigenvalues --   -0.40409  -0.40368  -0.40084  -0.39550  -0.39323
 Alpha  occ. eigenvalues --   -0.38591  -0.38234  -0.37911  -0.37518  -0.37443
 Alpha  occ. eigenvalues --   -0.37412  -0.37142  -0.37058  -0.36830  -0.36595
 Alpha  occ. eigenvalues --   -0.36315  -0.36075  -0.34417  -0.34118  -0.33893
 Alpha  occ. eigenvalues --   -0.33684  -0.33316  -0.33042  -0.31487  -0.31171
 Alpha  occ. eigenvalues --   -0.31167  -0.30837  -0.30132  -0.29780  -0.29586
 Alpha  occ. eigenvalues --   -0.29445  -0.29205  -0.29074  -0.24213  -0.23901
 Alpha  occ. eigenvalues --   -0.21259  -0.20986
 Alpha virt. eigenvalues --   -0.08906  -0.08661  -0.01884  -0.01557  -0.00198
 Alpha virt. eigenvalues --    0.00095   0.02084   0.02355   0.02934   0.03344
 Alpha virt. eigenvalues --    0.04573   0.04866   0.04978   0.05355   0.06011

 Mulliken charges:
               1
     1  Mg   0.837746
     2  C   -0.003278
     3  C   -0.094669
     4  C   -0.045827
     5  C   -0.063712
     6  N   -0.256758
     7  C   -0.052663
     8  C   -0.013825
     9  C   -0.086872
    10  C    0.045926
    11  C    0.104768
    12  C    0.053637
    13  C   -0.071597
    14  H    0.035447
    15  N   -0.433118
    16  C    0.167929
    17  C   -0.177608
    18  C   -0.004252
    19  C    0.148456
    20  C    0.110217
    21  C    0.011952
    22  O   -0.249380
    23  C    0.062734
    24  N   -0.341092
    25  C    0.041180
    26  C   -0.028182
    27  C   -0.024139
    28  C    0.074908
    29  C    0.076082
    30  C    0.035067
    31  C   -0.004541
    32  N   -0.310607
    33  C    0.080505
    34  C   -0.169185
    35  C    0.008714
    36  C    0.082972
    37  C    0.127162
    38  C    0.046492
    39  O   -0.187435
    40  C   -0.005468
    41  C    0.213181
    42  O   -0.257409
    43  O   -0.304703
    44  C    0.157498
    45  H   -0.017607
    46  H   -0.016675
    47  H   -0.040945
    48  H    0.001324
    49  H   -0.004415
    50  H    0.025718
    51  H    0.016640
    52  H    0.016770
    53  H    0.010083
    54  H    0.043670
    55  H    0.018574
    56  H    0.017625
    57  H    0.005767
    58  H    0.027107
    59  H    0.038469
    60  H    0.037602
    61  H    0.035750
    62  H    0.030391
    63  H    0.016589
    64  H    0.009793
    65  H    0.023399
    66  H    0.012569
    67  H    0.005009
    68  H    0.006658
    69  H    0.005139
    70  H    0.008711
    71  H    0.018597
    72  H    0.028505
    73  H    0.048410
    74  H    0.009434
    75  H    0.046290
    76  H    0.035424
    77  H    0.043587
    78  H    0.045944
    79  H    0.053838
    80  Mg   0.837752
    81  C   -0.016790
    82  C   -0.087820
    83  C   -0.045666
    84  C   -0.065103
    85  N   -0.254577
    86  C   -0.049442
    87  C   -0.015459
    88  C   -0.090621
    89  C    0.045856
    90  C    0.114378
    91  C    0.062571
    92  C   -0.077700
    93  H    0.034020
    94  N   -0.423451
    95  C    0.162822
    96  C   -0.174853
    97  C   -0.008051
    98  C    0.152035
    99  C    0.099560
   100  C    0.015388
   101  O   -0.253457
   102  C    0.061290
   103  N   -0.350087
   104  C    0.037459
   105  C   -0.019769
   106  C   -0.034802
   107  C    0.089041
   108  C    0.073735
   109  C    0.034792
   110  C   -0.007629
   111  N   -0.324247
   112  C    0.078671
   113  C   -0.163192
   114  C    0.002676
   115  C    0.096066
   116  C    0.131463
   117  C    0.042669
   118  O   -0.186969
   119  C    0.000820
   120  C    0.211010
   121  O   -0.251768
   122  O   -0.304394
   123  C    0.152409
   124  H   -0.020251
   125  H   -0.015894
   126  H   -0.040636
   127  H    0.001759
   128  H   -0.005263
   129  H    0.025027
   130  H    0.013885
   131  H    0.015706
   132  H    0.013294
   133  H    0.037594
   134  H    0.022118
   135  H    0.018578
   136  H    0.008204
   137  H    0.025704
   138  H    0.039265
   139  H    0.038023
   140  H    0.036063
   141  H    0.033662
   142  H    0.014148
   143  H    0.012309
   144  H    0.024840
   145  H    0.011744
   146  H    0.005485
   147  H    0.006016
   148  H    0.003579
   149  H    0.010795
   150  H    0.017736
   151  H    0.030242
   152  H    0.046014
   153  H    0.008169
   154  H    0.047426
   155  H    0.037633
   156  H    0.044511
   157  H    0.049023
   158  H    0.052855
 Sum of Mulliken charges =  -0.00000

 Dipole moment (field-independent basis, Debye):
    X=             -4.7468    Y=             -4.4957    Z=             -5.8003  Tot=              8.7399
 Quadrupole moment (field-independent basis, Debye-Ang):
   XX=           -511.3527   YY=           -565.1948   ZZ=           -447.7154
   XY=             -3.2055   XZ=             31.8864   YZ=            -24.0097

 Normal termination of Gaussian 16 at Sat Sep 11 13:47:21 2021.
