 Gaussian 16, Revision A.03,
 Gaussian 16:  ES64L-G16RevA.03 25-Dec-2016

 -----------------------------------
 #p cam-b3lyp/Def2SVP td=(nstates=5)
 -----------------------------------

 --------------------------------
 TDDFT excited states in gaussian
 --------------------------------
 Symbolic Z-matrix:
 Charge =  0 Multiplicity = 1

                         Standard orientation:
 ---------------------------------------------------------------------
 Center     Atomic      Atomic             Coordinates (Angstroms)
 Number     Number       Type             X           Y           Z
 ---------------------------------------------------------------------
      1         12           0        4.815062    1.042824    0.561205
      2          6           0        5.463749   -2.149023   -0.923224
      3          6           0        5.788622    2.447814   -2.391971
      4          6           0        4.685825    3.871294    1.989376
      5          6           0        4.992473   -0.530005    3.666103
      6          7           0        5.514056    0.156704   -1.343222
      7          6           0        5.660832   -1.082065   -1.802658
      8          6           0        5.970513   -1.142507   -3.328376
      9          6           0        6.595840    0.312043   -3.516127
     10          6           0        5.898920    1.025691   -2.371167
     11          6           0        8.102221    0.362473   -3.282084
     12          6           0        4.676556   -1.325511   -4.190882
     13          6           0        4.915174   -1.719093   -5.651536
     14          1           0        3.974193   -2.622739   -6.295995
     15          7           0        4.709973    2.860996   -0.204337
     16          6           0        5.139905    3.250309   -1.428625
     17          6           0        4.838943    4.694825   -1.525970
     18          6           0        4.372616    5.153631   -0.188013
     19          6           0        4.598665    3.970882    0.602801
     20          6           0        4.955544    5.475647   -2.798948
     21          6           0        3.822000    6.455273    0.302582
     22          8           0        3.697036    6.714662    1.548244
     23          6           0        3.511299    7.465999   -0.724521
     24          7           0        5.052787    1.643504    2.546225
     25          6           0        4.888115    2.921479    2.904896
     26          6           0        4.826848    3.066386    4.396602
     27          6           0        4.740409    1.583147    4.981651
     28          6           0        4.855890    0.797854    3.651896
     29          6           0        6.006090    3.803376    5.046407
     30          6           0        3.551966    1.267104    5.924063
     31          6           0        2.255144    1.311577    5.147293
     32          7           0        4.987273   -0.999696    1.274999
     33          6           0        5.066207   -1.422542    2.609782
     34          6           0        5.281795   -2.881018    2.588867
     35          6           0        5.330176   -3.204956    1.234405
     36          6           0        5.182107   -2.019958    0.458423
     37          6           0        5.463152   -3.713058    3.728715
     38          6           0        5.497159   -4.273085    0.262255
     39          8           0        5.567861   -5.501220    0.326898
     40          6           0        5.712265   -3.615921   -1.172211
     41          6           0        4.806222   -4.328407   -2.139040
     42          8           0        3.565867   -4.225482   -2.047973
     43          8           0        5.535835   -4.820100   -3.152176
     44          6           0        4.693519   -5.514094   -4.162637
     45          1           0        6.293473    3.004848   -3.183665
     46          1           0        4.534983    4.811401    2.524057
     47          1           0        4.973131   -1.100680    4.596377
     48          1           0        6.699490   -1.900899   -3.614482
     49          1           0        6.311479    0.757322   -4.469325
     50          1           0        8.477689   -0.585889   -2.897957
     51          1           0        8.256872    1.157009   -2.551818
     52          1           0        8.624130    0.679844   -4.185225
     53          1           0        4.200807   -0.355550   -4.335444
     54          1           0        4.003452   -2.048093   -3.728138
     55          1           0        5.939535   -2.056955   -5.811045
     56          1           0        4.826833   -0.822795   -6.265576
     57          1           0        5.478754    4.910246   -3.569090
     58          1           0        5.608594    6.323637   -2.593650
     59          1           0        3.987905    5.833595   -3.150915
     60          1           0        4.416077    7.697431   -1.286983
     61          1           0        3.044666    8.297170   -0.197018
     62          1           0        2.807135    7.038528   -1.438924
     63          1           0        3.940306    3.622049    4.699435
     64          1           0        5.621623    1.322959    5.568539
     65          1           0        5.708875    4.670788    5.636291
     66          1           0        6.702274    4.086831    4.257565
     67          1           0        6.638639    3.183478    5.681250
     68          1           0        3.481059    2.018331    6.709923
     69          1           0        3.630893    0.291546    6.403968
     70          1           0        2.008776    2.372770    5.145427
     71          1           0        1.485282    0.732947    5.658871
     72          1           0        2.401745    1.009274    4.110179
     73          1           0        4.864226   -4.606499    3.552588
     74          1           0        5.156960   -3.204746    4.642754
     75          1           0        6.538868   -3.882877    3.685659
     76          1           0        6.764178   -3.748567   -1.423222
     77          1           0        5.087933   -6.524629   -4.269831
     78          1           0        4.684268   -4.878002   -5.047909
     79          1           0        3.664429   -5.724853   -3.869562
     80         12           0       -5.675144   -0.029940   -0.282105
     81          6           0       -2.935168   -2.235343    0.430470
     82          6           0       -3.378921    2.468197   -0.630389
     83          6           0       -8.085725    2.024795   -0.468154
     84          6           0       -7.771647   -2.375040    1.218186
     85          7           0       -3.470906   -0.010302   -0.099843
     86          6           0       -2.533156   -0.920965    0.113843
     87          6           0       -1.082104   -0.411998   -0.098215
     88          6           0       -1.338885    1.154546    0.144416
     89          6           0       -2.812235    1.224966   -0.251771
     90          6           0       -1.216109    1.565808    1.602202
     91          6           0       -0.557482   -0.689881   -1.550644
     92          6           0        0.949566   -0.500755   -1.737212
     93          1           0        1.654165   -1.390237   -2.656344
     94          7           0       -5.730296    1.824779   -0.986068
     95          6           0       -4.700189    2.692009   -1.075922
     96          6           0       -5.263070    3.928155   -1.640957
     97          6           0       -6.741105    3.775537   -1.723679
     98          6           0       -6.915435    2.516289   -1.027981
     99          6           0       -4.409654    5.068877   -2.114083
    100          6           0       -7.820446    4.628833   -2.317911
    101          8           0       -9.059611    4.419601   -2.065854
    102          6           0       -7.379603    5.773460   -3.128452
    103          7           0       -7.610575   -0.054574    0.476726
    104          6           0       -8.472750    0.940543    0.204108
    105          6           0       -9.877185    0.575232    0.621828
    106          6           0       -9.819822   -0.974502    1.012497
    107          6           0       -8.306847   -1.225596    0.830211
    108          6           0      -10.452268    1.373708    1.791486
    109          6           0      -10.818301   -1.919851    0.289981
    110          6           0      -10.468166   -2.016075   -1.177517
    111          7           0       -5.462526   -2.035223    0.493564
    112          6           0       -6.462692   -2.825021    1.101822
    113          6           0       -5.812607   -4.066343    1.569707
    114          6           0       -4.464201   -3.901274    1.218929
    115          6           0       -4.282768   -2.637045    0.595781
    116          6           0       -6.453621   -5.129702    2.265767
    117          6           0       -3.151117   -4.504513    1.243629
    118          8           0       -2.706477   -5.604511    1.569279
    119          6           0       -2.079671   -3.399164    0.847924
    120          6           0       -1.156313   -3.994158   -0.179660
    121          8           0       -1.582024   -4.309445   -1.304813
    122          8           0        0.112523   -3.891600    0.256108
    123          6           0        1.066684   -4.458278   -0.733984
    124          1           0       -2.767706    3.366442   -0.538496
    125          1           0       -8.971923    2.648954   -0.604331
    126          1           0       -8.374893   -3.197787    1.607874
    127          1           0       -0.360369   -0.785801    0.618115
    128          1           0       -0.734741    1.762062   -0.524381
    129          1           0       -1.092354    0.712591    2.252467
    130          1           0       -2.132310    2.091299    1.837768
    131          1           0       -0.410643    2.296132    1.721283
    132          1           0       -0.929816    0.094560   -2.222029
    133          1           0       -0.841649   -1.671359   -1.877120
    134          1           0        1.479243   -0.440728   -0.778681
    135          1           0        1.122299    0.473766   -2.200355
    136          1           0       -3.372222    4.963336   -1.773504
    137          1           0       -4.771397    5.970321   -1.607717
    138          1           0       -4.471034    5.221280   -3.193750
    139          1           0       -6.754015    6.425064   -2.523054
    140          1           0       -8.292268    6.209016   -3.539813
    141          1           0       -6.750016    5.402260   -3.944812
    142          1           0      -10.571102    0.705129   -0.199576
    143          1           0      -10.038709   -1.134352    2.078511
    144          1           0      -11.401522    1.885996    1.545429
    145          1           0       -9.707518    2.088302    2.115897
    146          1           0      -10.631980    0.799382    2.698709
    147          1           0      -11.830803   -1.511990    0.341391
    148          1           0      -10.851379   -2.918184    0.713342
    149          1           0      -10.944069   -1.127744   -1.603522
    150          1           0      -10.875759   -2.927776   -1.609615
    151          1           0       -9.387385   -1.916941   -1.331584
    152          1           0       -6.091148   -6.050808    1.829101
    153          1           0       -7.536794   -5.054844    2.195655
    154          1           0       -6.094115   -4.942813    3.281196
    155          1           0       -1.550422   -3.115188    1.758319
    156          1           0        1.658163   -5.215692   -0.210371
    157          1           0        1.613538   -3.592050   -1.151512
    158          1           0        0.655052   -5.039062   -1.551117
 ---------------------------------------------------------------------

 SCF Done:  E(RCAM-B3LYP) =  -4069.81543183     A.U. after   19 cycles

 Excitation energies and oscillator strengths:

 Excited State   1:      Singlet-A      1.6505 eV  751.20 nm  f=0.0040  <S**2>=0.000
     309 -> 315        0.12376
     310 -> 316       -0.11255
     311 -> 313        0.50514
     312 -> 314       -0.46642
 This state for optimization and/or second-order correction.
 Total Energy, E(TD-HF/TD-DFT) =  -4069.75477800
 Copying the excited state density for this state as the 1-particle RhoCI density.

 Excited State   2:      Singlet-A      1.6975 eV  730.37 nm  f=0.7015  <S**2>=0.000
     309 -> 315        0.12234
     310 -> 316        0.13090
     311 -> 313        0.46427
     312 -> 314        0.50293

 Excited State   3:      Singlet-A      2.1810 eV  568.48 nm  f=0.1087  <S**2>=0.000
     310 -> 314        0.63992
     312 -> 316       -0.26891

 Excited State   4:      Singlet-A      2.1944 eV  565.02 nm  f=0.0941  <S**2>=0.000
     309 -> 313        0.63726
     311 -> 315       -0.27679

 Excited State   5:      Singlet-A      2.2880 eV  541.89 nm  f=0.0000  <S**2>=0.000
     312 -> 313        0.70617

 The electronic state is 1-A.
 Alpha  occ. eigenvalues --  -46.88296 -46.87279 -19.27181 -19.24435 -19.20188
 Alpha  occ. eigenvalues --  -19.19280 -19.18714 -19.18412 -19.17815 -19.17485
 Alpha  occ. eigenvalues --  -14.42903 -14.42113 -14.41915 -14.40977 -14.39886
 Alpha  occ. eigenvalues --  -14.39064 -14.38976 -14.38202 -10.40175 -10.37744
 Alpha  occ. eigenvalues --  -10.35911 -10.35098 -10.34948 -10.33622 -10.32299
 Alpha  occ. eigenvalues --  -10.31862 -10.31411 -10.31034 -10.30974 -10.30883
 Alpha  occ. eigenvalues --  -10.30645 -10.30592 -10.30364 -10.30086 -10.30011
 Alpha  occ. eigenvalues --  -10.29946 -10.29817 -10.29705 -10.29517 -10.29222
 Alpha  occ. eigenvalues --  -10.29093 -10.29020 -10.28938 -10.28873 -10.28687
 Alpha  occ. eigenvalues --  -10.28548 -10.28247 -10.28212 -10.28169 -10.28050
 Alpha  occ. eigenvalues --  -10.28032 -10.27974 -10.27918 -10.27909 -10.27875
 Alpha  occ. eigenvalues --  -10.27832 -10.27818 -10.27717 -10.27608 -10.27298
 Alpha  occ. eigenvalues --  -10.27236 -10.27224 -10.27207 -10.27094 -10.27084
 Alpha  occ. eigenvalues --  -10.27019 -10.26872 -10.26613 -10.26524 -10.26451
 Alpha  occ. eigenvalues --  -10.26242 -10.26193 -10.26127 -10.26109 -10.25891
 Alpha  occ. eigenvalues --  -10.25769 -10.25644 -10.25573 -10.25511 -10.25303
 Alpha  occ. eigenvalues --  -10.25252 -10.25141 -10.25071 -10.24491 -10.24453
 Alpha  occ. eigenvalues --  -10.24306  -3.17021  -3.16030  -1.91905  -1.91489
 Alpha  occ. eigenvalues --   -1.91332  -1.90912  -1.90500  -1.90337  -1.17569
 Alpha  occ. eigenvalues --   -1.14896  -1.09208  -1.08030  -1.07804  -1.07682
 Alpha  occ. eigenvalues --   -1.06671  -1.05533  -1.05047  -1.04219  -1.04090
 Alpha  occ. eigenvalues --   -1.03702  -1.03277  -1.02876  -1.02662  -1.01723
 Alpha  occ. eigenvalues --   -0.92509  -0.91464  -0.89957  -0.89635  -0.89125
 Alpha  occ. eigenvalues --   -0.88704  -0.88698  -0.88273  -0.88122  -0.87882
 Alpha  occ. eigenvalues --   -0.87731  -0.87412  -0.87277  -0.86797  -0.85444
 Alpha  occ. eigenvalues --   -0.84535  -0.84370  -0.83500  -0.83417  -0.83136
 Alpha  occ. eigenvalues --   -0.82631  -0.82156  -0.82141  -0.81095  -0.80701
 Alpha  occ. eigenvalues --   -0.79449  -0.79242  -0.78276  -0.77648  -0.77411
 Alpha  occ. eigenvalues --   -0.76736  -0.76406  -0.76246  -0.75323  -0.75047
 Alpha  occ. eigenvalues --   -0.74119  -0.73211  -0.72308  -0.72126  -0.71077
 Alpha  occ. eigenvalues --   -0.70302  -0.69437  -0.69332  -0.68354  -0.68121
 Alpha  occ. eigenvalues --   -0.67685  -0.67129  -0.66749  -0.65773  -0.65382
 Alpha  occ. eigenvalues --   -0.65104  -0.64764  -0.64705  -0.64351  -0.63982
 Alpha  occ. eigenvalues --   -0.63659  -0.62931  -0.60993  -0.60893  -0.60256
 Alpha  occ. eigenvalues --   -0.59996  -0.59470  -0.59363  -0.59020  -0.58529
 Alpha  occ. eigenvalues --   -0.58279  -0.57906  -0.57782  -0.56959  -0.56836
 Alpha  occ. eigenvalues --   -0.56588  -0.56504  -0.56068  -0.55913  -0.55811
 Alpha  occ. eigenvalues --   -0.55278  -0.55146  -0.54831  -0.54430  -0.54332
 Alpha  occ. eigenvalues --   -0.53783  -0.53752  -0.53561  -0.53530  -0.53423
 Alpha  occ. eigenvalues --   -0.53224  -0.52848  -0.52691  -0.52638  -0.52351
 Alpha  occ. eigenvalues --   -0.52245  -0.52191  -0.52087  -0.51754  -0.51630
 Alpha  occ. eigenvalues --   -0.51467  -0.51093  -0.51017  -0.50560  -0.50421
 Alpha  occ. eigenvalues --   -0.50357  -0.50192  -0.49992  -0.49736  -0.49627
 Alpha  occ. eigenvalues --   -0.49550  -0.49506  -0.49144  -0.49085  -0.48958
 Alpha  occ. eigenvalues --   -0.48887  -0.48686  -0.48605  -0.48173  -0.48058
 Alpha  occ. eigenvalues --   -0.47862  -0.47794  -0.47751  -0.47254  -0.47078
 Alpha  occ. eigenvalues --   -0.47064  -0.46868  -0.46669  -0.46488  -0.46332
 Alpha  occ. eigenvalues --   -0.46215  -0.46050  -0.45866  -0.45626  -0.45442
 Alpha  occ. eigenvalues --   -0.45119  -0.44938  -0.44932  -0.44788  -0.44613
 Alpha  occ. eigenvalues --   -0.44527  -0.44492  -0.44092  -0.44066  -0.43882
 Alpha  occ. eigenvalues --   -0.43835  -0.43701  -0.43633  -0.43550  -0.43479
 Alpha  occ. eigenvalues --   -0.43221  -0.43080  -0.42951  -0.42466  -0.42390
 Alpha  occ. eigenvalues --   -0.42263  -0.42223  -0.42123  -0.41978  -0.41589
 Alpha  occ. eigenvalues --   -0.41537  -0.41315  -0.41288  -0.41120  -0.41000
 Alpha  occ. eigenvalues --   -0.40992  -0.40882  -0.40738  -0.40518  -0.40378
 Alpha  occ. eigenvalues --   -0.40235  -0.39987  -0.39830  -0.39748  -0.39129
 Alpha  occ. eigenvalues --   -0.38875  -0.38235  -0.37997  -0.37819  -0.37745
 Alpha  occ. eigenvalues --   -0.37535  -0.37096  -0.36892  -0.36761  -0.36606
 Alpha  occ. eigenvalues --   -0.36014  -0.35052  -0.34768  -0.34665  -0.33844
 Alpha  occ. eigenvalues --   -0.33676  -0.32932  -0.32496  -0.31810  -0.31520
 Alpha  occ. eigenvalues --   -0.30967  -0.30575  -0.30525  -0.29920  -0.29782
 Alpha  occ. eigenvalues --   -0.29355  -0.28964  -0.28799  -0.24564  -0.23620
 Alpha  occ. eigenvalues --   -0.21580  -0.20740
 Alpha virt. eigenvalues --   -0.09241  -0.08401  -0.02216  -0.01315  -0.00536
 Alpha virt. eigenvalues --    0.00324   0.01704   0.02059   0.02666   0.03585
 Alpha virt. eigenvalues --    0.03835   0.04260   0.05193   0.05673   0.06322

 Mulliken charges:
               1
     1  Mg   0.826438
     2  C   -0.003809
     3  C   -0.093128
     4  C   -0.046216
     5  C   -0.062333
     6  N   -0.256117
     7  C   -0.053893
     8  C   -0.012506
     9  C   -0.087578
    10  C    0.046808
    11  C    0.104507
    12  C    0.042037
    13  C   -0.072562
    14  H    0.038642
    15  N   -0.432985
    16  C    0.167656
    17  C   -0.177512
    18  C   -0.004647
    19  C    0.148063
    20  C    0.110110
    21  C    0.010829
    22  O   -0.249057
    23  C    0.063018
    24  N   -0.340071
    25  C    0.041664
    26  C   -0.028237
    27  C   -0.024337
    28  C    0.073932
    29  C    0.075829
    30  C    0.034947
    31  C   -0.005399
    32  N   -0.310876
    33  C    0.080429
    34  C   -0.167111
    35  C    0.009262
    36  C    0.081969
    37  C    0.126799
    38  C    0.045427
    39  O   -0.187068
    40  C   -0.008970
    41  C    0.225676
    42  O   -0.257782
    43  O   -0.301297
    44  C    0.155206
    45  H   -0.017041
    46  H   -0.016280
    47  H   -0.039793
    48  H    0.000816
    49  H   -0.003211
    50  H    0.025847
    51  H    0.017120
    52  H    0.017796
    53  H    0.013728
    54  H    0.048717
    55  H    0.018590
    56  H    0.019230
    57  H    0.006673
    58  H    0.027855
    59  H    0.038848
    60  H    0.038593
    61  H    0.036228
    62  H    0.029604
    63  H    0.016433
    64  H    0.010657
    65  H    0.023964
    66  H    0.012855
    67  H    0.005759
    68  H    0.007535
    69  H    0.006433
    70  H    0.008466
    71  H    0.020097
    72  H    0.026923
    73  H    0.050280
    74  H    0.010621
    75  H    0.046663
    76  H    0.037666
    77  H    0.047038
    78  H    0.049542
    79  H    0.054354
    80  Mg   0.836476
    81  C   -0.015586
    82  C   -0.088268
    83  C   -0.046336
    84  C   -0.066290
    85  N   -0.254049
    86  C   -0.049962
    87  C   -0.016874
    88  C   -0.091123
    89  C    0.045091
    90  C    0.111401
    91  C    0.070297
    92  C   -0.102733
    93  H    0.055772
    94  N   -0.423280
    95  C    0.162135
    96  C   -0.175261
    97  C   -0.008796
    98  C    0.151848
    99  C    0.099776
   100  C    0.014905
   101  O   -0.254195
   102  C    0.061516
   103  N   -0.350379
   104  C    0.037185
   105  C   -0.019496
   106  C   -0.034796
   107  C    0.089452
   108  C    0.074015
   109  C    0.034964
   110  C   -0.007527
   111  N   -0.324244
   112  C    0.079052
   113  C   -0.164023
   114  C    0.002961
   115  C    0.095494
   116  C    0.131597
   117  C    0.041034
   118  O   -0.185923
   119  C    0.004197
   120  C    0.210790
   121  O   -0.257073
   122  O   -0.309351
   123  C    0.148886
   124  H   -0.020178
   125  H   -0.016717
   126  H   -0.041347
   127  H    0.001536
   128  H   -0.005395
   129  H    0.022875
   130  H    0.013921
   131  H    0.018469
   132  H    0.009084
   133  H    0.040258
   134  H    0.030090
   135  H    0.017712
   136  H    0.007617
   137  H    0.025342
   138  H    0.037802
   139  H    0.037766
   140  H    0.035341
   141  H    0.033047
   142  H    0.013683
   143  H    0.011813
   144  H    0.024288
   145  H    0.011499
   146  H    0.004953
   147  H    0.005504
   148  H    0.003322
   149  H    0.010518
   150  H    0.017312
   151  H    0.030645
   152  H    0.046195
   153  H    0.007624
   154  H    0.046325
   155  H    0.033189
   156  H    0.040194
   157  H    0.069647
   158  H    0.038430
 Sum of Mulliken charges =  -0.00000

 Dipole moment (field-independent basis, Debye):
    X=              5.0673    Y=              6.6406    Z=             -2.4287  Tot=              8.6991
 Quadrupole moment (field-independent basis, Debye-Ang):
   XX=           -489.8393   YY=           -553.3868   ZZ=           -469.8136
   XY=             23.7200   XZ=            -32.2619   YZ=            -10.8214

 Normal termination of Gaussian 16 at Fri Sep 10 19:20:01 2021.
