 Gaussian 16, Revision A.03,
 Gaussian 16:  ES64L-G16RevA.03 25-Dec-2016

 -----------------------------------
 #p cam-b3lyp/Def2SVP td=(nstates=5)
 -----------------------------------

 --------------------------------
 TDDFT excited states in gaussian
 --------------------------------
 Symbolic Z-matrix:
 Charge =  0 Multiplicity = 1

                         Standard orientation:
 ---------------------------------------------------------------------
 Center     Atomic      Atomic             Coordinates (Angstroms)
 Number     Number       Type             X           Y           Z
 ---------------------------------------------------------------------
      1         12           0       -3.944602   -0.354461    0.195726
      2          6           0       -3.752180    3.212591    0.422281
      3          6           0       -4.881228    0.051665   -3.060170
      4          6           0       -4.559995   -3.463872    0.098385
      5          6           0       -4.107458   -0.419195    3.676379
      6          7           0       -4.241667    1.453071   -1.047345
      7          6           0       -4.076959    2.758510   -0.857944
      8          6           0       -4.207889    3.594009   -2.166443
      9          6           0       -5.101774    2.586735   -3.019888
     10          6           0       -4.692139    1.281035   -2.361654
     11          6           0       -6.601114    2.786566   -2.823554
     12          6           0       -2.822389    3.850027   -2.849507
     13          6           0       -2.821024    4.922797   -3.942447
     14          1           0       -1.649968    5.774428   -4.086328
     15          7           0       -4.145010   -1.573176   -1.346163
     16          6           0       -4.518362   -1.233871   -2.603449
     17          6           0       -4.518874   -2.491203   -3.381778
     18          6           0       -4.299871   -3.615608   -2.430018
     19          6           0       -4.353039   -2.922532   -1.168195
     20          6           0       -4.664730   -2.536429   -4.871889
     21          6           0       -4.088351   -5.083588   -2.626039
     22          8           0       -4.149864   -5.915044   -1.656775
     23          6           0       -3.892387   -5.539483   -4.014131
     24          7           0       -4.506687   -1.737162    1.655121
     25          6           0       -4.651822   -3.033238    1.358293
     26          6           0       -4.776633   -3.866888    2.599015
     27          6           0       -4.441675   -2.894502    3.820498
     28          6           0       -4.251887   -1.577363    3.028416
     29          6           0       -6.144916   -4.523150    2.829522
     30          6           0       -3.317135   -3.342104    4.787701
     31          6           0       -1.985441   -3.320816    4.071295
     32          7           0       -3.757028    1.095477    1.799951
     33          6           0       -3.882795    0.852161    3.175325
     34          6           0       -3.784140    2.156607    3.855586
     35          6           0       -3.623391    3.075980    2.820811
     36          6           0       -3.648044    2.392289    1.571711
     37          6           0       -3.903488    2.377247    5.256124
     38          6           0       -3.461225    4.479678    2.478479
     39          8           0       -3.278878    5.513847    3.122479
     40          6           0       -3.660233    4.638286    0.906516
     41          6           0       -2.529992    5.485337    0.388472
     42          8           0       -1.355041    5.065209    0.407138
     43          8           0       -3.031602    6.547834   -0.259625
     44          6           0       -1.962701    7.414350   -0.824207
     45          1           0       -5.407272    0.063629   -4.016766
     46          1           0       -4.665833   -4.550548    0.117680
     47          1           0       -4.064897   -0.370700    4.766007
     48          1           0       -4.727946    4.544821   -2.048455
     49          1           0       -4.820370    2.584945   -4.072756
     50          1           0       -6.806775    3.504261   -2.029489
     51          1           0       -6.993607    1.804256   -2.559908
     52          1           0       -7.081941    3.058965   -3.763438
     53          1           0       -2.548490    2.978743   -3.444406
     54          1           0       -2.064061    4.093400   -2.104501
     55          1           0       -3.729599    5.524811   -3.911167
     56          1           0       -2.859870    4.423845   -4.910815
     57          1           0       -4.975272   -1.572609   -5.273334
     58          1           0       -5.498832   -3.203043   -5.090080
     59          1           0       -3.762727   -2.903782   -5.361557
     60          1           0       -4.762589   -5.263182   -4.609911
     61          1           0       -3.667588   -6.603665   -3.952221
     62          1           0       -3.044300   -5.006146   -4.444537
     63          1           0       -4.062559   -4.689359    2.590990
     64          1           0       -5.304416   -2.740312    4.469018
     65          1           0       -6.098881   -5.607756    2.930593
     66          1           0       -6.799862   -4.234398    2.007963
     67          1           0       -6.695342   -4.142543    3.689514
     68          1           0       -3.486974   -4.366101    5.118654
     69          1           0       -3.238656   -2.715172    5.675985
     70          1           0       -1.968437   -4.282885    3.560446
     71          1           0       -1.168292   -3.245643    4.789507
     72          1           0       -1.957484   -2.544955    3.305957
     73          1           0       -3.115480    3.081680    5.522181
     74          1           0       -3.806814    1.445733    5.813385
     75          1           0       -4.909282    2.793582    5.309967
     76          1           0       -4.629222    5.114331    0.759675
     77          1           0       -2.123020    8.418658   -0.431910
     78          1           0       -1.995836    7.282375   -1.905821
     79          1           0       -0.948169    7.216999   -0.476188
     80         12           0        3.949806   -1.213064   -0.054250
     81          6           0        4.139579    2.363543    0.171415
     82          6           0        3.011121   -0.808621   -3.308462
     83          6           0        3.338138   -4.324644   -0.160832
     84          6           0        3.780037   -1.284798    3.425942
     85          7           0        3.650121    0.593901   -1.294137
     86          6           0        3.811663    1.896752   -1.118551
     87          6           0        3.689196    2.740628   -2.415638
     88          6           0        2.787646    1.728462   -3.276800
     89          6           0        3.195577    0.413977   -2.614684
     90          6           0        1.295317    1.925379   -3.068191
     91          6           0        5.079503    2.993768   -3.097532
     92          6           0        5.073914    4.063818   -4.191478
     93          1           0        6.250891    4.915744   -4.337822
     94          7           0        3.752873   -2.430673   -1.608990
     95          6           0        3.385735   -2.095532   -2.863649
     96          6           0        3.370649   -3.352545   -3.627752
     97          6           0        3.598650   -4.478970   -2.682291
     98          6           0        3.550284   -3.774726   -1.416672
     99          6           0        3.233778   -3.394864   -5.122041
    100          6           0        3.810715   -5.948958   -2.883197
    101          8           0        3.751236   -6.777461   -1.907043
    102          6           0        3.997318   -6.400945   -4.269695
    103          7           0        3.395925   -2.591759    1.399971
    104          6           0        3.244872   -3.893053    1.097082
    105          6           0        3.116835   -4.732479    2.345825
    106          6           0        3.457088   -3.749821    3.560813
    107          6           0        3.644011   -2.432655    2.776259
    108          6           0        1.749329   -5.374490    2.578501
    109          6           0        4.582542   -4.196852    4.533535
    110          6           0        5.915286   -4.187361    3.820030
    111          7           0        4.140837    0.229981    1.542366
    112          6           0        4.008828   -0.008464    2.927935
    113          6           0        4.107880    1.300146    3.606284
    114          6           0        4.268878    2.219042    2.558334
    115          6           0        4.249838    1.533893    1.313462
    116          6           0        3.998819    1.520769    5.008265
    117          6           0        4.439952    3.614036    2.221552
    118          8           0        4.614801    4.647939    2.865141
    119          6           0        4.237088    3.784087    0.654287
    120          6           0        5.366586    4.626857    0.128465
    121          8           0        6.536699    4.206852    0.160744
    122          8           0        4.857938    5.690384   -0.520040
    123          6           0        5.939529    6.550784   -1.069306
    124          1           0        2.492235   -0.787926   -4.267219
    125          1           0        3.232400   -5.411644   -0.133828
    126          1           0        3.834801   -1.233619    4.515463
    127          1           0        3.174705    3.686461   -2.295337
    128          1           0        3.078172    1.734099   -4.324141
    129          1           0        1.088766    2.637263   -2.282889
    130          1           0        0.903532    0.950773   -2.808010
    131          1           0        0.815879    2.200809   -4.011912
    132          1           0        5.350090    2.114477   -3.696174
    133          1           0        5.825975    3.230363   -2.364436
    134          1           0        4.160551    4.670651   -4.169834
    135          1           0        5.041969    3.566002   -5.163680
    136          1           0        2.916533   -2.424944   -5.524548
    137          1           0        2.400026   -4.068471   -5.347820
    138          1           0        4.133141   -3.767452   -5.617008
    139          1           0        3.129349   -6.119488   -4.861195
    140          1           0        4.223058   -7.466916   -4.201688
    141          1           0        4.855350   -5.870883   -4.697984
    142          1           0        3.832482   -5.545449    2.340369
    143          1           0        2.589541   -3.602156    4.220655
    144          1           0        1.795339   -6.475368    2.678625
    145          1           0        1.097146   -5.093835    1.762151
    146          1           0        1.206441   -5.003207    3.446039
    147          1           0        4.413316   -5.225469    4.861354
    148          1           0        4.652515   -3.582201    5.424771
    149          1           0        5.926417   -5.152677    3.305123
    150          1           0        6.732063   -4.111969    4.535034
    151          1           0        5.945687   -3.404449    3.053365
    152          1           0        4.779090    2.221208    5.274840
    153          1           0        4.090966    0.590801    5.565437
    154          1           0        2.987881    1.933454    5.062700
    155          1           0        3.266668    4.257100    0.498982
    156          1           0        5.776047    7.559165   -0.676715
    157          1           0        5.893477    6.424120   -2.167297
    158          1           0        6.952443    6.356034   -0.736846
 ---------------------------------------------------------------------

 SCF Done:  E(RCAM-B3LYP) =  -4069.81146542     A.U. after   19 cycles

 Excitation energies and oscillator strengths:

 Excited State   1:      Singlet-A      1.6379 eV  756.96 nm  f=0.0008  <S**2>=0.000
     309 -> 315       -0.11371
     310 -> 316        0.11852
     311 -> 313       -0.47384
     312 -> 314        0.49921
 This state for optimization and/or second-order correction.
 Total Energy, E(TD-HF/TD-DFT) =  -4069.75127322
 Copying the excited state density for this state as the 1-particle RhoCI density.

 Excited State   2:      Singlet-A      1.7118 eV  724.30 nm  f=0.6782  <S**2>=0.000
     309 -> 315        0.13366
     310 -> 316        0.12553
     311 -> 313        0.49582
     312 -> 314        0.47065

 Excited State   3:      Singlet-A      2.1773 eV  569.44 nm  f=0.0098  <S**2>=0.000
     309 -> 313       -0.34063
     310 -> 314        0.54941
     311 -> 315        0.13897
     312 -> 316       -0.22591

 Excited State   4:      Singlet-A      2.1980 eV  564.08 nm  f=0.1575  <S**2>=0.000
     309 -> 313        0.54292
     310 -> 314        0.33432
     311 -> 315       -0.24134
     312 -> 316       -0.15034

 Excited State   5:      Singlet-A      2.2323 eV  555.41 nm  f=0.0000  <S**2>=0.000
     312 -> 313        0.70708

 The electronic state is 1-A.
 Alpha  occ. eigenvalues --  -46.87919 -46.87380 -19.26403 -19.26024 -19.19156
 Alpha  occ. eigenvalues --  -19.18891 -19.18830 -19.18478 -19.18241 -19.17654
 Alpha  occ. eigenvalues --  -14.42588 -14.42218 -14.41574 -14.41081 -14.39521
 Alpha  occ. eigenvalues --  -14.39075 -14.38700 -14.38297 -10.39213 -10.38744
 Alpha  occ. eigenvalues --  -10.35527 -10.35163 -10.34466 -10.33820 -10.31781
 Alpha  occ. eigenvalues --  -10.31546 -10.31504 -10.31058 -10.31006 -10.30740
 Alpha  occ. eigenvalues --  -10.30695 -10.30614 -10.30334 -10.30098 -10.30056
 Alpha  occ. eigenvalues --  -10.30031 -10.29909 -10.29742 -10.29599 -10.29373
 Alpha  occ. eigenvalues --  -10.29183 -10.29112 -10.28958 -10.28867 -10.28498
 Alpha  occ. eigenvalues --  -10.28483 -10.28421 -10.28302 -10.28096 -10.27899
 Alpha  occ. eigenvalues --  -10.27866 -10.27863 -10.27701 -10.27699 -10.27653
 Alpha  occ. eigenvalues --  -10.27637 -10.27562 -10.27531 -10.27411 -10.27336
 Alpha  occ. eigenvalues --  -10.27318 -10.27267 -10.27191 -10.27174 -10.27141
 Alpha  occ. eigenvalues --  -10.27018 -10.26579 -10.26506 -10.26470 -10.26389
 Alpha  occ. eigenvalues --  -10.26361 -10.26259 -10.26146 -10.25974 -10.25914
 Alpha  occ. eigenvalues --  -10.25686 -10.25673 -10.25528 -10.25523 -10.25146
 Alpha  occ. eigenvalues --  -10.24935 -10.24919 -10.24900 -10.24565 -10.24552
 Alpha  occ. eigenvalues --  -10.24396  -3.16661  -3.16130  -1.91542  -1.91130
 Alpha  occ. eigenvalues --   -1.91013  -1.90971  -1.90601  -1.90437  -1.16753
 Alpha  occ. eigenvalues --   -1.16316  -1.08697  -1.08247  -1.07287  -1.06770
 Alpha  occ. eigenvalues --   -1.06733  -1.06613  -1.04719  -1.04205  -1.03886
 Alpha  occ. eigenvalues --   -1.03380  -1.03350  -1.02757  -1.02530  -1.01821
 Alpha  occ. eigenvalues --   -0.92091  -0.91647  -0.89656  -0.89383  -0.89239
 Alpha  occ. eigenvalues --   -0.88873  -0.88418  -0.87975  -0.87973  -0.87824
 Alpha  occ. eigenvalues --   -0.87484  -0.87417  -0.87395  -0.86894  -0.85165
 Alpha  occ. eigenvalues --   -0.84736  -0.84074  -0.83633  -0.83085  -0.82805
 Alpha  occ. eigenvalues --   -0.82726  -0.82392  -0.81709  -0.81300  -0.80724
 Alpha  occ. eigenvalues --   -0.80161  -0.78919  -0.78381  -0.77374  -0.77097
 Alpha  occ. eigenvalues --   -0.76892  -0.76630  -0.76065  -0.75546  -0.75023
 Alpha  occ. eigenvalues --   -0.74540  -0.72897  -0.72415  -0.71801  -0.71292
 Alpha  occ. eigenvalues --   -0.70063  -0.69542  -0.69040  -0.68565  -0.67763
 Alpha  occ. eigenvalues --   -0.67413  -0.67322  -0.66968  -0.65461  -0.64988
 Alpha  occ. eigenvalues --   -0.64981  -0.64764  -0.64493  -0.64403  -0.64375
 Alpha  occ. eigenvalues --   -0.63952  -0.62416  -0.61981  -0.60561  -0.60096
 Alpha  occ. eigenvalues --   -0.59969  -0.59512  -0.59113  -0.58707  -0.58626
 Alpha  occ. eigenvalues --   -0.58130  -0.57697  -0.57429  -0.57186  -0.56951
 Alpha  occ. eigenvalues --   -0.56430  -0.56115  -0.55932  -0.55640  -0.55600
 Alpha  occ. eigenvalues --   -0.55467  -0.55192  -0.54978  -0.54655  -0.54218
 Alpha  occ. eigenvalues --   -0.54088  -0.53647  -0.53421  -0.53372  -0.53056
 Alpha  occ. eigenvalues --   -0.52972  -0.52902  -0.52874  -0.52632  -0.52598
 Alpha  occ. eigenvalues --   -0.52453  -0.52191  -0.52006  -0.51792  -0.51559
 Alpha  occ. eigenvalues --   -0.51407  -0.51322  -0.50905  -0.50708  -0.50290
 Alpha  occ. eigenvalues --   -0.50183  -0.50054  -0.49734  -0.49663  -0.49627
 Alpha  occ. eigenvalues --   -0.49341  -0.49248  -0.49234  -0.48907  -0.48795
 Alpha  occ. eigenvalues --   -0.48719  -0.48574  -0.48545  -0.48267  -0.48127
 Alpha  occ. eigenvalues --   -0.48071  -0.47837  -0.47422  -0.47343  -0.46944
 Alpha  occ. eigenvalues --   -0.46882  -0.46737  -0.46485  -0.46451  -0.46303
 Alpha  occ. eigenvalues --   -0.46278  -0.46017  -0.45936  -0.45795  -0.45513
 Alpha  occ. eigenvalues --   -0.45324  -0.44943  -0.44693  -0.44663  -0.44285
 Alpha  occ. eigenvalues --   -0.44250  -0.44236  -0.44207  -0.44132  -0.43850
 Alpha  occ. eigenvalues --   -0.43836  -0.43656  -0.43615  -0.43537  -0.43271
 Alpha  occ. eigenvalues --   -0.43153  -0.43108  -0.42828  -0.42790  -0.42640
 Alpha  occ. eigenvalues --   -0.42586  -0.42320  -0.42168  -0.41828  -0.41720
 Alpha  occ. eigenvalues --   -0.41713  -0.41343  -0.41273  -0.41206  -0.41050
 Alpha  occ. eigenvalues --   -0.40951  -0.40719  -0.40700  -0.40496  -0.40467
 Alpha  occ. eigenvalues --   -0.40458  -0.40236  -0.39996  -0.39605  -0.39219
 Alpha  occ. eigenvalues --   -0.38617  -0.38110  -0.37974  -0.37457  -0.37434
 Alpha  occ. eigenvalues --   -0.37418  -0.37011  -0.36928  -0.36840  -0.36473
 Alpha  occ. eigenvalues --   -0.36330  -0.35947  -0.34409  -0.33965  -0.33902
 Alpha  occ. eigenvalues --   -0.33534  -0.33309  -0.32890  -0.31424  -0.31160
 Alpha  occ. eigenvalues --   -0.31036  -0.30678  -0.30102  -0.29557  -0.29551
 Alpha  occ. eigenvalues --   -0.29423  -0.29059  -0.28885  -0.24206  -0.23737
 Alpha  occ. eigenvalues --   -0.21253  -0.20835
 Alpha virt. eigenvalues --   -0.08891  -0.08501  -0.01871  -0.01410  -0.00169
 Alpha virt. eigenvalues --    0.00239   0.02098   0.02390   0.02642   0.03608
 Alpha virt. eigenvalues --    0.04538   0.04904   0.05035   0.05512   0.05878

 Mulliken charges:
               1
     1  Mg   0.838519
     2  C   -0.003515
     3  C   -0.095463
     4  C   -0.045077
     5  C   -0.063776
     6  N   -0.256600
     7  C   -0.053330
     8  C   -0.013552
     9  C   -0.086854
    10  C    0.046001
    11  C    0.104798
    12  C    0.050669
    13  C   -0.071310
    14  H    0.034267
    15  N   -0.433331
    16  C    0.168351
    17  C   -0.178002
    18  C   -0.003576
    19  C    0.149234
    20  C    0.110404
    21  C    0.013535
    22  O   -0.248325
    23  C    0.062511
    24  N   -0.340902
    25  C    0.041018
    26  C   -0.028677
    27  C   -0.024205
    28  C    0.074664
    29  C    0.076019
    30  C    0.036488
    31  C   -0.011164
    32  N   -0.310762
    33  C    0.080799
    34  C   -0.169427
    35  C    0.009005
    36  C    0.083388
    37  C    0.127090
    38  C    0.046898
    39  O   -0.186628
    40  C   -0.005972
    41  C    0.213895
    42  O   -0.258358
    43  O   -0.304747
    44  C    0.156745
    45  H   -0.017914
    46  H   -0.016239
    47  H   -0.041426
    48  H    0.001522
    49  H   -0.005055
    50  H    0.025870
    51  H    0.016900
    52  H    0.016652
    53  H    0.010451
    54  H    0.044779
    55  H    0.019421
    56  H    0.016900
    57  H    0.005239
    58  H    0.027318
    59  H    0.037673
    60  H    0.036971
    61  H    0.036870
    62  H    0.029991
    63  H    0.017185
    64  H    0.009902
    65  H    0.023665
    66  H    0.012720
    67  H    0.004896
    68  H    0.006489
    69  H    0.004420
    70  H    0.012357
    71  H    0.017933
    72  H    0.031158
    73  H    0.048680
    74  H    0.008844
    75  H    0.046341
    76  H    0.035405
    77  H    0.044313
    78  H    0.045103
    79  H    0.055035
    80  Mg   0.836854
    81  C   -0.014843
    82  C   -0.088250
    83  C   -0.045219
    84  C   -0.065498
    85  N   -0.254612
    86  C   -0.047520
    87  C   -0.015022
    88  C   -0.092062
    89  C    0.045744
    90  C    0.109862
    91  C    0.062753
    92  C   -0.076926
    93  H    0.033915
    94  N   -0.423409
    95  C    0.162660
    96  C   -0.176174
    97  C   -0.008027
    98  C    0.151509
    99  C    0.100288
   100  C    0.015177
   101  O   -0.253190
   102  C    0.061588
   103  N   -0.350237
   104  C    0.037090
   105  C   -0.020272
   106  C   -0.034762
   107  C    0.089562
   108  C    0.073043
   109  C    0.034747
   110  C   -0.007396
   111  N   -0.324866
   112  C    0.079621
   113  C   -0.162390
   114  C    0.004937
   115  C    0.095748
   116  C    0.130654
   117  C    0.045738
   118  O   -0.186303
   119  C   -0.001478
   120  C    0.210211
   121  O   -0.252334
   122  O   -0.304467
   123  C    0.152399
   124  H   -0.022146
   125  H   -0.015657
   126  H   -0.041332
   127  H    0.001854
   128  H   -0.006551
   129  H    0.035149
   130  H    0.013460
   131  H    0.011785
   132  H    0.013214
   133  H    0.037673
   134  H    0.019973
   135  H    0.018436
   136  H    0.007174
   137  H    0.023179
   138  H    0.039024
   139  H    0.036837
   140  H    0.035910
   141  H    0.033418
   142  H    0.013812
   143  H    0.011118
   144  H    0.024333
   145  H    0.014083
   146  H    0.004523
   147  H    0.005504
   148  H    0.003054
   149  H    0.010805
   150  H    0.017424
   151  H    0.030558
   152  H    0.045685
   153  H    0.006920
   154  H    0.050210
   155  H    0.046037
   156  H    0.043372
   157  H    0.048247
   158  H    0.052962
 Sum of Mulliken charges =  -0.00000

 Dipole moment (field-independent basis, Debye):
    X=             -4.6605    Y=             -1.4433    Z=             -7.0354  Tot=              8.5616
 Quadrupole moment (field-independent basis, Debye-Ang):
   XX=           -519.8107   YY=           -549.2992   ZZ=           -449.4829
   XY=             -8.8813   XZ=             -2.6321   YZ=            -47.7084

 Normal termination of Gaussian 16 at Fri Sep  3 17:04:27 2021.
