 Gaussian 16, Revision A.03,
 Gaussian 16:  ES64L-G16RevA.03 25-Dec-2016

 -----------------------------------
 #p cam-b3lyp/Def2SVP td=(nstates=5)
 -----------------------------------

 --------------------------------
 TDDFT excited states in gaussian
 --------------------------------
 Symbolic Z-matrix:
 Charge =  0 Multiplicity = 1

                         Standard orientation:
 ---------------------------------------------------------------------
 Center     Atomic      Atomic             Coordinates (Angstroms)
 Number     Number       Type             X           Y           Z
 ---------------------------------------------------------------------
      1         12           0       -3.787139    0.380528   -1.029796
      2          6           0       -4.163158   -2.829721    0.508100
      3          6           0       -5.490858    1.685577    1.622986
      4          6           0       -3.865988    3.145830   -2.580123
      5          6           0       -3.145464   -1.290960   -4.019787
      6          7           0       -4.662956   -0.555050    0.775275
      7          6           0       -4.686086   -1.786489    1.275471
      8          6           0       -5.250684   -1.853628    2.726021
      9          6           0       -6.127994   -0.522374    2.716537
     10          6           0       -5.362487    0.265537    1.668148
     11          6           0       -7.555612   -0.737014    2.224258
     12          6           0       -4.120422   -1.787188    3.807605
     13          6           0       -4.550128   -2.172212    5.226218
     14          1           0       -3.605771   -2.882273    6.075542
     15          7           0       -4.118819    2.211837   -0.367116
     16          6           0       -4.819204    2.558146    0.739599
     17          6           0       -4.779992    4.035086    0.801168
     18          6           0       -4.162029    4.526891   -0.461505
     19          6           0       -4.046662    3.299964   -1.207641
     20          6           0       -5.248909    4.821949    1.986374
     21          6           0       -3.751753    5.888319   -0.926606
     22          8           0       -3.449061    6.128147   -2.145390
     23          6           0       -3.799408    6.967307    0.076667
     24          7           0       -3.759126    0.872564   -3.058281
     25          6           0       -3.743115    2.148664   -3.458650
     26          6           0       -3.439386    2.257558   -4.923515
     27          6           0       -3.008862    0.794188   -5.395691
     28          6           0       -3.231795    0.040540   -4.061305
     29          6           0       -4.586790    2.762624   -5.809170
     30          6           0       -1.635155    0.657995   -6.099109
     31          6           0       -0.523768    0.946410   -5.114867
     32          7           0       -3.493330   -1.681661   -1.639796
     33          6           0       -3.261323   -2.151213   -2.940706
     34          6           0       -3.236672   -3.623805   -2.870474
     35          6           0       -3.474090   -3.910890   -1.527693
     36          6           0       -3.662814   -2.695511   -0.809691
     37          6           0       -3.072389   -4.508063   -3.972986
     38          6           0       -3.636698   -4.962506   -0.536976
     39          8           0       -3.493637   -6.186033   -0.539648
     40          6           0       -4.210040   -4.309462    0.797430
     41          6           0       -3.388609   -4.827658    1.946357
     42          8           0       -2.185673   -4.517088    2.064070
     43          8           0       -4.198311   -5.406476    2.846298
     44          6           0       -3.449555   -5.916053    4.026065
     45          1           0       -6.213557    2.171424    2.281469
     46          1           0       -3.776752    4.081592   -3.135842
     47          1           0       -2.866680   -1.877302   -4.897246
     48          1           0       -5.885762   -2.716580    2.927051
     49          1           0       -6.095829   -0.006961    3.676244
     50          1           0       -7.696420   -1.746559    1.838368
     51          1           0       -7.703919   -0.002616    1.432326
     52          1           0       -8.275838   -0.486805    3.003648
     53          1           0       -3.842821   -0.746350    3.973900
     54          1           0       -3.266601   -2.397565    3.511369
     55          1           0       -5.517540   -2.675226    5.226937
     56          1           0       -4.720690   -1.256170    5.791883
     57          1           0       -5.802722    4.198590    2.687273
     58          1           0       -5.983729    5.539428    1.621720
     59          1           0       -4.431654    5.350240    2.477634
     60          1           0       -4.815900    7.057354    0.460315
     61          1           0       -3.387350    7.849948   -0.411188
     62          1           0       -3.174925    6.687824    0.925701
     63          1           0       -2.615419    2.947274   -5.101827
     64          1           0       -3.716006    0.369968   -6.108895
     65          1           0       -4.333794    3.650162   -6.389665
     66          1           0       -5.450039    2.946264   -5.170133
     67          1           0       -4.985485    2.025203   -6.505352
     68          1           0       -1.547595    1.386626   -6.904328
     69          1           0       -1.466639   -0.330515   -6.526546
     70          1           0       -0.457937    2.033673   -5.133771
     71          1           0        0.409246    0.492886   -5.451038
     72          1           0       -0.803009    0.654430   -4.102316
     73          1           0       -2.377436   -5.280416   -3.643622
     74          1           0       -2.693977   -3.982275   -4.849316
     75          1           0       -4.096080   -4.857812   -4.105605
     76          1           0       -5.254040   -4.612361    0.871176
     77          1           0       -3.686851   -6.975480    4.123726
     78          1           0       -3.703173   -5.261736    4.860302
     79          1           0       -2.364207   -5.956504    3.927459
     80         12           0        3.875004    0.945003    0.993619
     81          6           0        4.445554   -1.841571   -1.194650
     82          6           0        2.543539   -1.268529    3.221179
     83          6           0        2.950797    3.420698    2.749807
     84          6           0        4.177715    3.016669   -1.792475
     85          7           0        3.587763   -1.246501    0.909902
     86          6           0        3.899489   -2.207446    0.053298
     87          6           0        3.684140   -3.646294    0.594515
     88          6           0        2.577703   -3.319893    1.711712
     89          6           0        2.940973   -1.864204    1.997533
     90          6           0        1.154813   -3.361486    1.179745
     91          6           0        4.985957   -4.245719    1.233260
     92          6           0        4.935953   -5.751392    1.501932
     93          1           0        6.159943   -6.529639    1.332698
     94          7           0        3.347732    1.038519    2.904585
     95          6           0        2.846904    0.038917    3.660385
     96          6           0        2.603373    0.622164    4.988791
     97          6           0        2.846672    2.088175    4.909193
     98          6           0        3.041934    2.245858    3.481929
     99          6           0        2.259431   -0.207939    6.191319
    100          6           0        2.883249    3.171211    5.944518
    101          8           0        2.876784    4.411651    5.621867
    102          6           0        2.832544    2.737988    7.348526
    103          7           0        3.392538    2.910243    0.516727
    104          6           0        3.073855    3.796282    1.476582
    105          6           0        3.036109    5.203246    0.929400
    106          6           0        3.634910    5.104983   -0.550250
    107          6           0        3.841425    3.576937   -0.638712
    108          6           0        1.656851    5.860006    0.877392
    109          6           0        4.833492    6.033597   -0.887526
    110          6           0        6.050223    5.614564   -0.094195
    111          7           0        4.424431    0.691836   -1.080531
    112          6           0        4.460764    1.687751   -2.080987
    113          6           0        4.780382    1.012893   -3.355687
    114          6           0        4.885984   -0.342696   -3.009693
    115          6           0        4.629016   -0.504036   -1.621375
    116          6           0        4.886840    1.643885   -4.627155
    117          6           0        5.145942   -1.675199   -3.505228
    118          8           0        5.508421   -2.146009   -4.582585
    119          6           0        4.747883   -2.720813   -2.376229
    120          6           0        5.872154   -3.711178   -2.243149
    121          8           0        6.988493   -3.348622   -1.832107
    122          8           0        5.386739   -4.954400   -2.413850
    123          6           0        6.462313   -5.972767   -2.280057
    124          1           0        1.902703   -1.840640    3.892678
    125          1           0        2.743122    4.322836    3.329888
    126          1           0        4.386102    3.605283   -2.688448
    127          1           0        3.286762   -4.348758   -0.128262
    128          1           0        2.721027   -3.930062    2.599695
    129          1           0        1.129054   -3.488069    0.107617
    130          1           0        0.708249   -2.416437    1.459964
    131          1           0        0.580032   -4.132631    1.700601
    132          1           0        5.083905   -3.874526    2.261540
    133          1           0        5.845531   -4.013766    0.634966
    134          1           0        4.098485   -6.234859    0.984385
    135          1           0        4.722112   -5.907800    2.562041
    136          1           0        1.987176   -1.232278    5.908490
    137          1           0        1.340301    0.209972    6.616078
    138          1           0        3.041300   -0.189374    6.953553
    139          1           0        1.923686    2.165254    7.517129
    140          1           0        2.959292    3.647062    7.939619
    141          1           0        3.671790    2.058811    7.535612
    142          1           0        3.660593    5.864001    1.518056
    143          1           0        2.884838    5.365306   -1.311473
    144          1           0        1.607416    6.815933    1.432215
    145          1           0        0.929782    5.158096    1.263684
    146          1           0        1.277293    6.058442   -0.123489
    147          1           0        4.610244    7.062069   -0.593321
    148          1           0        5.085232    6.047915   -1.942708
    149          1           0        5.895441    6.104075    0.871988
    150          1           0        6.960727    5.967609   -0.574179
    151          1           0        6.052254    4.532473    0.081093
    152          1           0        5.761496    1.227630   -5.109038
    153          1           0        4.962378    2.724864   -4.529464
    154          1           0        3.938559    1.337637   -5.076870
    155          1           0        3.816733   -3.197558   -2.684857
    156          1           0        6.454398   -6.568335   -3.198162
    157          1           0        6.253912   -6.504703   -1.332760
    158          1           0        7.487064   -5.620459   -2.265328
 ---------------------------------------------------------------------

 SCF Done:  E(RCAM-B3LYP) =  -4069.81523225     A.U. after   18 cycles

 Excitation energies and oscillator strengths:

 Excited State   1:      Singlet-A      1.6551 eV  749.12 nm  f=0.1817  <S**2>=0.000
     309 -> 315       -0.10401
     310 -> 316        0.13099
     311 -> 313       -0.42303
     312 -> 314        0.54131
 This state for optimization and/or second-order correction.
 Total Energy, E(TD-HF/TD-DFT) =  -4069.75440944
 Copying the excited state density for this state as the 1-particle RhoCI density.

 Excited State   2:      Singlet-A      1.6843 eV  736.13 nm  f=0.4741  <S**2>=0.000
     309 -> 315        0.13960
     310 -> 316        0.10585
     311 -> 313        0.53949
     312 -> 314        0.42165

 Excited State   3:      Singlet-A      2.1795 eV  568.86 nm  f=0.0767  <S**2>=0.000
     309 -> 313       -0.21996
     310 -> 314        0.60589
     312 -> 316       -0.24809

 Excited State   4:      Singlet-A      2.1864 eV  567.06 nm  f=0.0001  <S**2>=0.000
     312 -> 313        0.70674

 Excited State   5:      Singlet-A      2.1956 eV  564.68 nm  f=0.1145  <S**2>=0.000
     309 -> 313        0.60156
     310 -> 314        0.21659
     311 -> 315       -0.26348

 The electronic state is 1-A.
 Alpha  occ. eigenvalues --  -46.87993 -46.87299 -19.26941 -19.25976 -19.19849
 Alpha  occ. eigenvalues --  -19.18986 -19.18803 -19.18528 -19.18479 -19.17749
 Alpha  occ. eigenvalues --  -14.42661 -14.42044 -14.41634 -14.41015 -14.39594
 Alpha  occ. eigenvalues --  -14.39010 -14.38798 -14.38254 -10.39800 -10.38728
 Alpha  occ. eigenvalues --  -10.35613 -10.35213 -10.34716 -10.33916 -10.32309
 Alpha  occ. eigenvalues --  -10.31641 -10.31397 -10.31151 -10.30799 -10.30786
 Alpha  occ. eigenvalues --  -10.30708 -10.30568 -10.30353 -10.30108 -10.30092
 Alpha  occ. eigenvalues --  -10.30004 -10.29832 -10.29814 -10.29589 -10.29427
 Alpha  occ. eigenvalues --  -10.29106 -10.29099 -10.29062 -10.28978 -10.28596
 Alpha  occ. eigenvalues --  -10.28380 -10.28101 -10.28045 -10.28002 -10.27998
 Alpha  occ. eigenvalues --  -10.27924 -10.27777 -10.27676 -10.27655 -10.27600
 Alpha  occ. eigenvalues --  -10.27594 -10.27569 -10.27559 -10.27242 -10.27240
 Alpha  occ. eigenvalues --  -10.27197 -10.27185 -10.27178 -10.27139 -10.27117
 Alpha  occ. eigenvalues --  -10.27091 -10.26681 -10.26524 -10.26463 -10.26304
 Alpha  occ. eigenvalues --  -10.26207 -10.26183 -10.26122 -10.25995 -10.25903
 Alpha  occ. eigenvalues --  -10.25639 -10.25596 -10.25542 -10.25218 -10.25062
 Alpha  occ. eigenvalues --  -10.24984 -10.24697 -10.24550 -10.24516 -10.24375
 Alpha  occ. eigenvalues --  -10.24288  -3.16734  -3.16050  -1.91616  -1.91203
 Alpha  occ. eigenvalues --   -1.91045  -1.90933  -1.90520  -1.90359  -1.17303
 Alpha  occ. eigenvalues --   -1.16273  -1.08971  -1.08356  -1.07387  -1.07386
 Alpha  occ. eigenvalues --   -1.06789  -1.06588  -1.04804  -1.04055  -1.03953
 Alpha  occ. eigenvalues --   -1.03432  -1.03286  -1.02706  -1.02611  -1.01759
 Alpha  occ. eigenvalues --   -0.92249  -0.91608  -0.89676  -0.89468  -0.89189
 Alpha  occ. eigenvalues --   -0.88431  -0.88388  -0.88067  -0.87928  -0.87891
 Alpha  occ. eigenvalues --   -0.87484  -0.87440  -0.87253  -0.86870  -0.85259
 Alpha  occ. eigenvalues --   -0.84418  -0.84098  -0.83611  -0.83116  -0.82918
 Alpha  occ. eigenvalues --   -0.82725  -0.82123  -0.81957  -0.81213  -0.80865
 Alpha  occ. eigenvalues --   -0.80075  -0.78976  -0.78337  -0.77430  -0.77233
 Alpha  occ. eigenvalues --   -0.76775  -0.76375  -0.76212  -0.75192  -0.75076
 Alpha  occ. eigenvalues --   -0.74461  -0.72970  -0.72329  -0.71897  -0.71094
 Alpha  occ. eigenvalues --   -0.70007  -0.69468  -0.69134  -0.68284  -0.67881
 Alpha  occ. eigenvalues --   -0.67499  -0.67278  -0.66739  -0.65581  -0.65146
 Alpha  occ. eigenvalues --   -0.64872  -0.64750  -0.64431  -0.64392  -0.64190
 Alpha  occ. eigenvalues --   -0.63878  -0.62704  -0.61922  -0.60608  -0.60071
 Alpha  occ. eigenvalues --   -0.60059  -0.59221  -0.59202  -0.58760  -0.58617
 Alpha  occ. eigenvalues --   -0.58068  -0.58013  -0.57512  -0.57200  -0.56942
 Alpha  occ. eigenvalues --   -0.56608  -0.56373  -0.55861  -0.55769  -0.55616
 Alpha  occ. eigenvalues --   -0.55502  -0.55112  -0.54943  -0.54855  -0.54195
 Alpha  occ. eigenvalues --   -0.54169  -0.53528  -0.53494  -0.53328  -0.53170
 Alpha  occ. eigenvalues --   -0.52952  -0.52913  -0.52764  -0.52543  -0.52530
 Alpha  occ. eigenvalues --   -0.52177  -0.52138  -0.52073  -0.51893  -0.51617
 Alpha  occ. eigenvalues --   -0.51449  -0.51165  -0.50814  -0.50703  -0.50243
 Alpha  occ. eigenvalues --   -0.50192  -0.50089  -0.49788  -0.49667  -0.49527
 Alpha  occ. eigenvalues --   -0.49484  -0.49369  -0.49023  -0.48928  -0.48810
 Alpha  occ. eigenvalues --   -0.48715  -0.48613  -0.48413  -0.48110  -0.48085
 Alpha  occ. eigenvalues --   -0.47953  -0.47927  -0.47506  -0.47151  -0.47008
 Alpha  occ. eigenvalues --   -0.46859  -0.46796  -0.46601  -0.46384  -0.46302
 Alpha  occ. eigenvalues --   -0.46143  -0.45980  -0.45864  -0.45772  -0.45385
 Alpha  occ. eigenvalues --   -0.45360  -0.44908  -0.44876  -0.44713  -0.44410
 Alpha  occ. eigenvalues --   -0.44298  -0.44245  -0.44181  -0.44069  -0.43858
 Alpha  occ. eigenvalues --   -0.43801  -0.43617  -0.43594  -0.43423  -0.43279
 Alpha  occ. eigenvalues --   -0.43196  -0.43162  -0.42847  -0.42796  -0.42570
 Alpha  occ. eigenvalues --   -0.42472  -0.42265  -0.42211  -0.41952  -0.41794
 Alpha  occ. eigenvalues --   -0.41609  -0.41367  -0.41276  -0.41115  -0.41027
 Alpha  occ. eigenvalues --   -0.40953  -0.40719  -0.40558  -0.40522  -0.40410
 Alpha  occ. eigenvalues --   -0.40232  -0.39834  -0.39659  -0.39530  -0.39147
 Alpha  occ. eigenvalues --   -0.38635  -0.38088  -0.38003  -0.37555  -0.37493
 Alpha  occ. eigenvalues --   -0.37273  -0.37166  -0.36884  -0.36669  -0.36467
 Alpha  occ. eigenvalues --   -0.36421  -0.35830  -0.34560  -0.34419  -0.33869
 Alpha  occ. eigenvalues --   -0.33507  -0.33412  -0.32819  -0.31519  -0.31262
 Alpha  occ. eigenvalues --   -0.31082  -0.30580  -0.30352  -0.29648  -0.29646
 Alpha  occ. eigenvalues --   -0.29534  -0.29043  -0.28901  -0.24296  -0.23667
 Alpha  occ. eigenvalues --   -0.21325  -0.20743
 Alpha virt. eigenvalues --   -0.08977  -0.08460  -0.01942  -0.01338  -0.00265
 Alpha virt. eigenvalues --    0.00304   0.01950   0.02379   0.02619   0.03673
 Alpha virt. eigenvalues --    0.04442   0.04458   0.05268   0.05533   0.05798

 Mulliken charges:
               1
     1  Mg   0.839536
     2  C   -0.005077
     3  C   -0.093824
     4  C   -0.045413
     5  C   -0.062809
     6  N   -0.256964
     7  C   -0.052845
     8  C   -0.014206
     9  C   -0.087158
    10  C    0.046472
    11  C    0.104655
    12  C    0.053508
    13  C   -0.071322
    14  H    0.032422
    15  N   -0.433363
    16  C    0.169257
    17  C   -0.176165
    18  C   -0.003414
    19  C    0.149073
    20  C    0.109812
    21  C    0.012090
    22  O   -0.249770
    23  C    0.061742
    24  N   -0.341122
    25  C    0.041862
    26  C   -0.028366
    27  C   -0.023959
    28  C    0.074743
    29  C    0.076056
    30  C    0.034689
    31  C   -0.006330
    32  N   -0.310328
    33  C    0.079995
    34  C   -0.169968
    35  C    0.007431
    36  C    0.082712
    37  C    0.127464
    38  C    0.044429
    39  O   -0.189447
    40  C   -0.005497
    41  C    0.217887
    42  O   -0.258137
    43  O   -0.302413
    44  C    0.157775
    45  H   -0.017190
    46  H   -0.016481
    47  H   -0.040170
    48  H    0.000730
    49  H   -0.003814
    50  H    0.025507
    51  H    0.017154
    52  H    0.017152
    53  H    0.012343
    54  H    0.040288
    55  H    0.019114
    56  H    0.019173
    57  H    0.005988
    58  H    0.027188
    59  H    0.041737
    60  H    0.037786
    61  H    0.035618
    62  H    0.033345
    63  H    0.016641
    64  H    0.009951
    65  H    0.023523
    66  H    0.012434
    67  H    0.005345
    68  H    0.006654
    69  H    0.006359
    70  H    0.007466
    71  H    0.021874
    72  H    0.029569
    73  H    0.046962
    74  H    0.010923
    75  H    0.046254
    76  H    0.036421
    77  H    0.044891
    78  H    0.047618
    79  H    0.050175
    80  Mg   0.835899
    81  C   -0.017132
    82  C   -0.087621
    83  C   -0.047266
    84  C   -0.065497
    85  N   -0.255747
    86  C   -0.047616
    87  C   -0.015355
    88  C   -0.091216
    89  C    0.046293
    90  C    0.116328
    91  C    0.062332
    92  C   -0.077022
    93  H    0.031445
    94  N   -0.423534
    95  C    0.163117
    96  C   -0.175081
    97  C   -0.009349
    98  C    0.152545
    99  C    0.099936
   100  C    0.014397
   101  O   -0.254839
   102  C    0.061633
   103  N   -0.350527
   104  C    0.037738
   105  C   -0.019682
   106  C   -0.034991
   107  C    0.088891
   108  C    0.072373
   109  C    0.035004
   110  C   -0.007489
   111  N   -0.324024
   112  C    0.078286
   113  C   -0.164278
   114  C    0.001479
   115  C    0.096191
   116  C    0.131795
   117  C    0.040999
   118  O   -0.189594
   119  C    0.001710
   120  C    0.211289
   121  O   -0.251732
   122  O   -0.304860
   123  C    0.152466
   124  H   -0.015896
   125  H   -0.017737
   126  H   -0.041460
   127  H    0.001341
   128  H   -0.007004
   129  H    0.018993
   130  H    0.010522
   131  H    0.034282
   132  H    0.012332
   133  H    0.035623
   134  H    0.023802
   135  H    0.018957
   136  H    0.009757
   137  H    0.023550
   138  H    0.038746
   139  H    0.036900
   140  H    0.035056
   141  H    0.034167
   142  H    0.013431
   143  H    0.013743
   144  H    0.022532
   145  H    0.009517
   146  H    0.009619
   147  H    0.005525
   148  H    0.003427
   149  H    0.010250
   150  H    0.017220
   151  H    0.030558
   152  H    0.045207
   153  H    0.008202
   154  H    0.044836
   155  H    0.035983
   156  H    0.043007
   157  H    0.050509
   158  H    0.052578
 Sum of Mulliken charges =  -0.00000

 Dipole moment (field-independent basis, Debye):
    X=             -6.3383    Y=              1.1587    Z=              5.0846  Tot=              8.2079
 Quadrupole moment (field-independent basis, Debye-Ang):
   XX=           -517.4173   YY=           -520.3639   ZZ=           -481.4618
   XY=             -7.8501   XZ=             -3.3361   YZ=            -23.8696

 Normal termination of Gaussian 16 at Fri Sep  3 17:49:39 2021.
