 Gaussian 16, Revision A.03,
 Gaussian 16:  ES64L-G16RevA.03 25-Dec-2016

 -----------------------------------
 #p cam-b3lyp/Def2SVP td=(nstates=5)
 -----------------------------------

 --------------------------------
 TDDFT excited states in gaussian
 --------------------------------
 Symbolic Z-matrix:
 Charge =  0 Multiplicity = 1

                         Standard orientation:
 ---------------------------------------------------------------------
 Center     Atomic      Atomic             Coordinates (Angstroms)
 Number     Number       Type             X           Y           Z
 ---------------------------------------------------------------------
      1         12           0        3.889533   -0.533272    1.224596
      2          6           0        4.650863    2.383756   -0.705051
      3          6           0        3.849333    1.480964    3.978557
      4          6           0        3.668464   -3.150592    3.001500
      5          6           0        5.093373   -2.429694   -1.439989
      6          7           0        4.220941    1.640988    1.476409
      7          6           0        4.445561    2.657026    0.649135
      8          6           0        4.367306    4.048965    1.344660
      9          6           0        4.681976    3.600283    2.841879
     10          6           0        4.189478    2.165442    2.774056
     11          6           0        6.170236    3.593488    3.175854
     12          6           0        2.945186    4.693460    1.226623
     13          6           0        2.869269    6.179630    1.588410
     14          1           0        1.955190    7.035096    0.846799
     15          7           0        3.303182   -0.764980    3.096855
     16          6           0        3.342831    0.167113    4.079157
     17          6           0        2.797874   -0.489874    5.286662
     18          6           0        2.615106   -1.934768    4.975258
     19          6           0        3.220631   -2.013920    3.670477
     20          6           0        2.463041    0.249623    6.545543
     21          6           0        2.002774   -3.066949    5.737719
     22          8           0        2.154777   -4.286114    5.384016
     23          6           0        1.284842   -2.713059    6.975612
     24          7           0        4.518411   -2.502775    0.936139
     25          6           0        4.245049   -3.453326    1.836533
     26          6           0        4.538180   -4.820432    1.293365
     27          6           0        4.842290   -4.622428   -0.261648
     28          6           0        4.745025   -3.078206   -0.326368
     29          6           0        5.707892   -5.565337    1.951317
     30          6           0        3.996087   -5.457064   -1.255500
     31          6           0        2.556051   -4.996816   -1.215940
     32          7           0        4.563161   -0.138809   -0.800662
     33          6           0        5.042326   -1.075938   -1.727412
     34          6           0        5.478334   -0.322533   -2.917516
     35          6           0        5.236318    1.010577   -2.591799
     36          6           0        4.708577    1.087206   -1.271228
     37          6           0        6.072317   -0.878891   -4.084599
     38          6           0        5.323776    2.389986   -3.042842
     39          8           0        5.605827    2.937206   -4.109842
     40          6           0        5.062321    3.342989   -1.794141
     41          6           0        4.069673    4.389688   -2.221203
     42          8           0        2.892252    4.080497   -2.495876
     43          8           0        4.590667    5.608332   -2.011405
     44          6           0        3.644882    6.693080   -2.386860
     45          1           0        4.042143    1.969447    4.935714
     46          1           0        3.507110   -4.088062    3.537739
     47          1           0        5.400934   -2.960473   -2.342836
     48          1           0        5.113530    4.768371    1.006978
     49          1           0        4.099073    4.167093    3.567601
     50          1           0        6.778268    3.774217    2.289538
     51          1           0        6.373096    2.601916    3.580976
     52          1           0        6.390012    4.296373    3.979862
     53          1           0        2.298191    4.280796    2.000682
     54          1           0        2.535848    4.544421    0.226845
     55          1           0        3.861298    6.629819    1.634431
     56          1           0        2.485858    6.264452    2.605269
     57          1           0        2.860050    1.263892    6.531869
     58          1           0        3.000928   -0.241709    7.356086
     59          1           0        1.393320    0.239721    6.755139
     60          1           0        1.969518   -2.207076    7.656603
     61          1           0        0.837911   -3.637803    7.338860
     62          1           0        0.502283   -1.992473    6.736222
     63          1           0        3.678532   -5.479416    1.408134
     64          1           0        5.872805   -4.875189   -0.512298
     65          1           0        5.432468   -6.536741    2.362682
     66          1           0        6.128192   -4.919379    2.721627
     67          1           0        6.571245   -5.722166    1.305219
     68          1           0        4.004662   -6.508637   -0.970778
     69          1           0        4.349593   -5.389166   -2.284420
     70          1           0        2.149098   -5.543294   -0.365891
     71          1           0        2.043405   -5.271612   -2.138378
     72          1           0        2.484054   -3.933886   -0.984677
     73          1           0        5.600754   -0.382923   -4.932899
     74          1           0        5.927805   -1.958231   -4.126359
     75          1           0        7.115493   -0.602885   -3.931428
     76          1           0        6.024500    3.777174   -1.524295
     77          1           0        4.157520    7.330882   -3.107029
     78          1           0        3.310783    7.149254   -1.454825
     79          1           0        2.770513    6.391634   -2.964743
     80         12           0       -3.642832   -0.745182   -1.244448
     81          6           0       -5.719590    1.475746    0.661752
     82          6           0       -2.794337    1.940283   -3.168740
     83          6           0       -2.163583   -2.747709   -3.211460
     84          6           0       -5.499384   -3.385596    0.069764
     85          7           0       -4.244338    1.381790   -1.164128
     86          6           0       -4.990689    2.122003   -0.358295
     87          6           0       -4.890994    3.650092   -0.612438
     88          6           0       -4.426968    3.608489   -2.149258
     89          6           0       -3.746305    2.241294   -2.162146
     90          6           0       -5.588925    3.572789   -3.127996
     91          6           0       -3.811439    4.337785    0.295119
     92          6           0       -3.874220    5.866510    0.323261
     93          1           0       -3.552971    6.553472    1.571194
     94          7           0       -2.258463   -0.401933   -2.624398
     95          6           0       -2.038849    0.753029   -3.287055
     96          6           0       -0.923974    0.482746   -4.208014
     97          6           0       -0.611875   -0.971306   -4.152749
     98          6           0       -1.703368   -1.443908   -3.324881
     99          6           0       -0.216433    1.565988   -4.969198
    100          6           0        0.480063   -1.801277   -4.756907
    101          8           0        0.421999   -3.081594   -4.773341
    102          6           0        1.574144   -1.069191   -5.411519
    103          7           0       -3.938410   -2.752619   -1.697423
    104          6           0       -3.120822   -3.396936   -2.548502
    105          6           0       -3.356032   -4.888031   -2.507388
    106          6           0       -4.338587   -5.134021   -1.269780
    107          6           0       -4.583073   -3.669167   -0.845736
    108          6           0       -3.963824   -5.500656   -3.768999
    109          6           0       -3.870326   -6.147743   -0.190079
    110          6           0       -2.669057   -5.599618    0.546056
    111          7           0       -5.183578   -0.969172    0.253541
    112          6           0       -5.841242   -2.161014    0.629154
    113          6           0       -6.889090   -1.791774    1.602864
    114          6           0       -6.782694   -0.396871    1.709644
    115          6           0       -5.755448    0.072502    0.847125
    116          6           0       -7.807732   -2.689219    2.216712
    117          6           0       -7.312909    0.786424    2.347920
    118          8           0       -8.135352    0.998772    3.237993
    119          6           0       -6.732892    2.065237    1.603211
    120          6           0       -6.240891    3.028250    2.648700
    121          8           0       -5.276154    2.733125    3.375882
    122          8           0       -6.846049    4.216993    2.472469
    123          6           0       -6.382413    5.208845    3.478996
    124          1           0       -2.639734    2.663834   -3.969656
    125          1           0       -1.611902   -3.494243   -3.787482
    126          1           0       -6.055452   -4.162202    0.599233
    127          1           0       -5.827099    4.187804   -0.521116
    128          1           0       -3.708141    4.394349   -2.366229
    129          1           0       -6.537275    3.461658   -2.623603
    130          1           0       -5.402815    2.725409   -3.774794
    131          1           0       -5.565366    4.455501   -3.773443
    132          1           0       -2.821465    4.198701   -0.158029
    133          1           0       -3.856166    3.955798    1.296481
    134          1           0       -4.813646    6.248233   -0.094734
    135          1           0       -3.104403    6.257811   -0.346279
    136          1           0       -0.773203    2.510598   -4.935730
    137          1           0       -0.233654    1.277848   -6.025858
    138          1           0        0.821555    1.692934   -4.654370
    139          1           0        1.168148   -0.447791   -6.206186
    140          1           0        2.301304   -1.829597   -5.702901
    141          1           0        2.026804   -0.389692   -4.680778
    142          1           0       -2.429589   -5.420975   -2.331900
    143          1           0       -5.310590   -5.533607   -1.594386
    144          1           0       -3.346111   -6.309691   -4.202537
    145          1           0       -4.117686   -4.710667   -4.492031
    146          1           0       -4.968288   -5.903044   -3.649205
    147          1           0       -3.547423   -7.079787   -0.660389
    148          1           0       -4.642469   -6.400471    0.528885
    149          1           0       -1.835594   -5.860521   -0.112993
    150          1           0       -2.566425   -6.075179    1.519375
    151          1           0       -2.710625   -4.505937    0.607762
    152          1           0       -7.860807   -2.413961    3.261657
    153          1           0       -7.495609   -3.724101    2.092748
    154          1           0       -8.712585   -2.462276    1.646608
    155          1           0       -7.539351    2.488930    1.003461
    156          1           0       -7.273943    5.588363    3.987754
    157          1           0       -5.772600    5.941444    2.917593
    158          1           0       -5.802219    4.839332    4.316416
 ---------------------------------------------------------------------

 SCF Done:  E(RCAM-B3LYP) =  -4069.81504894     A.U. after   17 cycles

 Excitation energies and oscillator strengths:

 Excited State   1:      Singlet-A      1.6328 eV  759.33 nm  f=0.0588  <S**2>=0.000
     309 -> 315       -0.11487
     310 -> 316       -0.11615
     311 -> 313        0.48221
     312 -> 314        0.49124
 This state for optimization and/or second-order correction.
 Total Energy, E(TD-HF/TD-DFT) =  -4069.75504390
 Copying the excited state density for this state as the 1-particle RhoCI density.

 Excited State   2:      Singlet-A      1.7127 eV  723.90 nm  f=0.6393  <S**2>=0.000
     309 -> 315       -0.13155
     310 -> 316        0.12779
     311 -> 313        0.48784
     312 -> 314       -0.47909

 Excited State   3:      Singlet-A      2.1840 eV  567.69 nm  f=0.0024  <S**2>=0.000
     309 -> 313       -0.44434
     310 -> 314        0.46766
     311 -> 315       -0.18491
     312 -> 316        0.19502

 Excited State   4:      Singlet-A      2.1991 eV  563.81 nm  f=0.1674  <S**2>=0.000
     309 -> 313        0.46316
     310 -> 314        0.43915
     311 -> 315        0.20533
     312 -> 316        0.19396

 Excited State   5:      Singlet-A      2.2870 eV  542.13 nm  f=0.0000  <S**2>=0.000
     312 -> 313        0.70680

 The electronic state is 1-A.
 Alpha  occ. eigenvalues --  -46.87808 -46.87353 -19.26659 -19.26260 -19.19468
 Alpha  occ. eigenvalues --  -19.19055 -19.18758 -19.18366 -19.18363 -19.17790
 Alpha  occ. eigenvalues --  -14.42471 -14.42190 -14.41432 -14.41050 -14.39411
 Alpha  occ. eigenvalues --  -14.39026 -14.38636 -14.38293 -10.39472 -10.38972
 Alpha  occ. eigenvalues --  -10.35383 -10.35017 -10.34594 -10.33978 -10.32065
 Alpha  occ. eigenvalues --  -10.31726 -10.31472 -10.31013 -10.30936 -10.30679
 Alpha  occ. eigenvalues --  -10.30628 -10.30540 -10.30121 -10.30114 -10.30031
 Alpha  occ. eigenvalues --  -10.29929 -10.29792 -10.29665 -10.29647 -10.29245
 Alpha  occ. eigenvalues --  -10.29059 -10.29039 -10.28832 -10.28690 -10.28535
 Alpha  occ. eigenvalues --  -10.28465 -10.28419 -10.28175 -10.28063 -10.27868
 Alpha  occ. eigenvalues --  -10.27858 -10.27741 -10.27648 -10.27596 -10.27460
 Alpha  occ. eigenvalues --  -10.27380 -10.27362 -10.27332 -10.27317 -10.27316
 Alpha  occ. eigenvalues --  -10.27260 -10.27185 -10.27155 -10.27069 -10.26831
 Alpha  occ. eigenvalues --  -10.26825 -10.26515 -10.26483 -10.26286 -10.26253
 Alpha  occ. eigenvalues --  -10.25972 -10.25954 -10.25895 -10.25816 -10.25810
 Alpha  occ. eigenvalues --  -10.25773 -10.25612 -10.25600 -10.25348 -10.25215
 Alpha  occ. eigenvalues --  -10.24949 -10.24794 -10.24547 -10.24464 -10.24400
 Alpha  occ. eigenvalues --  -10.24118  -3.16550  -3.16104  -1.91431  -1.91017
 Alpha  occ. eigenvalues --   -1.90987  -1.90861  -1.90575  -1.90411  -1.17011
 Alpha  occ. eigenvalues --   -1.16548  -1.08853  -1.08421  -1.07154  -1.07056
 Alpha  occ. eigenvalues --   -1.06835  -1.06612  -1.04615  -1.04183  -1.03758
 Alpha  occ. eigenvalues --   -1.03354  -1.03257  -1.02725  -1.02431  -1.01795
 Alpha  occ. eigenvalues --   -0.92064  -0.91699  -0.89431  -0.89244  -0.89207
 Alpha  occ. eigenvalues --   -0.88887  -0.88178  -0.87955  -0.87954  -0.87691
 Alpha  occ. eigenvalues --   -0.87496  -0.87367  -0.87237  -0.86590  -0.85038
 Alpha  occ. eigenvalues --   -0.84728  -0.83823  -0.83626  -0.82854  -0.82678
 Alpha  occ. eigenvalues --   -0.82538  -0.82257  -0.81744  -0.81386  -0.80660
 Alpha  occ. eigenvalues --   -0.80162  -0.78794  -0.78193  -0.77214  -0.76994
 Alpha  occ. eigenvalues --   -0.76815  -0.76669  -0.76002  -0.75545  -0.74841
 Alpha  occ. eigenvalues --   -0.74532  -0.72795  -0.72375  -0.71702  -0.71302
 Alpha  occ. eigenvalues --   -0.69680  -0.69490  -0.68916  -0.68537  -0.67687
 Alpha  occ. eigenvalues --   -0.67306  -0.67264  -0.66886  -0.65364  -0.65009
 Alpha  occ. eigenvalues --   -0.64934  -0.64645  -0.64498  -0.64392  -0.64170
 Alpha  occ. eigenvalues --   -0.63932  -0.62466  -0.62079  -0.60402  -0.59920
 Alpha  occ. eigenvalues --   -0.59862  -0.59507  -0.59025  -0.58706  -0.58552
 Alpha  occ. eigenvalues --   -0.58135  -0.57794  -0.57339  -0.57292  -0.56916
 Alpha  occ. eigenvalues --   -0.56399  -0.56157  -0.55888  -0.55650  -0.55548
 Alpha  occ. eigenvalues --   -0.55364  -0.55119  -0.54995  -0.54549  -0.54277
 Alpha  occ. eigenvalues --   -0.53968  -0.53651  -0.53309  -0.53266  -0.53023
 Alpha  occ. eigenvalues --   -0.52933  -0.52826  -0.52725  -0.52639  -0.52225
 Alpha  occ. eigenvalues --   -0.52154  -0.52122  -0.51976  -0.51673  -0.51620
 Alpha  occ. eigenvalues --   -0.51325  -0.51235  -0.50932  -0.50460  -0.49967
 Alpha  occ. eigenvalues --   -0.49946  -0.49823  -0.49579  -0.49562  -0.49476
 Alpha  occ. eigenvalues --   -0.49284  -0.49178  -0.49135  -0.48857  -0.48819
 Alpha  occ. eigenvalues --   -0.48722  -0.48494  -0.48392  -0.48294  -0.48138
 Alpha  occ. eigenvalues --   -0.47931  -0.47695  -0.47295  -0.47242  -0.46790
 Alpha  occ. eigenvalues --   -0.46718  -0.46623  -0.46423  -0.46398  -0.46263
 Alpha  occ. eigenvalues --   -0.46177  -0.45969  -0.45927  -0.45799  -0.45602
 Alpha  occ. eigenvalues --   -0.45122  -0.44942  -0.44701  -0.44479  -0.44263
 Alpha  occ. eigenvalues --   -0.44224  -0.44192  -0.44056  -0.43995  -0.43857
 Alpha  occ. eigenvalues --   -0.43777  -0.43634  -0.43514  -0.43385  -0.43352
 Alpha  occ. eigenvalues --   -0.43116  -0.43071  -0.42965  -0.42743  -0.42615
 Alpha  occ. eigenvalues --   -0.42515  -0.42227  -0.41923  -0.41738  -0.41704
 Alpha  occ. eigenvalues --   -0.41544  -0.41395  -0.41195  -0.41174  -0.40877
 Alpha  occ. eigenvalues --   -0.40779  -0.40710  -0.40448  -0.40436  -0.40356
 Alpha  occ. eigenvalues --   -0.40299  -0.40240  -0.39952  -0.39195  -0.39144
 Alpha  occ. eigenvalues --   -0.38379  -0.38102  -0.37836  -0.37434  -0.37343
 Alpha  occ. eigenvalues --   -0.37252  -0.36990  -0.36979  -0.36900  -0.36632
 Alpha  occ. eigenvalues --   -0.36217  -0.35975  -0.34331  -0.34131  -0.33960
 Alpha  occ. eigenvalues --   -0.33717  -0.33221  -0.32863  -0.31293  -0.31062
 Alpha  occ. eigenvalues --   -0.30921  -0.30671  -0.30233  -0.29709  -0.29504
 Alpha  occ. eigenvalues --   -0.29374  -0.28968  -0.28861  -0.24104  -0.23730
 Alpha  occ. eigenvalues --   -0.21147  -0.20784
 Alpha virt. eigenvalues --   -0.08801  -0.08443  -0.01744  -0.01380  -0.00071
 Alpha virt. eigenvalues --    0.00342   0.02089   0.02321   0.02511   0.04271
 Alpha virt. eigenvalues --    0.04674   0.04746   0.04997   0.05303   0.06020

 Mulliken charges:
               1
     1  Mg   0.839366
     2  C   -0.004128
     3  C   -0.093285
     4  C   -0.045342
     5  C   -0.060958
     6  N   -0.257127
     7  C   -0.052769
     8  C   -0.014266
     9  C   -0.087295
    10  C    0.046942
    11  C    0.104714
    12  C    0.053123
    13  C   -0.071315
    14  H    0.033290
    15  N   -0.433553
    16  C    0.169667
    17  C   -0.175609
    18  C   -0.002950
    19  C    0.149214
    20  C    0.109800
    21  C    0.013254
    22  O   -0.249317
    23  C    0.061624
    24  N   -0.341494
    25  C    0.042332
    26  C   -0.028230
    27  C   -0.024029
    28  C    0.075084
    29  C    0.076287
    30  C    0.034354
    31  C   -0.006651
    32  N   -0.309249
    33  C    0.078591
    34  C   -0.174603
    35  C    0.004666
    36  C    0.081734
    37  C    0.127686
    38  C    0.040767
    39  O   -0.190709
    40  C   -0.004423
    41  C    0.214013
    42  O   -0.262134
    43  O   -0.303287
    44  C    0.158341
    45  H   -0.017124
    46  H   -0.016187
    47  H   -0.040027
    48  H    0.000304
    49  H   -0.003309
    50  H    0.025265
    51  H    0.016866
    52  H    0.016980
    53  H    0.013378
    54  H    0.041779
    55  H    0.018057
    56  H    0.019426
    57  H    0.006096
    58  H    0.026947
    59  H    0.043320
    60  H    0.037103
    61  H    0.036078
    62  H    0.034715
    63  H    0.017317
    64  H    0.008798
    65  H    0.023182
    66  H    0.011947
    67  H    0.004864
    68  H    0.004645
    69  H    0.006993
    70  H    0.004739
    71  H    0.030411
    72  H    0.028201
    73  H    0.043493
    74  H    0.011893
    75  H    0.046261
    76  H    0.035781
    77  H    0.043466
    78  H    0.047502
    79  H    0.050460
    80  Mg   0.835831
    81  C   -0.017146
    82  C   -0.082284
    83  C   -0.046576
    84  C   -0.065012
    85  N   -0.254456
    86  C   -0.051207
    87  C   -0.015057
    88  C   -0.090774
    89  C    0.044936
    90  C    0.114404
    91  C    0.061573
    92  C   -0.076841
    93  H    0.031151
    94  N   -0.424264
    95  C    0.163289
    96  C   -0.169857
    97  C   -0.008602
    98  C    0.151741
    99  C    0.097905
   100  C    0.016487
   101  O   -0.258219
   102  C    0.057331
   103  N   -0.350226
   104  C    0.038486
   105  C   -0.019784
   106  C   -0.034316
   107  C    0.088209
   108  C    0.074053
   109  C    0.034938
   110  C   -0.007808
   111  N   -0.323672
   112  C    0.077064
   113  C   -0.164480
   114  C    0.001515
   115  C    0.094974
   116  C    0.131815
   117  C    0.041071
   118  O   -0.190191
   119  C    0.001167
   120  C    0.211304
   121  O   -0.252669
   122  O   -0.305270
   123  C    0.152619
   124  H   -0.018481
   125  H   -0.016781
   126  H   -0.041532
   127  H   -0.001678
   128  H   -0.002863
   129  H    0.021820
   130  H    0.014637
   131  H    0.015988
   132  H    0.016933
   133  H    0.035992
   134  H    0.020535
   135  H    0.020110
   136  H    0.009195
   137  H    0.022844
   138  H    0.060419
   139  H    0.039581
   140  H    0.030587
   141  H    0.046377
   142  H    0.013272
   143  H    0.011606
   144  H    0.023858
   145  H    0.011786
   146  H    0.005351
   147  H    0.004908
   148  H    0.003263
   149  H    0.010278
   150  H    0.019322
   151  H    0.030240
   152  H    0.044482
   153  H    0.007918
   154  H    0.046003
   155  H    0.034478
   156  H    0.043378
   157  H    0.049301
   158  H    0.051980
 Sum of Mulliken charges =  -0.00000

 Dipole moment (field-independent basis, Debye):
    X=              2.2996    Y=              3.1645    Z=              0.7753  Tot=              3.9878
 Quadrupole moment (field-independent basis, Debye-Ang):
   XX=           -531.2963   YY=           -463.3585   ZZ=           -515.8388
   XY=              1.5084   XZ=             42.8621   YZ=             15.7495

 Normal termination of Gaussian 16 at Wed Sep  8 16:45:11 2021.
