 Gaussian 16, Revision A.03,
 Gaussian 16:  ES64L-G16RevA.03 25-Dec-2016

 -----------------------------------
 #p cam-b3lyp/Def2SVP td=(nstates=5)
 -----------------------------------

 --------------------------------
 TDDFT excited states in gaussian
 --------------------------------
 Symbolic Z-matrix:
 Charge =  0 Multiplicity = 1

                         Standard orientation:
 ---------------------------------------------------------------------
 Center     Atomic      Atomic             Coordinates (Angstroms)
 Number     Number       Type             X           Y           Z
 ---------------------------------------------------------------------
      1         12           0        5.059701    1.226425    0.284322
      2          6           0        6.105243   -2.115171   -0.459177
      3          6           0        5.816591    2.023154   -2.946066
      4          6           0        4.575963    4.269107    1.035793
      5          6           0        5.467108    0.446117    3.656383
      6          7           0        5.851517    0.019515   -1.394082
      7          6           0        6.154219   -1.263568   -1.565080
      8          6           0        6.455907   -1.634887   -3.047807
      9          6           0        6.885038   -0.196474   -3.585220
     10          6           0        6.111140    0.669238   -2.606676
     11          6           0        8.374025    0.093854   -3.426702
     12          6           0        5.189334   -2.171506   -3.795848
     13          6           0        5.464468   -2.858192   -5.136787
     14          1           0        4.643500   -3.996050   -5.522324
     15          7           0        4.712342    2.791593   -0.869993
     16          6           0        5.077352    2.938768   -2.166293
     17          6           0        4.590190    4.272896   -2.577944
     18          6           0        4.079742    4.965876   -1.362496
     19          6           0        4.464582    4.034838   -0.332717
     20          6           0        4.593188    4.747638   -3.998634
     21          6           0        3.368737    6.266490   -1.159994
     22          8           0        3.221882    6.788292   -0.002095
     23          6           0        2.920300    6.966515   -2.377332
     24          7           0        5.234443    2.293171    2.070142
     25          6           0        4.908022    3.588642    2.134861
     26          6           0        4.841346    4.064596    3.555763
     27          6           0        4.953675    2.757203    4.465630
     28          6           0        5.158818    1.707305    3.345853
     29          6           0        5.920269    5.072542    3.975263
     30          6           0        3.824656    2.521259    5.500070
     31          6           0        2.526391    2.223572    4.783838
     32          7           0        5.502349   -0.558813    1.436723
     33          6           0        5.647181   -0.649473    2.828657
     34          6           0        6.050489   -2.034964    3.131683
     35          6           0        6.128870   -2.653676    1.885530
     36          6           0        5.821181   -1.707330    0.866683
     37          6           0        6.348416   -2.552682    4.423055
     38          6           0        6.424968   -3.887708    1.176060
     39          8           0        6.655402   -5.049243    1.515515
     40          6           0        6.540320   -3.557242   -0.377424
     41          6           0        5.726329   -4.580547   -1.121449
     42          8           0        4.483962   -4.614807   -1.008689
     43          8           0        6.504907   -5.197606   -2.023446
     44          6           0        5.751317   -6.205178   -2.816575
     45          1           0        6.237807    2.441214   -3.862442
     46          1           0        4.308735    5.280792    1.348076
     47          1           0        5.530231    0.107331    4.692092
     48          1           0        7.274847   -2.341876   -3.181699
     49          1           0        6.536919   -0.021835   -4.603079
     50          1           0        8.872994   -0.686078   -2.851675
     51          1           0        8.430315    1.048193   -2.902716
     52          1           0        8.842369    0.257065   -4.397678
     53          1           0        4.590206   -1.328021   -4.138834
     54          1           0        4.619989   -2.846102   -3.155463
     55          1           0        6.522658   -3.093354   -5.254442
     56          1           0        5.254958   -2.145704   -5.934700
     57          1           0        5.178819    4.089719   -4.639512
     58          1           0        5.132121    5.694703   -4.016730
     59          1           0        3.584194    4.891390   -4.385412
     60          1           0        3.782375    7.173008   -3.011947
     61          1           0        2.354088    7.832061   -2.035156
     62          1           0        2.271573    6.301597   -2.948283
     63          1           0        3.892704    4.560154    3.758069
     64          1           0        5.866300    2.751160    5.062082
     65          1           0        5.517852    6.008551    4.363403
     66          1           0        6.566802    5.251079    3.116536
     67          1           0        6.633563    4.699414    4.709704
     68          1           0        3.663429    3.418503    6.096647
     69          1           0        4.033982    1.700196    6.185847
     70          1           0        2.144052    3.216570    4.550163
     71          1           0        1.842810    1.687096    5.442717
     72          1           0        2.702087    1.711108    3.837795
     73          1           0        5.869310   -3.530144    4.477795
     74          1           0        5.986623   -1.889654    5.208613
     75          1           0        7.436668   -2.592435    4.378535
     76          1           0        7.598336   -3.612007   -0.631835
     77          1           0        6.272902   -7.155969   -2.706216
     78          1           0        5.651724   -5.796453   -3.822274
     79          1           0        4.760969   -6.469287   -2.444022
     80         12           0       -5.222324   -1.307167    0.125010
     81          6           0       -5.817476    2.038932   -1.027587
     82          6           0       -4.694855    0.014118    3.225107
     83          6           0       -4.254211   -4.175862    1.074084
     84          6           0       -4.671830   -2.205170   -3.197081
     85          7           0       -5.278268    0.772470    0.876186
     86          6           0       -5.576218    1.955123    0.359568
     87          6           0       -5.696832    3.099950    1.400900
     88          6           0       -4.777472    2.470788    2.557532
     89          6           0       -4.949995    0.989422    2.228217
     90          6           0       -3.306159    2.823463    2.415466
     91          6           0       -7.172752    3.309536    1.890540
     92          6           0       -7.414181    4.604527    2.669310
     93          1           0       -8.694335    5.287524    2.504401
     94          7           0       -5.048073   -2.064693    1.951031
     95          6           0       -4.861208   -1.382720    3.100497
     96          6           0       -4.776613   -2.398177    4.161562
     97          6           0       -4.763826   -3.742832    3.524025
     98          6           0       -4.665071   -3.371183    2.126812
     99          6           0       -4.797142   -2.052468    5.622209
    100          6           0       -4.817087   -5.133353    4.080647
    101          8           0       -4.553300   -6.158497    3.357922
    102          6           0       -5.095742   -5.253440    5.519198
    103          7           0       -4.352751   -2.905783   -0.880272
    104          6           0       -4.079030   -4.057235   -0.242173
    105          6           0       -3.716954   -5.149842   -1.219675
    106          6           0       -4.040786   -4.554868   -2.668376
    107          6           0       -4.468773   -3.126620   -2.265485
    108          6           0       -2.264863   -5.625317   -1.178022
    109          6           0       -4.992788   -5.384225   -3.573093
    110          6           0       -6.385860   -5.392178   -2.986011
    111          7           0       -5.413480   -0.342940   -1.798995
    112          6           0       -5.105391   -0.892386   -3.062823
    113          6           0       -5.288292    0.181466   -4.060723
    114          6           0       -5.670903    1.296247   -3.299576
    115          6           0       -5.703222    0.947533   -1.922311
    116          6           0       -5.056539    0.064779   -5.460299
    117          6           0       -6.044505    2.691554   -3.346979
    118          8           0       -6.272751    3.499664   -4.246199
    119          6           0       -6.033417    3.268275   -1.865873
    120          6           0       -7.306420    4.042420   -1.659316
    121          8           0       -8.406899    3.463230   -1.668197
    122          8           0       -7.002725    5.294382   -1.271074
    123          6           0       -8.233100    6.098084   -1.042951
    124          1           0       -4.288421    0.343917    4.181623
    125          1           0       -4.015621   -5.209328    1.335825
    126          1           0       -4.614883   -2.431262   -4.264002
    127          1           0       -5.290460    4.051336    1.079178
    128          1           0       -5.177495    2.691239    3.543812
    129          1           0       -3.103881    3.343062    1.490665
    130          1           0       -2.773789    1.881770    2.444603
    131          1           0       -2.967808    3.388099    3.288983
    132          1           0       -7.397912    2.574438    2.673906
    133          1           0       -7.859129    3.248954    1.068443
    134          1           0       -6.583841    5.312599    2.559250
    135          1           0       -7.427064    4.370370    3.736563
    136          1           0       -4.644556   -0.978171    5.783488
    137          1           0       -3.917264   -2.522689    6.074492
    138          1           0       -5.692875   -2.417851    6.128981
    139          1           0       -4.336826   -4.713431    6.080353
    140          1           0       -5.182390   -6.324569    5.711653
    141          1           0       -6.052582   -4.763879    5.732271
    142          1           0       -4.325532   -6.031011   -1.057596
    143          1           0       -3.131542   -4.450138   -3.278404
    144          1           0       -2.166482   -6.711896   -0.994313
    145          1           0       -1.742974   -5.062019   -0.415870
    146          1           0       -1.680676   -5.403949   -2.069613
    147          1           0       -4.666245   -6.426372   -3.611562
    148          1           0       -5.040256   -5.023689   -4.595217
    149          1           0       -6.335588   -6.192895   -2.242105
    150          1           0       -7.124094   -5.613001   -3.754315
    151          1           0       -6.592912   -4.457934   -2.451246
    152          1           0       -5.882504    0.558431   -5.954863
    153          1           0       -4.975190   -0.976712   -5.764344
    154          1           0       -4.102923    0.592742   -5.544768
    155          1           0       -5.149632    3.899683   -1.766787
    156          1           0       -8.151388    6.992057   -1.668918
    157          1           0       -8.290441    6.252634    0.050925
    158          1           0       -9.173385    5.683859   -1.387517
 ---------------------------------------------------------------------

 SCF Done:  E(RCAM-B3LYP) =  -4069.81182553     A.U. after   19 cycles

 Excitation energies and oscillator strengths:

 Excited State   1:      Singlet-A      1.6595 eV  747.13 nm  f=0.0493  <S**2>=0.000
     309 -> 315       -0.10971
     310 -> 316       -0.12996
     311 -> 313       -0.44305
     312 -> 314        0.52506
 This state for optimization and/or second-order correction.
 Total Energy, E(TD-HF/TD-DFT) =  -4069.75084099
 Copying the excited state density for this state as the 1-particle RhoCI density.

 Excited State   2:      Singlet-A      1.6938 eV  731.99 nm  f=0.6673  <S**2>=0.000
     309 -> 315        0.13683
     310 -> 316       -0.11501
     311 -> 313        0.52333
     312 -> 314        0.44162

 Excited State   3:      Singlet-A      2.1834 eV  567.86 nm  f=0.0368  <S**2>=0.000
     309 -> 313        0.25557
     310 -> 314        0.59115
     311 -> 315       -0.10680
     312 -> 316        0.24817

 Excited State   4:      Singlet-A      2.1951 eV  564.82 nm  f=0.1478  <S**2>=0.000
     309 -> 313        0.58733
     310 -> 314       -0.25281
     311 -> 315       -0.25742
     312 -> 316       -0.11181

 Excited State   5:      Singlet-A      2.4867 eV  498.59 nm  f=0.0000  <S**2>=0.000
     312 -> 313        0.70709

 The electronic state is 1-A.
 Alpha  occ. eigenvalues --  -46.87882 -46.87493 -19.26353 -19.26257 -19.19091
 Alpha  occ. eigenvalues --  -19.19062 -19.18878 -19.18535 -19.18233 -19.17938
 Alpha  occ. eigenvalues --  -14.42531 -14.42332 -14.41544 -14.41180 -14.39484
 Alpha  occ. eigenvalues --  -14.39185 -14.38669 -14.38444 -10.39151 -10.38989
 Alpha  occ. eigenvalues --  -10.35507 -10.35212 -10.34454 -10.34116 -10.31749
 Alpha  occ. eigenvalues --  -10.31677 -10.31483 -10.31162 -10.30982 -10.30857
 Alpha  occ. eigenvalues --  -10.30649 -10.30595 -10.30306 -10.30236 -10.30219
 Alpha  occ. eigenvalues --  -10.30025 -10.29950 -10.29708 -10.29707 -10.29332
 Alpha  occ. eigenvalues --  -10.29265 -10.29255 -10.28818 -10.28611 -10.28570
 Alpha  occ. eigenvalues --  -10.28540 -10.28438 -10.28247 -10.28182 -10.27985
 Alpha  occ. eigenvalues --  -10.27865 -10.27852 -10.27804 -10.27655 -10.27651
 Alpha  occ. eigenvalues --  -10.27592 -10.27510 -10.27507 -10.27484 -10.27328
 Alpha  occ. eigenvalues --  -10.27324 -10.27313 -10.27300 -10.27228 -10.27111
 Alpha  occ. eigenvalues --  -10.26931 -10.26778 -10.26565 -10.26423 -10.26398
 Alpha  occ. eigenvalues --  -10.26292 -10.26245 -10.26117 -10.25967 -10.25923
 Alpha  occ. eigenvalues --  -10.25842 -10.25779 -10.25768 -10.25563 -10.24986
 Alpha  occ. eigenvalues --  -10.24961 -10.24905 -10.24881 -10.24730 -10.24577
 Alpha  occ. eigenvalues --  -10.24502  -3.16625  -3.16243  -1.91506  -1.91125
 Alpha  occ. eigenvalues --   -1.91093  -1.90935  -1.90714  -1.90551  -1.16702
 Alpha  occ. eigenvalues --   -1.16549  -1.08691  -1.08552  -1.07280  -1.06847
 Alpha  occ. eigenvalues --   -1.06783  -1.06713  -1.04660  -1.04334  -1.03852
 Alpha  occ. eigenvalues --   -1.03495  -1.03318  -1.02866  -1.02497  -1.01943
 Alpha  occ. eigenvalues --   -0.92050  -0.91839  -0.89650  -0.89318  -0.89259
 Alpha  occ. eigenvalues --   -0.88997  -0.88415  -0.88012  -0.87947  -0.87755
 Alpha  occ. eigenvalues --   -0.87667  -0.87519  -0.87330  -0.86964  -0.85058
 Alpha  occ. eigenvalues --   -0.84845  -0.84082  -0.83669  -0.83037  -0.82754
 Alpha  occ. eigenvalues --   -0.82721  -0.82496  -0.81665  -0.81470  -0.80674
 Alpha  occ. eigenvalues --   -0.80298  -0.78862  -0.78487  -0.77316  -0.77023
 Alpha  occ. eigenvalues --   -0.76990  -0.76736  -0.75998  -0.75695  -0.75012
 Alpha  occ. eigenvalues --   -0.74571  -0.72861  -0.72545  -0.71759  -0.71391
 Alpha  occ. eigenvalues --   -0.70075  -0.69561  -0.68948  -0.68675  -0.67720
 Alpha  occ. eigenvalues --   -0.67441  -0.67287  -0.67054  -0.65366  -0.65125
 Alpha  occ. eigenvalues --   -0.64943  -0.64716  -0.64616  -0.64503  -0.64388
 Alpha  occ. eigenvalues --   -0.64017  -0.62382  -0.62148  -0.60518  -0.60167
 Alpha  occ. eigenvalues --   -0.59877  -0.59645  -0.59078  -0.58826  -0.58590
 Alpha  occ. eigenvalues --   -0.58268  -0.57659  -0.57435  -0.57404  -0.57064
 Alpha  occ. eigenvalues --   -0.56383  -0.56065  -0.56052  -0.55760  -0.55590
 Alpha  occ. eigenvalues --   -0.55458  -0.55310  -0.55072  -0.54633  -0.54318
 Alpha  occ. eigenvalues --   -0.53967  -0.53761  -0.53383  -0.53286  -0.53071
 Alpha  occ. eigenvalues --   -0.53005  -0.52994  -0.52814  -0.52759  -0.52608
 Alpha  occ. eigenvalues --   -0.52510  -0.52231  -0.51994  -0.51783  -0.51680
 Alpha  occ. eigenvalues --   -0.51515  -0.51289  -0.51061  -0.50620  -0.50310
 Alpha  occ. eigenvalues --   -0.50161  -0.49981  -0.49815  -0.49650  -0.49581
 Alpha  occ. eigenvalues --   -0.49332  -0.49284  -0.49166  -0.49062  -0.48958
 Alpha  occ. eigenvalues --   -0.48674  -0.48564  -0.48508  -0.48420  -0.48191
 Alpha  occ. eigenvalues --   -0.48150  -0.47776  -0.47435  -0.47373  -0.46940
 Alpha  occ. eigenvalues --   -0.46898  -0.46627  -0.46546  -0.46449  -0.46397
 Alpha  occ. eigenvalues --   -0.46257  -0.46111  -0.45911  -0.45902  -0.45690
 Alpha  occ. eigenvalues --   -0.45320  -0.44963  -0.44660  -0.44587  -0.44373
 Alpha  occ. eigenvalues --   -0.44321  -0.44254  -0.44162  -0.44084  -0.43978
 Alpha  occ. eigenvalues --   -0.43909  -0.43793  -0.43578  -0.43475  -0.43422
 Alpha  occ. eigenvalues --   -0.43218  -0.43116  -0.42827  -0.42811  -0.42756
 Alpha  occ. eigenvalues --   -0.42742  -0.42365  -0.42133  -0.41802  -0.41788
 Alpha  occ. eigenvalues --   -0.41615  -0.41516  -0.41301  -0.41225  -0.40972
 Alpha  occ. eigenvalues --   -0.40888  -0.40809  -0.40691  -0.40561  -0.40534
 Alpha  occ. eigenvalues --   -0.40305  -0.40294  -0.40081  -0.39625  -0.39237
 Alpha  occ. eigenvalues --   -0.38594  -0.38138  -0.37827  -0.37510  -0.37435
 Alpha  occ. eigenvalues --   -0.37338  -0.37088  -0.37045  -0.36802  -0.36646
 Alpha  occ. eigenvalues --   -0.36289  -0.36038  -0.34371  -0.34091  -0.33844
 Alpha  occ. eigenvalues --   -0.33750  -0.33271  -0.33013  -0.31411  -0.31120
 Alpha  occ. eigenvalues --   -0.31091  -0.30805  -0.30093  -0.29845  -0.29520
 Alpha  occ. eigenvalues --   -0.29396  -0.29172  -0.29069  -0.24166  -0.23871
 Alpha  occ. eigenvalues --   -0.21211  -0.20952
 Alpha virt. eigenvalues --   -0.08851  -0.08633  -0.01838  -0.01508  -0.00123
 Alpha virt. eigenvalues --    0.00132   0.02123   0.02346   0.03014   0.03385
 Alpha virt. eigenvalues --    0.04634   0.04892   0.05028   0.05271   0.06098

 Mulliken charges:
               1
     1  Mg   0.838639
     2  C   -0.002858
     3  C   -0.093677
     4  C   -0.046247
     5  C   -0.064230
     6  N   -0.256719
     7  C   -0.052501
     8  C   -0.014021
     9  C   -0.087067
    10  C    0.046264
    11  C    0.104738
    12  C    0.053428
    13  C   -0.071708
    14  H    0.035515
    15  N   -0.433203
    16  C    0.168438
    17  C   -0.176645
    18  C   -0.003850
    19  C    0.148631
    20  C    0.109981
    21  C    0.012149
    22  O   -0.250266
    23  C    0.062345
    24  N   -0.341015
    25  C    0.041201
    26  C   -0.028162
    27  C   -0.023774
    28  C    0.074431
    29  C    0.076144
    30  C    0.035345
    31  C   -0.004337
    32  N   -0.310454
    33  C    0.080208
    34  C   -0.169790
    35  C    0.008560
    36  C    0.082889
    37  C    0.127319
    38  C    0.046259
    39  O   -0.188122
    40  C   -0.005411
    41  C    0.213036
    42  O   -0.257261
    43  O   -0.304694
    44  C    0.157700
    45  H   -0.017171
    46  H   -0.017149
    47  H   -0.041921
    48  H    0.001077
    49  H   -0.003741
    50  H    0.025532
    51  H    0.016482
    52  H    0.016958
    53  H    0.011355
    54  H    0.043782
    55  H    0.018125
    56  H    0.018258
    57  H    0.006078
    58  H    0.027080
    59  H    0.040713
    60  H    0.037593
    61  H    0.035890
    62  H    0.032583
    63  H    0.015651
    64  H    0.009672
    65  H    0.022989
    66  H    0.013038
    67  H    0.004854
    68  H    0.005906
    69  H    0.004757
    70  H    0.007750
    71  H    0.015907
    72  H    0.029938
    73  H    0.047802
    74  H    0.008574
    75  H    0.046127
    76  H    0.035322
    77  H    0.043234
    78  H    0.046318
    79  H    0.053431
    80  Mg   0.838059
    81  C   -0.017143
    82  C   -0.087912
    83  C   -0.044475
    84  C   -0.064715
    85  N   -0.254681
    86  C   -0.049990
    87  C   -0.015108
    88  C   -0.090566
    89  C    0.046082
    90  C    0.114411
    91  C    0.062557
    92  C   -0.077735
    93  H    0.034285
    94  N   -0.423743
    95  C    0.163443
    96  C   -0.174351
    97  C   -0.007059
    98  C    0.152269
    99  C    0.099292
   100  C    0.015956
   101  O   -0.252212
   102  C    0.061191
   103  N   -0.350012
   104  C    0.038425
   105  C   -0.020477
   106  C   -0.034217
   107  C    0.088897
   108  C    0.072633
   109  C    0.034720
   110  C   -0.007530
   111  N   -0.323878
   112  C    0.078230
   113  C   -0.163787
   114  C    0.001714
   115  C    0.096124
   116  C    0.131664
   117  C    0.041638
   118  O   -0.189246
   119  C    0.001172
   120  C    0.211085
   121  O   -0.251154
   122  O   -0.305593
   123  C    0.152200
   124  H   -0.019953
   125  H   -0.014408
   126  H   -0.041207
   127  H   -0.000562
   128  H   -0.004757
   129  H    0.023017
   130  H    0.014759
   131  H    0.016352
   132  H    0.013750
   133  H    0.037432
   134  H    0.021058
   135  H    0.019404
   136  H    0.008345
   137  H    0.026433
   138  H    0.039548
   139  H    0.038409
   140  H    0.036517
   141  H    0.033353
   142  H    0.013875
   143  H    0.012442
   144  H    0.025262
   145  H    0.015954
   146  H    0.007134
   147  H    0.006252
   148  H    0.002711
   149  H    0.011058
   150  H    0.017202
   151  H    0.029952
   152  H    0.045434
   153  H    0.008246
   154  H    0.045521
   155  H    0.034574
   156  H    0.043465
   157  H    0.049638
   158  H    0.053328
 Sum of Mulliken charges =  -0.00000

 Dipole moment (field-independent basis, Debye):
    X=              3.5591    Y=              2.8903    Z=              0.6388  Tot=              4.6291
 Quadrupole moment (field-independent basis, Debye-Ang):
   XX=           -524.3720   YY=           -540.0444   ZZ=           -455.4583
   XY=             18.5653   XZ=            -53.7061   YZ=             35.2467

 Normal termination of Gaussian 16 at Fri Sep 10 15:15:34 2021.
