 Gaussian 16, Revision A.03,
 Gaussian 16:  ES64L-G16RevA.03 25-Dec-2016

 -----------------------------------
 #p cam-b3lyp/Def2SVP td=(nstates=5)
 -----------------------------------

 --------------------------------
 TDDFT excited states in gaussian
 --------------------------------
 Symbolic Z-matrix:
 Charge =  0 Multiplicity = 1

                         Standard orientation:
 ---------------------------------------------------------------------
 Center     Atomic      Atomic             Coordinates (Angstroms)
 Number     Number       Type             X           Y           Z
 ---------------------------------------------------------------------
      1         12           0       -3.180121   -2.227336    0.195269
      2          6           0       -5.403634    0.576302    0.106839
      3          6           0       -3.997849   -2.789507   -3.069444
      4          6           0       -1.581910   -4.960225    0.378727
      5          6           0       -3.422131   -2.121937    3.670321
      6          7           0       -4.538914   -1.169985   -1.196254
      7          6           0       -5.287004   -0.073489   -1.123939
      8          6           0       -5.875976    0.364338   -2.498273
      9          6           0       -5.840089   -1.042688   -3.247263
     10          6           0       -4.701221   -1.695320   -2.483735
     11          6           0       -7.104495   -1.871943   -3.046975
     12          6           0       -4.975305    1.421457   -3.221476
     13          6           0       -5.632039    2.139978   -4.403754
     14          1           0       -5.310801    3.539606   -4.638692
     15          7           0       -2.452826   -3.384441   -1.231265
     16          6           0       -2.897915   -3.473221   -2.507705
     17          6           0       -2.031068   -4.469359   -3.173260
     18          6           0       -1.168531   -5.091035   -2.130359
     19          6           0       -1.725350   -4.514765   -0.933178
     20          6           0       -2.040754   -4.711628   -4.651422
     21          6           0       -0.030887   -6.060035   -2.200645
     22          8           0        0.427116   -6.647786   -1.161725
     23          6           0        0.482082   -6.374406   -3.546407
     24          7           0       -2.755771   -3.520723    1.777897
     25          6           0       -1.994181   -4.605348    1.597473
     26          6           0       -1.594841   -5.216260    2.907913
     27          6           0       -2.043588   -4.177754    4.034804
     28          6           0       -2.734718   -3.129667    3.128094
     29          6           0       -2.196972   -6.594355    3.215005
     30          6           0       -0.950643   -3.694009    5.020646
     31          6           0        0.066387   -2.850018    4.285510
     32          7           0       -4.072736   -0.901674    1.663909
     33          6           0       -4.070495   -1.063019    3.056977
     34          6           0       -4.890368    0.025872    3.619287
     35          6           0       -5.329063    0.739964    2.505974
     36          6           0       -4.837337    0.120107    1.321797
     37          6           0       -5.191071    0.216542    4.996842
     38          6           0       -6.119117    1.868076    2.040105
     39          8           0       -6.696003    2.808182    2.588644
     40          6           0       -6.299483    1.736411    0.463413
     41          6           0       -5.988296    3.077482   -0.143217
     42          8           0       -4.831381    3.543827   -0.105332
     43          8           0       -7.035833    3.488659   -0.874068
     44          6           0       -6.781281    4.800121   -1.527844
     45          1           0       -4.355083   -3.200846   -4.015554
     46          1           0       -0.944035   -5.838969    0.494332
     47          1           0       -3.473255   -1.975730    4.750813
     48          1           0       -6.899361    0.737597   -2.456026
     49          1           0       -5.578861   -0.936762   -4.300003
     50          1           0       -7.769940   -1.413456   -2.315609
     51          1           0       -6.761750   -2.844369   -2.692847
     52          1           0       -7.600730   -2.057930   -3.999832
     53          1           0       -4.166566    0.908629   -3.742062
     54          1           0       -4.602891    2.161084   -2.511838
     55          1           0       -6.711932    1.989393   -4.411698
     56          1           0       -5.286148    1.669534   -5.324212
     57          1           0       -2.891492   -4.228942   -5.130803
     58          1           0       -2.214898   -5.777377   -4.798261
     59          1           0       -1.099407   -4.424900   -5.120448
     60          1           0       -0.324511   -6.789505   -4.151096
     61          1           0        1.350784   -7.014207   -3.395205
     62          1           0        0.785104   -5.447483   -4.034198
     63          1           0       -0.516064   -5.357089    2.961132
     64          1           0       -2.822097   -4.585454    4.680078
     65          1           0       -1.450520   -7.364829    3.409639
     66          1           0       -2.839982   -6.874576    2.381155
     67          1           0       -2.901026   -6.610538    4.046548
     68          1           0       -0.416706   -4.544997    5.442163
     69          1           0       -1.347667   -3.107928    5.849580
     70          1           0        0.738740   -3.594344    3.860361
     71          1           0        0.595262   -2.198838    4.982265
     72          1           0       -0.389555   -2.310613    3.455061
     73          1           0       -5.078687    1.283553    5.188739
     74          1           0       -4.529181   -0.371993    5.631768
     75          1           0       -6.222153   -0.135154    5.029012
     76          1           0       -7.333064    1.438525    0.289932
     77          1           0       -7.583360    5.472115   -1.222350
     78          1           0       -6.668309    4.598526   -2.593209
     79          1           0       -5.907150    5.351046   -1.178967
     80         12           0        3.316374    2.337808   -0.081132
     81          6           0        5.177553   -0.695617   -0.543063
     82          6           0        2.998964    1.467130    3.201515
     83          6           0        1.299225    4.762544    0.264147
     84          6           0        2.805431    2.385535   -3.528216
     85          7           0        4.039461    0.587831    1.062090
     86          6           0        4.789215   -0.470649    0.794103
     87          6           0        5.209930   -1.293299    2.041429
     88          6           0        4.019020   -0.860336    3.027911
     89          6           0        3.681276    0.499942    2.421069
     90          6           0        2.792327   -1.750482    2.917399
     91          6           0        6.608355   -0.855415    2.602402
     92          6           0        7.220397   -1.815515    3.624833
     93          1           0        8.669683   -1.994456    3.630984
     94          7           0        2.706825    3.278003    1.556864
     95          6           0        2.665913    2.782971    2.811679
     96          6           0        2.121427    3.860852    3.651850
     97          6           0        1.690311    4.974991    2.764419
     98          6           0        1.866765    4.359777    1.464248
     99          6           0        2.122765    3.802865    5.151867
    100          6           0        1.188540    6.359955    3.040655
    101          8           0        0.646820    7.074953    2.125150
    102          6           0        1.265157    6.818984    4.435259
    103          7           0        2.034211    3.304288   -1.401874
    104          6           0        1.306364    4.364027   -1.008033
    105          6           0        0.673879    5.060670   -2.189149
    106          6           0        1.327702    4.388842   -3.484820
    107          6           0        2.197079    3.311603   -2.799891
    108          6           0       -0.848947    4.965438   -2.280372
    109          6           0        2.002855    5.343150   -4.507621
    110          6           0        3.237106    5.965766   -3.895743
    111          7           0        4.025046    1.198308   -1.774466
    112          6           0        3.664686    1.369803   -3.129023
    113          6           0        4.315262    0.285741   -3.893222
    114          6           0        4.995696   -0.460629   -2.919341
    115          6           0        4.767664    0.105683   -1.636065
    116          6           0        4.193749    0.066958   -5.294466
    117          6           0        5.846357   -1.605002   -2.683803
    118          8           0        6.434448   -2.412688   -3.401797
    119          6           0        5.898970   -1.882138   -1.119571
    120          6           0        7.338260   -2.083340   -0.731654
    121          8           0        8.154096   -1.149203   -0.823345
    122          8           0        7.466404   -3.272479   -0.115296
    123          6           0        8.874585   -3.512741    0.298370
    124          1           0        2.646839    1.179549    4.192558
    125          1           0        0.682639    5.663051    0.312920
    126          1           0        2.774944    2.388241   -4.619892
    127          1           0        5.203921   -2.367456    1.900334
    128          1           0        4.373943   -0.744924    4.048727
    129          1           0        2.879825   -2.458172    2.106429
    130          1           0        1.958217   -1.082192    2.748024
    131          1           0        2.595478   -2.241592    3.874683
    132          1           0        6.478729    0.033321    3.233339
    133          1           0        7.303785   -0.687230    1.803197
    134          1           0        6.713087   -2.787890    3.632359
    135          1           0        7.045307   -1.414113    4.625953
    136          1           0        2.349684    2.792965    5.515189
    137          1           0        1.093541    3.984628    5.479807
    138          1           0        2.774989    4.554387    5.601856
    139          1           0        0.699098    6.141460    5.070068
    140          1           0        0.943886    7.862230    4.417601
    141          1           0        2.308367    6.761970    4.765532
    142          1           0        0.908275    6.118094   -2.185420
    143          1           0        0.579682    3.852702   -4.087201
    144          1           0       -1.346751    5.952896   -2.314643
    145          1           0       -1.205974    4.388653   -1.437533
    146          1           0       -1.226063    4.394672   -3.127259
    147          1           0        1.330539    6.167664   -4.757251
    148          1           0        2.274844    4.856349   -5.438227
    149          1           0        2.831990    6.805889   -3.323758
    150          1           0        3.918164    6.308664   -4.672022
    151          1           0        3.711812    5.280641   -3.183776
    152          1           0        5.185352   -0.163358   -5.660761
    153          1           0        3.775097    0.936012   -5.797717
    154          1           0        3.505042   -0.782101   -5.300299
    155          1           0        5.294355   -2.768429   -0.923378
    156          1           0        9.179037   -4.466598   -0.143392
    157          1           0        8.877230   -3.445345    1.402544
    158          1           0        9.633120   -2.845960   -0.094650
 ---------------------------------------------------------------------

 SCF Done:  E(RCAM-B3LYP) =  -4069.80963985     A.U. after   19 cycles

 Excitation energies and oscillator strengths:

 Excited State   1:      Singlet-A      1.6381 eV  756.87 nm  f=0.0056  <S**2>=0.000
     309 -> 315        0.11085
     310 -> 316        0.12190
     311 -> 313        0.46306
     312 -> 314        0.50925
 This state for optimization and/or second-order correction.
 Total Energy, E(TD-HF/TD-DFT) =  -4069.74944050
 Copying the excited state density for this state as the 1-particle RhoCI density.

 Excited State   2:      Singlet-A      1.7117 eV  724.33 nm  f=0.6754  <S**2>=0.000
     309 -> 315        0.13602
     310 -> 316       -0.12333
     311 -> 313        0.50584
     312 -> 314       -0.45992

 Excited State   3:      Singlet-A      2.1791 eV  568.98 nm  f=0.0099  <S**2>=0.000
     309 -> 313        0.34668
     310 -> 314        0.54598
     311 -> 315       -0.14163
     312 -> 316       -0.22399

 Excited State   4:      Singlet-A      2.1996 eV  563.66 nm  f=0.1573  <S**2>=0.000
     309 -> 313        0.53884
     310 -> 314       -0.34068
     311 -> 315       -0.24006
     312 -> 316        0.15304

 Excited State   5:      Singlet-A      2.2305 eV  555.86 nm  f=0.0000  <S**2>=0.000
     312 -> 313        0.70706

 The electronic state is 1-A.
 Alpha  occ. eigenvalues --  -46.87932 -46.87377 -19.26357 -19.26127 -19.19110
 Alpha  occ. eigenvalues --  -19.18939 -19.18847 -19.18362 -19.18262 -19.17815
 Alpha  occ. eigenvalues --  -14.42585 -14.42207 -14.41609 -14.41065 -14.39524
 Alpha  occ. eigenvalues --  -14.39059 -14.38719 -14.38330 -10.39166 -10.38862
 Alpha  occ. eigenvalues --  -10.35470 -10.35036 -10.34485 -10.33993 -10.31734
 Alpha  occ. eigenvalues --  -10.31563 -10.31544 -10.31059 -10.31022 -10.30715
 Alpha  occ. eigenvalues --  -10.30706 -10.30645 -10.30372 -10.30122 -10.30112
 Alpha  occ. eigenvalues --  -10.30099 -10.29826 -10.29749 -10.29587 -10.29376
 Alpha  occ. eigenvalues --  -10.29140 -10.29133 -10.28879 -10.28700 -10.28475
 Alpha  occ. eigenvalues --  -10.28465 -10.28430 -10.28241 -10.28113 -10.27908
 Alpha  occ. eigenvalues --  -10.27859 -10.27815 -10.27770 -10.27730 -10.27697
 Alpha  occ. eigenvalues --  -10.27685 -10.27531 -10.27525 -10.27397 -10.27257
 Alpha  occ. eigenvalues --  -10.27218 -10.27203 -10.27190 -10.27187 -10.26977
 Alpha  occ. eigenvalues --  -10.26864 -10.26784 -10.26553 -10.26456 -10.26343
 Alpha  occ. eigenvalues --  -10.26311 -10.26193 -10.26066 -10.26015 -10.25923
 Alpha  occ. eigenvalues --  -10.25756 -10.25671 -10.25638 -10.25544 -10.25233
 Alpha  occ. eigenvalues --  -10.24947 -10.24936 -10.24758 -10.24610 -10.24527
 Alpha  occ. eigenvalues --  -10.24354  -3.16674  -3.16128  -1.91556  -1.91143
 Alpha  occ. eigenvalues --   -1.91010  -1.90984  -1.90598  -1.90435  -1.16708
 Alpha  occ. eigenvalues --   -1.16421  -1.08718  -1.08432  -1.07244  -1.06724
 Alpha  occ. eigenvalues --   -1.06722  -1.06602  -1.04711  -1.04208  -1.03911
 Alpha  occ. eigenvalues --   -1.03371  -1.03367  -1.02747  -1.02550  -1.01822
 Alpha  occ. eigenvalues --   -0.92095  -0.91711  -0.89763  -0.89322  -0.89213
 Alpha  occ. eigenvalues --   -0.88867  -0.88512  -0.88009  -0.87898  -0.87815
 Alpha  occ. eigenvalues --   -0.87580  -0.87402  -0.87340  -0.86826  -0.85118
 Alpha  occ. eigenvalues --   -0.84727  -0.84212  -0.83549  -0.83058  -0.82744
 Alpha  occ. eigenvalues --   -0.82608  -0.82362  -0.81702  -0.81354  -0.80710
 Alpha  occ. eigenvalues --   -0.80175  -0.78895  -0.78368  -0.77429  -0.77107
 Alpha  occ. eigenvalues --   -0.76867  -0.76614  -0.76050  -0.75589  -0.75081
 Alpha  occ. eigenvalues --   -0.74427  -0.72929  -0.72436  -0.71816  -0.71280
 Alpha  occ. eigenvalues --   -0.70248  -0.69464  -0.69002  -0.68537  -0.67760
 Alpha  occ. eigenvalues --   -0.67331  -0.67315  -0.66932  -0.65432  -0.65027
 Alpha  occ. eigenvalues --   -0.64987  -0.64784  -0.64513  -0.64475  -0.64363
 Alpha  occ. eigenvalues --   -0.63907  -0.62416  -0.62029  -0.60552  -0.60032
 Alpha  occ. eigenvalues --   -0.59931  -0.59520  -0.59139  -0.58704  -0.58644
 Alpha  occ. eigenvalues --   -0.58145  -0.57695  -0.57461  -0.57311  -0.56939
 Alpha  occ. eigenvalues --   -0.56427  -0.56080  -0.55958  -0.55671  -0.55632
 Alpha  occ. eigenvalues --   -0.55551  -0.55176  -0.54959  -0.54737  -0.54200
 Alpha  occ. eigenvalues --   -0.54028  -0.53647  -0.53450  -0.53300  -0.53083
 Alpha  occ. eigenvalues --   -0.52956  -0.52859  -0.52843  -0.52730  -0.52635
 Alpha  occ. eigenvalues --   -0.52362  -0.52156  -0.52062  -0.51726  -0.51717
 Alpha  occ. eigenvalues --   -0.51397  -0.51357  -0.50953  -0.50630  -0.50281
 Alpha  occ. eigenvalues --   -0.50167  -0.49998  -0.49689  -0.49605  -0.49520
 Alpha  occ. eigenvalues --   -0.49323  -0.49219  -0.49199  -0.48951  -0.48837
 Alpha  occ. eigenvalues --   -0.48733  -0.48630  -0.48503  -0.48302  -0.48059
 Alpha  occ. eigenvalues --   -0.48008  -0.47827  -0.47414  -0.47314  -0.47014
 Alpha  occ. eigenvalues --   -0.46815  -0.46684  -0.46553  -0.46431  -0.46320
 Alpha  occ. eigenvalues --   -0.46236  -0.46003  -0.45950  -0.45804  -0.45607
 Alpha  occ. eigenvalues --   -0.45342  -0.44804  -0.44757  -0.44640  -0.44387
 Alpha  occ. eigenvalues --   -0.44262  -0.44205  -0.44144  -0.44095  -0.43827
 Alpha  occ. eigenvalues --   -0.43790  -0.43660  -0.43624  -0.43531  -0.43306
 Alpha  occ. eigenvalues --   -0.43192  -0.43089  -0.42966  -0.42773  -0.42686
 Alpha  occ. eigenvalues --   -0.42632  -0.42269  -0.42221  -0.41839  -0.41705
 Alpha  occ. eigenvalues --   -0.41669  -0.41395  -0.41288  -0.41191  -0.41062
 Alpha  occ. eigenvalues --   -0.40884  -0.40773  -0.40746  -0.40479  -0.40381
 Alpha  occ. eigenvalues --   -0.40359  -0.40203  -0.39956  -0.39467  -0.39148
 Alpha  occ. eigenvalues --   -0.38691  -0.38010  -0.37894  -0.37524  -0.37392
 Alpha  occ. eigenvalues --   -0.37363  -0.36971  -0.36921  -0.36827  -0.36520
 Alpha  occ. eigenvalues --   -0.36332  -0.35906  -0.34425  -0.33970  -0.33858
 Alpha  occ. eigenvalues --   -0.33626  -0.33320  -0.32894  -0.31387  -0.31164
 Alpha  occ. eigenvalues --   -0.30920  -0.30667  -0.30124  -0.29724  -0.29549
 Alpha  occ. eigenvalues --   -0.29437  -0.29045  -0.28950  -0.24220  -0.23749
 Alpha  occ. eigenvalues --   -0.21267  -0.20829
 Alpha virt. eigenvalues --   -0.08895  -0.08507  -0.01889  -0.01378  -0.00136
 Alpha virt. eigenvalues --    0.00278   0.02072   0.02365   0.02585   0.03614
 Alpha virt. eigenvalues --    0.04560   0.04978   0.05039   0.05401   0.05934

 Mulliken charges:
               1
     1  Mg   0.838924
     2  C   -0.002554
     3  C   -0.093740
     4  C   -0.046793
     5  C   -0.064993
     6  N   -0.256529
     7  C   -0.052882
     8  C   -0.013936
     9  C   -0.087076
    10  C    0.046312
    11  C    0.104716
    12  C    0.052739
    13  C   -0.071768
    14  H    0.035195
    15  N   -0.433441
    16  C    0.168951
    17  C   -0.176442
    18  C   -0.003066
    19  C    0.149097
    20  C    0.110111
    21  C    0.012998
    22  O   -0.249897
    23  C    0.062088
    24  N   -0.340830
    25  C    0.041228
    26  C   -0.029039
    27  C   -0.025111
    28  C    0.073700
    29  C    0.076208
    30  C    0.057892
    31  C   -0.044404
    32  N   -0.310483
    33  C    0.079919
    34  C   -0.170572
    35  C    0.008728
    36  C    0.083119
    37  C    0.127421
    38  C    0.046595
    39  O   -0.187940
    40  C   -0.005661
    41  C    0.213151
    42  O   -0.256210
    43  O   -0.304891
    44  C    0.156981
    45  H   -0.017038
    46  H   -0.016975
    47  H   -0.042790
    48  H    0.001298
    49  H   -0.003908
    50  H    0.025670
    51  H    0.016602
    52  H    0.017053
    53  H    0.010806
    54  H    0.044313
    55  H    0.018632
    56  H    0.017978
    57  H    0.005727
    58  H    0.027496
    59  H    0.040953
    60  H    0.036876
    61  H    0.038027
    62  H    0.033665
    63  H    0.015946
    64  H    0.009909
    65  H    0.023247
    66  H    0.013492
    67  H    0.004974
    68  H    0.004532
    69  H    0.001660
    70  H    0.022794
    71  H    0.020024
    72  H    0.036683
    73  H    0.047113
    74  H    0.007597
    75  H    0.046382
    76  H    0.035344
    77  H    0.043527
    78  H    0.045824
    79  H    0.054966
    80  Mg   0.836642
    81  C   -0.017127
    82  C   -0.088674
    83  C   -0.041198
    84  C   -0.065720
    85  N   -0.255087
    86  C   -0.049966
    87  C   -0.015285
    88  C   -0.086272
    89  C    0.046336
    90  C    0.101621
    91  C    0.063365
    92  C   -0.077392
    93  H    0.033938
    94  N   -0.424277
    95  C    0.163979
    96  C   -0.173398
    97  C   -0.005127
    98  C    0.152037
    99  C    0.098969
   100  C    0.017329
   101  O   -0.251227
   102  C    0.061024
   103  N   -0.350192
   104  C    0.038575
   105  C   -0.020780
   106  C   -0.033503
   107  C    0.088440
   108  C    0.070754
   109  C    0.034963
   110  C   -0.007379
   111  N   -0.323750
   112  C    0.077944
   113  C   -0.164847
   114  C    0.001430
   115  C    0.095753
   116  C    0.131975
   117  C    0.041062
   118  O   -0.189836
   119  C    0.001048
   120  C    0.210865
   121  O   -0.251584
   122  O   -0.305054
   123  C    0.152396
   124  H   -0.020771
   125  H   -0.012785
   126  H   -0.042512
   127  H   -0.000256
   128  H   -0.006639
   129  H    0.023627
   130  H    0.018311
   131  H    0.019287
   132  H    0.013399
   133  H    0.037297
   134  H    0.020665
   135  H    0.018820
   136  H    0.007334
   137  H    0.027839
   138  H    0.039306
   139  H    0.039449
   140  H    0.036418
   141  H    0.032470
   142  H    0.013285
   143  H    0.010184
   144  H    0.023136
   145  H    0.027058
   146  H    0.002092
   147  H    0.005361
   148  H    0.001887
   149  H    0.011063
   150  H    0.016763
   151  H    0.030355
   152  H    0.045355
   153  H    0.007716
   154  H    0.043081
   155  H    0.036595
   156  H    0.043565
   157  H    0.049308
   158  H    0.052958
 Sum of Mulliken charges =  -0.00000

 Dipole moment (field-independent basis, Debye):
    X=             -3.3645    Y=             -2.7494    Z=              0.3239  Tot=              4.3570
 Quadrupole moment (field-independent basis, Debye-Ang):
   XX=           -538.0673   YY=           -532.4914   ZZ=           -450.2810
   XY=             21.4348   XZ=             59.5001   YZ=            -22.1676

 Normal termination of Gaussian 16 at Wed Sep  8 19:02:48 2021.
