 Gaussian 16, Revision A.03,
 Gaussian 16:  ES64L-G16RevA.03 25-Dec-2016

 -----------------------------------
 #p cam-b3lyp/Def2SVP td=(nstates=5)
 -----------------------------------

 --------------------------------
 TDDFT excited states in gaussian
 --------------------------------
 Symbolic Z-matrix:
 Charge =  0 Multiplicity = 1

                         Standard orientation:
 ---------------------------------------------------------------------
 Center     Atomic      Atomic             Coordinates (Angstroms)
 Number     Number       Type             X           Y           Z
 ---------------------------------------------------------------------
      1         12           0        3.565133   -1.621576   -0.132851
      2          6           0        4.668727    1.282596   -1.910512
      3          6           0        5.415622   -0.521517    2.514529
      4          6           0        2.974147   -4.392342    1.292003
      5          6           0        2.759296   -3.023759   -3.219949
      6          7           0        4.836233    0.169339    0.145675
      7          6           0        5.128018    1.235794   -0.592367
      8          6           0        5.905203    2.335527    0.191180
      9          6           0        6.549466    1.425098    1.330496
     10          6           0        5.521796    0.307495    1.358459
     11          6           0        7.903919    0.837439    0.947589
     12          6           0        4.951993    3.420741    0.795690
     13          6           0        5.643077    4.694207    1.291714
     14          1           0        4.959760    5.969042    1.132902
     15          7           0        3.697444   -2.137892    1.769453
     16          6           0        4.490671   -1.570011    2.709447
     17          6           0        4.227753   -2.307206    3.964078
     18          6           0        3.359157   -3.471227    3.634400
     19          6           0        3.329942   -3.394313    2.196134
     20          6           0        4.736953   -1.863723    5.301160
     21          6           0        2.674090   -4.497240    4.480635
     22          8           0        2.159652   -5.556376    3.982479
     23          6           0        2.698812   -4.270440    5.936998
     24          7           0        3.158657   -3.534978   -0.861756
     25          6           0        2.881576   -4.545590   -0.030568
     26          6           0        2.350306   -5.734647   -0.774768
     27          6           0        2.091560   -5.240301   -2.270905
     28          6           0        2.626640   -3.793210   -2.137167
     29          6           0        3.258882   -6.971600   -0.795941
     30          6           0        0.667694   -5.450130   -2.844489
     31          6           0       -0.316682   -4.567878   -2.109825
     32          7           0        3.514161   -0.945920   -2.194874
     33          6           0        3.168814   -1.704799   -3.322487
     34          6           0        3.388276   -0.848960   -4.502929
     35          6           0        3.864892    0.350556   -3.977720
     36          6           0        3.963364    0.241410   -2.561146
     37          6           0        3.204146   -1.236941   -5.859395
     38          6           0        4.337212    1.690667   -4.285737
     39          8           0        4.390837    2.377905   -5.306678
     40          6           0        4.991688    2.305839   -2.970803
     41          6           0        4.442489    3.695646   -2.797231
     42          8           0        3.236552    3.878658   -2.533438
     43          8           0        5.458159    4.570196   -2.733045
     44          6           0        4.983118    5.965144   -2.531524
     45          1           0        6.141978   -0.399066    3.320354
     46          1           0        2.656389   -5.330806    1.751081
     47          1           0        2.449659   -3.364500   -4.209632
     48          1           0        6.691592    2.830107   -0.379264
     49          1           0        6.579009    1.936869    2.292234
     50          1           0        8.143862    1.036860   -0.096719
     51          1           0        7.814834   -0.235398    1.119573
     52          1           0        8.683115    1.185961    1.625941
     53          1           0        4.540952    3.054301    1.736343
     54          1           0        4.171149    3.688517    0.083016
     55          1           0        6.667155    4.761253    0.923368
     56          1           0        5.748579    4.625936    2.374492
     57          1           0        5.480324   -1.073395    5.204593
     58          1           0        5.286531   -2.703001    5.726935
     59          1           0        3.928514   -1.574921    5.972989
     60          1           0        3.733792   -4.221000    6.275997
     61          1           0        2.084413   -5.056688    6.374238
     62          1           0        2.259544   -3.295444    6.150011
     63          1           0        1.410326   -6.077434   -0.344234
     64          1           0        2.743078   -5.742886   -2.986171
     65          1           0        2.785221   -7.869664   -0.398662
     66          1           0        4.167386   -6.731911   -0.244161
     67          1           0        3.661409   -7.226354   -1.775986
     68          1           0        0.347306   -6.480825   -2.696285
     69          1           0        0.596188   -5.230523   -3.909811
     70          1           0       -0.555853   -5.155134   -1.223959
     71          1           0       -1.205590   -4.400428   -2.718935
     72          1           0        0.152491   -3.643872   -1.771335
     73          1           0        2.696929   -0.405308   -6.348360
     74          1           0        2.621386   -2.154853   -5.933087
     75          1           0        4.239099   -1.373105   -6.172742
     76          1           0        6.069697    2.308434   -3.128952
     77          1           0        5.396957    6.565378   -3.341888
     78          1           0        5.251010    6.239338   -1.511006
     79          1           0        3.915404    6.135996   -2.673420
     80         12           0       -3.704931    1.341661    1.086463
     81          6           0       -4.794026   -0.775048   -1.599152
     82          6           0       -2.317887    3.373463   -1.276264
     83          6           0       -2.348134    2.983870    3.437992
     84          6           0       -4.157270   -1.373012    3.224607
     85          7           0       -3.632497    1.210048   -1.120280
     86          6           0       -4.134231    0.393204   -2.034264
     87          6           0       -3.986775    0.895006   -3.495772
     88          6           0       -2.725859    1.867937   -3.289896
     89          6           0       -2.916034    2.205217   -1.812481
     90          6           0       -1.389224    1.163020   -3.450672
     91          6           0       -5.249419    1.687055   -3.986063
     92          6           0       -5.305055    1.938595   -5.494502
     93          1           0       -6.606775    1.918224   -6.155998
     94          7           0       -2.939863    3.172798    1.099092
     95          6           0       -2.443562    3.854616    0.045483
     96          6           0       -1.985723    5.145861    0.581415
     97          6           0       -2.101435    5.105723    2.064562
     98          6           0       -2.455777    3.714733    2.263765
     99          6           0       -1.573856    6.291432   -0.296910
    100          6           0       -1.910638    6.143896    3.128508
    101          8           0       -1.830185    5.830227    4.368659
    102          6           0       -1.727270    7.528152    2.668390
    103          7           0       -3.106640    0.820044    3.007999
    104          6           0       -2.592169    1.738028    3.844986
    105          6           0       -2.493199    1.198660    5.252001
    106          6           0       -3.276228   -0.195650    5.233682
    107          6           0       -3.631401   -0.266716    3.732284
    108          6           0       -1.076468    0.979502    5.782300
    109          6           0       -4.416939   -0.375901    6.272421
    110          6           0       -5.559920    0.560021    5.951405
    111          7           0       -4.526639   -0.649582    0.919650
    112          6           0       -4.594439   -1.631903    1.931835
    113          6           0       -5.129253   -2.860928    1.310630
    114          6           0       -5.315352   -2.512456   -0.035632
    115          6           0       -4.905164   -1.167809   -0.243372
    116          6           0       -5.333231   -4.105594    1.970425
    117          6           0       -5.755539   -2.979663   -1.330485
    118          8           0       -6.289672   -4.006349   -1.748038
    119          6           0       -5.319035   -1.915039   -2.427041
    120          6           0       -6.504425   -1.649067   -3.313959
    121          8           0       -7.523595   -1.100351   -2.859180
    122          8           0       -6.159881   -1.886070   -4.592822
    123          6           0       -7.299635   -1.625612   -5.512036
    124          1           0       -1.654413    3.956738   -1.915387
    125          1           0       -1.988680    3.538922    4.307577
    126          1           0       -4.419585   -2.232678    3.844959
    127          1           0       -3.747624    0.124335   -4.218724
    128          1           0       -2.814046    2.763247   -3.899809
    129          1           0       -1.507506    0.095282   -3.560604
    130          1           0       -0.826727    1.391111   -2.554780
    131          1           0       -0.827836    1.603874   -4.279428
    132          1           0       -5.185453    2.721694   -3.625281
    133          1           0       -6.151235    1.201593   -3.667173
    134          1           0       -4.585671    1.318152   -6.042658
    135          1           0       -4.977482    2.962978   -5.687792
    136          1           0       -1.433666    5.970956   -1.336640
    137          1           0       -0.574956    6.601114    0.028899
    138          1           0       -2.250813    7.145023   -0.220924
    139          1           0       -0.860980    7.579142    2.013098
    140          1           0       -1.696266    8.135739    3.574894
    141          1           0       -2.595816    7.814107    2.064674
    142          1           0       -2.977113    1.864234    5.956232
    143          1           0       -2.604979   -1.042651    5.438248
    144          1           0       -0.871540    1.529479    6.720181
    145          1           0       -0.374829    1.268314    5.011053
    146          1           0       -0.806541   -0.059611    5.962831
    147          1           0       -4.065724   -0.105697    7.271315
    148          1           0       -4.794400   -1.391515    6.327555
    149          1           0       -5.243008    1.502332    6.408246
    150          1           0       -6.486360    0.198997    6.393442
    151          1           0       -5.639618    0.727847    4.871066
    152          1           0       -6.295071   -4.477473    1.643234
    153          1           0       -5.296651   -3.992938    3.051981
    154          1           0       -4.479713   -4.671462    1.587573
    155          1           0       -4.480715   -2.339774   -2.980558
    156          1           0       -7.459588   -2.541065   -6.090006
    157          1           0       -7.025788   -0.714698   -6.076829
    158          1           0       -8.278077   -1.481585   -5.068917
 ---------------------------------------------------------------------

 SCF Done:  E(RCAM-B3LYP) =  -4069.81325382     A.U. after   19 cycles

 Excitation energies and oscillator strengths:

 Excited State   1:      Singlet-A      1.6625 eV  745.77 nm  f=0.2664  <S**2>=0.000
     309 -> 315        0.11226
     310 -> 316        0.12676
     311 -> 313        0.44932
     312 -> 314        0.51850
 This state for optimization and/or second-order correction.
 Total Energy, E(TD-HF/TD-DFT) =  -4069.75215776
 Copying the excited state density for this state as the 1-particle RhoCI density.

 Excited State   2:      Singlet-A      1.6798 eV  738.08 nm  f=0.3794  <S**2>=0.000
     309 -> 315        0.13234
     310 -> 316       -0.11387
     311 -> 313        0.51769
     312 -> 314       -0.44903

 Excited State   3:      Singlet-A      2.1850 eV  567.44 nm  f=0.0979  <S**2>=0.000
     310 -> 314        0.64111
     312 -> 316       -0.26959

 Excited State   4:      Singlet-A      2.1917 eV  565.70 nm  f=0.0985  <S**2>=0.000
     309 -> 313        0.63965
     311 -> 315       -0.27598

 Excited State   5:      Singlet-A      2.2150 eV  559.74 nm  f=0.0000  <S**2>=0.000
     312 -> 313        0.70701

 The electronic state is 1-A.
 Alpha  occ. eigenvalues --  -46.87957 -46.87379 -19.26677 -19.26165 -19.19452
 Alpha  occ. eigenvalues --  -19.18982 -19.18960 -19.18523 -19.18440 -19.17821
 Alpha  occ. eigenvalues --  -14.42611 -14.42172 -14.41594 -14.41096 -14.39563
 Alpha  occ. eigenvalues --  -14.39065 -14.38774 -14.38325 -10.39485 -10.38889
 Alpha  occ. eigenvalues --  -10.35614 -10.35203 -10.34663 -10.34000 -10.32092
 Alpha  occ. eigenvalues --  -10.31588 -10.31587 -10.31077 -10.30935 -10.30759
 Alpha  occ. eigenvalues --  -10.30689 -10.30684 -10.30325 -10.30151 -10.30073
 Alpha  occ. eigenvalues --  -10.30047 -10.29879 -10.29819 -10.29682 -10.29414
 Alpha  occ. eigenvalues --  -10.29136 -10.29136 -10.28921 -10.28714 -10.28555
 Alpha  occ. eigenvalues --  -10.28324 -10.28313 -10.28273 -10.28111 -10.27990
 Alpha  occ. eigenvalues --  -10.27885 -10.27765 -10.27709 -10.27623 -10.27606
 Alpha  occ. eigenvalues --  -10.27591 -10.27553 -10.27515 -10.27434 -10.27376
 Alpha  occ. eigenvalues --  -10.27280 -10.27255 -10.27200 -10.27195 -10.27056
 Alpha  occ. eigenvalues --  -10.26880 -10.26832 -10.26585 -10.26379 -10.26345
 Alpha  occ. eigenvalues --  -10.26253 -10.26168 -10.26158 -10.26082 -10.26021
 Alpha  occ. eigenvalues --  -10.25660 -10.25593 -10.25488 -10.25439 -10.25233
 Alpha  occ. eigenvalues --  -10.25046 -10.24941 -10.24629 -10.24611 -10.24593
 Alpha  occ. eigenvalues --  -10.24447  -3.16699  -3.16129  -1.91580  -1.91166
 Alpha  occ. eigenvalues --   -1.91012  -1.91009  -1.90600  -1.90437  -1.17028
 Alpha  occ. eigenvalues --   -1.16454  -1.08915  -1.08438  -1.07381  -1.07061
 Alpha  occ. eigenvalues --   -1.06782  -1.06745  -1.04750  -1.04171  -1.03912
 Alpha  occ. eigenvalues --   -1.03404  -1.03378  -1.02775  -1.02578  -1.01836
 Alpha  occ. eigenvalues --   -0.92182  -0.91711  -0.89630  -0.89351  -0.89281
 Alpha  occ. eigenvalues --   -0.88705  -0.88382  -0.88077  -0.88047  -0.87832
 Alpha  occ. eigenvalues --   -0.87515  -0.87442  -0.87353  -0.86838  -0.85152
 Alpha  occ. eigenvalues --   -0.84636  -0.84035  -0.83730  -0.83110  -0.82829
 Alpha  occ. eigenvalues --   -0.82715  -0.82325  -0.81843  -0.81349  -0.80802
 Alpha  occ. eigenvalues --   -0.80178  -0.78972  -0.78337  -0.77367  -0.77121
 Alpha  occ. eigenvalues --   -0.76862  -0.76589  -0.76125  -0.75473  -0.75018
 Alpha  occ. eigenvalues --   -0.74624  -0.72944  -0.72407  -0.71835  -0.71286
 Alpha  occ. eigenvalues --   -0.69956  -0.69593  -0.69046  -0.68483  -0.67827
 Alpha  occ. eigenvalues --   -0.67393  -0.67344  -0.66893  -0.65470  -0.65059
 Alpha  occ. eigenvalues --   -0.64935  -0.64792  -0.64497  -0.64380  -0.64367
 Alpha  occ. eigenvalues --   -0.63990  -0.62569  -0.62052  -0.60594  -0.60093
 Alpha  occ. eigenvalues --   -0.59976  -0.59413  -0.59162  -0.58721  -0.58691
 Alpha  occ. eigenvalues --   -0.58167  -0.57869  -0.57470  -0.57320  -0.57020
 Alpha  occ. eigenvalues --   -0.56517  -0.56260  -0.55913  -0.55712  -0.55637
 Alpha  occ. eigenvalues --   -0.55512  -0.55190  -0.55067  -0.54721  -0.54309
 Alpha  occ. eigenvalues --   -0.54067  -0.53503  -0.53471  -0.53419  -0.53147
 Alpha  occ. eigenvalues --   -0.52977  -0.52926  -0.52868  -0.52607  -0.52481
 Alpha  occ. eigenvalues --   -0.52349  -0.52238  -0.52144  -0.51807  -0.51624
 Alpha  occ. eigenvalues --   -0.51382  -0.51324  -0.50939  -0.50723  -0.50207
 Alpha  occ. eigenvalues --   -0.50133  -0.50062  -0.49746  -0.49705  -0.49588
 Alpha  occ. eigenvalues --   -0.49428  -0.49284  -0.49173  -0.48898  -0.48825
 Alpha  occ. eigenvalues --   -0.48715  -0.48650  -0.48587  -0.48267  -0.48187
 Alpha  occ. eigenvalues --   -0.48083  -0.47859  -0.47465  -0.47295  -0.46948
 Alpha  occ. eigenvalues --   -0.46849  -0.46737  -0.46542  -0.46423  -0.46341
 Alpha  occ. eigenvalues --   -0.46187  -0.46065  -0.46000  -0.45879  -0.45562
 Alpha  occ. eigenvalues --   -0.45310  -0.45047  -0.44811  -0.44655  -0.44331
 Alpha  occ. eigenvalues --   -0.44272  -0.44230  -0.44210  -0.44146  -0.43859
 Alpha  occ. eigenvalues --   -0.43771  -0.43752  -0.43658  -0.43531  -0.43316
 Alpha  occ. eigenvalues --   -0.43208  -0.43083  -0.43030  -0.42745  -0.42718
 Alpha  occ. eigenvalues --   -0.42645  -0.42344  -0.42134  -0.41885  -0.41732
 Alpha  occ. eigenvalues --   -0.41692  -0.41409  -0.41302  -0.41140  -0.41016
 Alpha  occ. eigenvalues --   -0.40977  -0.40674  -0.40666  -0.40484  -0.40403
 Alpha  occ. eigenvalues --   -0.40396  -0.40203  -0.39895  -0.39469  -0.39266
 Alpha  occ. eigenvalues --   -0.38565  -0.38157  -0.37926  -0.37454  -0.37435
 Alpha  occ. eigenvalues --   -0.37327  -0.37034  -0.37024  -0.36858  -0.36578
 Alpha  occ. eigenvalues --   -0.36379  -0.35985  -0.34463  -0.34162  -0.33973
 Alpha  occ. eigenvalues --   -0.33647  -0.33370  -0.32887  -0.31509  -0.31209
 Alpha  occ. eigenvalues --   -0.31083  -0.30689  -0.30304  -0.29730  -0.29635
 Alpha  occ. eigenvalues --   -0.29523  -0.29054  -0.28939  -0.24251  -0.23744
 Alpha  occ. eigenvalues --   -0.21295  -0.20824
 Alpha virt. eigenvalues --   -0.08952  -0.08505  -0.01905  -0.01416  -0.00239
 Alpha virt. eigenvalues --    0.00255   0.01979   0.02349   0.02575   0.03611
 Alpha virt. eigenvalues --    0.04554   0.04723   0.05105   0.05379   0.05968

 Mulliken charges:
               1
     1  Mg   0.839131
     2  C   -0.003872
     3  C   -0.093546
     4  C   -0.045281
     5  C   -0.064248
     6  N   -0.257009
     7  C   -0.052184
     8  C   -0.014325
     9  C   -0.087263
    10  C    0.046888
    11  C    0.104680
    12  C    0.053347
    13  C   -0.071492
    14  H    0.034247
    15  N   -0.433328
    16  C    0.169130
    17  C   -0.176885
    18  C   -0.003821
    19  C    0.149471
    20  C    0.110055
    21  C    0.012139
    22  O   -0.248854
    23  C    0.062510
    24  N   -0.341301
    25  C    0.041869
    26  C   -0.028441
    27  C   -0.024060
    28  C    0.075319
    29  C    0.076010
    30  C    0.034753
    31  C   -0.005533
    32  N   -0.310075
    33  C    0.079816
    34  C   -0.171498
    35  C    0.007196
    36  C    0.081921
    37  C    0.127807
    38  C    0.043718
    39  O   -0.190131
    40  C   -0.004724
    41  C    0.213472
    42  O   -0.261485
    43  O   -0.303572
    44  C    0.158514
    45  H   -0.017101
    46  H   -0.016170
    47  H   -0.041355
    48  H    0.000650
    49  H   -0.003250
    50  H    0.025413
    51  H    0.016688
    52  H    0.017175
    53  H    0.013319
    54  H    0.042059
    55  H    0.017935
    56  H    0.019694
    57  H    0.006607
    58  H    0.027289
    59  H    0.039873
    60  H    0.038014
    61  H    0.035778
    62  H    0.030472
    63  H    0.017552
    64  H    0.009635
    65  H    0.024030
    66  H    0.012227
    67  H    0.005142
    68  H    0.008351
    69  H    0.004320
    70  H    0.010330
    71  H    0.020793
    72  H    0.027407
    73  H    0.045043
    74  H    0.009584
    75  H    0.046630
    76  H    0.035832
    77  H    0.043539
    78  H    0.047507
    79  H    0.050072
    80  Mg   0.836486
    81  C   -0.016421
    82  C   -0.085705
    83  C   -0.046615
    84  C   -0.064639
    85  N   -0.254859
    86  C   -0.049748
    87  C   -0.015082
    88  C   -0.089925
    89  C    0.043147
    90  C    0.112278
    91  C    0.062463
    92  C   -0.077401
    93  H    0.033018
    94  N   -0.423885
    95  C    0.161460
    96  C   -0.171015
    97  C   -0.009399
    98  C    0.153189
    99  C    0.099249
   100  C    0.014982
   101  O   -0.255014
   102  C    0.061534
   103  N   -0.350307
   104  C    0.037531
   105  C   -0.019452
   106  C   -0.034836
   107  C    0.088509
   108  C    0.074742
   109  C    0.035026
   110  C   -0.007513
   111  N   -0.323998
   112  C    0.077586
   113  C   -0.163446
   114  C    0.001915
   115  C    0.095706
   116  C    0.131759
   117  C    0.041552
   118  O   -0.189707
   119  C    0.000634
   120  C    0.211269
   121  O   -0.251033
   122  O   -0.305892
   123  C    0.152165
   124  H   -0.008532
   125  H   -0.017466
   126  H   -0.040877
   127  H   -0.001958
   128  H   -0.003255
   129  H    0.018118
   130  H    0.021851
   131  H    0.024371
   132  H    0.013809
   133  H    0.036505
   134  H    0.020963
   135  H    0.020523
   136  H    0.013378
   137  H    0.027140
   138  H    0.037917
   139  H    0.037961
   140  H    0.034899
   141  H    0.034136
   142  H    0.013831
   143  H    0.011839
   144  H    0.023233
   145  H    0.011301
   146  H    0.002279
   147  H    0.004678
   148  H    0.003843
   149  H    0.010304
   150  H    0.017534
   151  H    0.030944
   152  H    0.044969
   153  H    0.008256
   154  H    0.047088
   155  H    0.033643
   156  H    0.042921
   157  H    0.050064
   158  H    0.053334
 Sum of Mulliken charges =  -0.00000

 Dipole moment (field-independent basis, Debye):
    X=              6.0009    Y=              2.3421    Z=              1.8606  Tot=              6.7051
 Quadrupole moment (field-independent basis, Debye-Ang):
   XX=           -520.6429   YY=           -507.7651   ZZ=           -491.8510
   XY=            -10.9738   XZ=             25.8264   YZ=             -1.8694

 Normal termination of Gaussian 16 at Fri Sep  3 12:13:18 2021.
