 Gaussian 16, Revision A.03,
 Gaussian 16:  ES64L-G16RevA.03 25-Dec-2016

 -----------------------------------
 #p cam-b3lyp/Def2SVP td=(nstates=5)
 -----------------------------------

 --------------------------------
 TDDFT excited states in gaussian
 --------------------------------
 Symbolic Z-matrix:
 Charge =  0 Multiplicity = 1

                         Standard orientation:
 ---------------------------------------------------------------------
 Center     Atomic      Atomic             Coordinates (Angstroms)
 Number     Number       Type             X           Y           Z
 ---------------------------------------------------------------------
      1         12           0        3.993218    1.088058    0.471143
      2          6           0        4.755743   -2.027340   -1.117901
      3          6           0        4.894206    2.623084   -2.440039
      4          6           0        3.763437    3.862466    1.989855
      5          6           0        4.249706   -0.574813    3.523148
      6          7           0        4.714523    0.290811   -1.463995
      7          6           0        4.906255   -0.926073   -1.963597
      8          6           0        5.208936   -0.925836   -3.491916
      9          6           0        5.776531    0.557102   -3.635891
     10          6           0        5.059427    1.206365   -2.465360
     11          6           0        7.281212    0.658407   -3.407472
     12          6           0        3.917886   -1.131296   -4.353721
     13          6           0        4.162803   -1.468607   -5.827353
     14          1           0        3.253572   -2.387062   -6.495998
     15          7           0        3.813477    2.924252   -0.235210
     16          6           0        4.220757    3.368737   -1.448406
     17          6           0        3.863696    4.802869   -1.497967
     18          6           0        3.387995    5.200402   -0.143799
     19          6           0        3.664232    4.002716    0.607612
     20          6           0        3.942484    5.627774   -2.745794
     21          6           0        2.790490    6.463434    0.390869
     22          8           0        2.663037    6.677974    1.644784
     23          6           0        2.434895    7.493559   -0.601822
     24          7           0        4.219416    1.633968    2.473255
     25          6           0        4.007687    2.892527    2.873487
     26          6           0        3.949768    2.987361    4.369345
     27          6           0        3.924125    1.484004    4.906943
     28          6           0        4.061897    0.746533    3.552164
     29          6           0        5.103542    3.748436    5.036864
     30          6           0        2.754405    1.092271    5.844344
     31          6           0        1.452224    1.111161    5.075536
     32          7           0        4.248381   -0.967950    1.118266
     33          6           0        4.351532   -1.429720    2.438419
     34          6           0        4.623118   -2.877336    2.369738
     35          6           0        4.675887   -3.155847    1.005373
     36          6           0        4.477573   -1.953364    0.268490
     37          6           0        4.843244   -3.737606    3.481455
     38          6           0        4.878170   -4.185192   -0.001299
     39          8           0        4.996600   -5.411099    0.023603
     40          6           0        5.059197   -3.474826   -1.414959
     41          6           0        4.175577   -4.190740   -2.399841
     42          8           0        2.932740   -4.138927   -2.299661
     43          8           0        4.917569   -4.621260   -3.431656
     44          6           0        4.096655   -5.314845   -4.459856
     45          1           0        5.372454    3.224205   -3.215844
     46          1           0        3.579616    4.778511    2.555107
     47          1           0        4.257950   -1.175151    4.434729
     48          1           0        5.964920   -1.645903   -3.805630
     49          1           0        5.469519    1.021159   -4.572969
     50          1           0        7.695284   -0.286442   -3.055725
     51          1           0        7.409437    1.434676   -2.652848
     52          1           0        7.785091    1.024377   -4.302430
     53          1           0        3.404205   -0.176393   -4.464863
     54          1           0        3.275941   -1.893800   -3.911205
     55          1           0        5.198470   -1.761253   -6.002451
     56          1           0        4.036277   -0.557303   -6.411919
     57          1           0        4.482523    5.107899   -3.536130
     58          1           0        4.563533    6.493472   -2.516504
     59          1           0        2.959670    5.958973   -3.081528
     60          1           0        3.326698    7.777689   -1.160844
     61          1           0        1.939686    8.288793   -0.045744
     62          1           0        1.743506    7.062087   -1.326226
     63          1           0        3.044263    3.498312    4.694022
     64          1           0        4.818208    1.239609    5.481017
     65          1           0        4.776594    4.584446    5.655652
     66          1           0        5.783552    4.083648    4.254234
     67          1           0        5.763318    3.133618    5.648511
     68          1           0        2.659246    1.814772    6.654210
     69          1           0        2.873783    0.105716    6.292348
     70          1           0        1.165079    2.161527    5.108856
     71          1           0        0.708331    0.487122    5.571932
     72          1           0        1.604197    0.847957    4.028581
     73          1           0        4.278204   -4.647527    3.279607
     74          1           0        4.523117   -3.270917    4.412757
     75          1           0        5.924436   -3.864140    3.427894
     76          1           0        6.113930   -3.558534   -1.675062
     77          1           0        4.529128   -6.305404   -4.601255
     78          1           0        4.057584   -4.651715   -5.324226
     79          1           0        3.078231   -5.574565   -4.168828
     80         12           0       -4.883948   -0.144884   -0.232996
     81          6           0       -2.064452   -2.157236    0.705074
     82          6           0       -2.781716    2.541195   -0.220047
     83          6           0       -7.423196    1.718637   -0.616326
     84          6           0       -6.929533   -2.717279    0.926359
     85          7           0       -2.723227    0.040886    0.201764
     86          6           0       -1.741784   -0.801604    0.486921
     87          6           0       -0.324169   -0.169674    0.462394
     88          6           0       -0.737318    1.358323    0.733341
     89          6           0       -2.158066    1.330318    0.173571
     90          6           0       -0.812633    1.708579    2.210156
     91          6           0        0.380398   -0.336005   -0.929705
     92          6           0        1.877535   -0.019306   -0.934669
     93          1           0        2.752432   -0.805601   -1.799979
     94          7           0       -5.016325    1.730834   -0.867578
     95          6           0       -4.059292    2.680323   -0.805513
     96          6           0       -4.657843    3.893276   -1.384013
     97          6           0       -6.099347    3.627982   -1.641644
     98          6           0       -6.243412    2.327360   -1.018972
     99          6           0       -3.856130    5.119214   -1.712286
    100          6           0       -7.173812    4.420133   -2.322996
    101          8           0       -8.411289    4.101570   -2.223022
    102          6           0       -6.743415    5.633197   -3.033429
    103          7           0       -6.882838   -0.358862    0.297096
    104          6           0       -7.789993    0.576508   -0.034669
    105          6           0       -9.196429    0.081575    0.204838
    106          6           0       -9.052665   -1.475469    0.540269
    107          6           0       -7.513056   -1.596846    0.523496
    108          6           0       -9.963301    0.775664    1.330239
    109          6           0       -9.881363   -2.461786   -0.327538
    110          6           0       -9.363202   -2.460364   -1.747720
    111          7           0       -4.590949   -2.161447    0.485118
    112          6           0       -5.582552   -3.055987    0.944031
    113          6           0       -4.886423   -4.262590    1.435915
    114          6           0       -3.526056   -3.974657    1.248810
    115          6           0       -3.383461   -2.671949    0.699155
    116          6           0       -5.509131   -5.405197    2.012813
    117          6           0       -2.177796   -4.472319    1.401166
    118          8           0       -1.681162   -5.547755    1.733635
    119          6           0       -1.165829   -3.267978    1.173422
    120          6           0       -0.087040   -3.738543    0.236779
    121          8           0       -0.356803   -4.032997   -0.940987
    122          8           0        1.112241   -3.556400    0.818939
    123          6           0        2.214971   -3.998109   -0.075878
    124          1           0       -2.262320    3.479752   -0.024490
    125          1           0       -8.338106    2.276274   -0.829515
    126          1           0       -7.500989   -3.602805    1.212624
    127          1           0        0.342240   -0.518529    1.242118
    128          1           0       -0.115772    2.042819    0.161926
    129          1           0       -0.690641    0.838051    2.837411
    130          1           0       -1.790319    2.147996    2.358785
    131          1           0       -0.089774    2.494038    2.448626
    132          1           0        0.020401    0.447321   -1.609081
    133          1           0        0.217968   -1.320379   -1.323739
    134          1           0        2.290280    0.037108    0.079934
    135          1           0        2.018095    0.986664   -1.337512
    136          1           0       -2.857872    5.080301   -1.259097
    137          1           0       -4.346584    5.964144   -1.216895
    138          1           0       -3.809556    5.317195   -2.785281
    139          1           0       -6.246185    6.302990   -2.335861
    140          1           0       -7.638019    6.013960   -3.530000
    141          1           0       -5.997871    5.352169   -3.785619
    142          1           0       -9.803054    0.194745   -0.685279
    143          1           0       -9.374606   -1.702451    1.567251
    144          1           0      -10.919000    1.222113    0.996479
    145          1           0       -9.322096    1.530928    1.764958
    146          1           0      -10.193893    0.146598    2.188322
    147          1           0      -10.924008   -2.138425   -0.377254
    148          1           0       -9.877200   -3.478511    0.050946
    149          1           0       -9.861804   -1.593429   -2.191455
    150          1           0       -9.641963   -3.380059   -2.258113
    151          1           0       -8.284191   -2.268645   -1.772787
    152          1           0       -5.024055   -6.272938    1.585940
    153          1           0       -6.580195   -5.413260    1.821698
    154          1           0       -5.281907   -5.238647    3.069181
    155          1           0       -0.766998   -2.986314    2.148709
    156          1           0        2.806142   -4.730131    0.482997
    157          1           0        2.730041   -3.072438   -0.394606
    158          1           0        1.947220   -4.570383   -0.956366
 ---------------------------------------------------------------------

 SCF Done:  E(RCAM-B3LYP) =  -4069.75500492     A.U. after   19 cycles

 Excitation energies and oscillator strengths:

 Excited State   1:      Singlet-A      1.6042 eV  772.87 nm  f=0.0630  <S**2>=0.000
     309 -> 315        0.14854
     311 -> 313        0.61458
     312 -> 314       -0.31064
 This state for optimization and/or second-order correction.
 Total Energy, E(TD-HF/TD-DFT) =  -4069.69605124
 Copying the excited state density for this state as the 1-particle RhoCI density.

 Excited State   2:      Singlet-A      1.6936 eV  732.05 nm  f=0.6010  <S**2>=0.000
     310 -> 316        0.15803
     311 -> 313        0.30705
     312 -> 314        0.61135

 Excited State   3:      Singlet-A      2.1174 eV  585.55 nm  f=0.0001  <S**2>=0.000
     312 -> 313        0.70378

 Excited State   4:      Singlet-A      2.1454 eV  577.91 nm  f=0.0759  <S**2>=0.000
     309 -> 313        0.64238
     311 -> 315       -0.27614

 Excited State   5:      Singlet-A      2.1784 eV  569.15 nm  f=0.1197  <S**2>=0.000
     310 -> 314        0.64181
     312 -> 316       -0.26822

 The electronic state is 1-A.
 Alpha  occ. eigenvalues --  -46.87887 -46.87198 -19.27300 -19.23448 -19.20042
 Alpha  occ. eigenvalues --  -19.19331 -19.19182 -19.18352 -19.17310 -19.17114
 Alpha  occ. eigenvalues --  -14.42545 -14.42049 -14.41897 -14.40888 -14.39713
 Alpha  occ. eigenvalues --  -14.38895 -14.38859 -14.38112 -10.40439 -10.37095
 Alpha  occ. eigenvalues --  -10.35955 -10.35465 -10.35040 -10.33427 -10.32257
 Alpha  occ. eigenvalues --  -10.31888 -10.31471 -10.31068 -10.30915 -10.30797
 Alpha  occ. eigenvalues --  -10.30653 -10.30519 -10.30345 -10.30067 -10.29929
 Alpha  occ. eigenvalues --  -10.29852 -10.29748 -10.29689 -10.29435 -10.29300
 Alpha  occ. eigenvalues --  -10.29016 -10.28974 -10.28940 -10.28841 -10.28569
 Alpha  occ. eigenvalues --  -10.28442 -10.28283 -10.28260 -10.28244 -10.28151
 Alpha  occ. eigenvalues --  -10.28084 -10.28019 -10.27908 -10.27876 -10.27863
 Alpha  occ. eigenvalues --  -10.27833 -10.27649 -10.27507 -10.27312 -10.27218
 Alpha  occ. eigenvalues --  -10.27177 -10.27161 -10.27023 -10.27013 -10.26917
 Alpha  occ. eigenvalues --  -10.26912 -10.26628 -10.26506 -10.26495 -10.26354
 Alpha  occ. eigenvalues --  -10.26261 -10.26158 -10.26115 -10.25954 -10.25844
 Alpha  occ. eigenvalues --  -10.25764 -10.25490 -10.25458 -10.25433 -10.25291
 Alpha  occ. eigenvalues --  -10.25286 -10.25087 -10.25071 -10.24449 -10.24343
 Alpha  occ. eigenvalues --  -10.24218  -3.16664  -3.15950  -1.91553  -1.91133
 Alpha  occ. eigenvalues --   -1.90982  -1.90832  -1.90420  -1.90257  -1.17798
 Alpha  occ. eigenvalues --   -1.13994  -1.09879  -1.08460  -1.07827  -1.07732
 Alpha  occ. eigenvalues --   -1.06613  -1.05090  -1.04792  -1.04209  -1.04013
 Alpha  occ. eigenvalues --   -1.03686  -1.03199  -1.02874  -1.02577  -1.01634
 Alpha  occ. eigenvalues --   -0.92859  -0.91315  -0.90015  -0.89705  -0.89037
 Alpha  occ. eigenvalues --   -0.88754  -0.88712  -0.88320  -0.88162  -0.87811
 Alpha  occ. eigenvalues --   -0.87737  -0.87339  -0.87254  -0.86732  -0.85521
 Alpha  occ. eigenvalues --   -0.84628  -0.84438  -0.83458  -0.83417  -0.83200
 Alpha  occ. eigenvalues --   -0.82580  -0.82349  -0.82143  -0.81218  -0.80585
 Alpha  occ. eigenvalues --   -0.79384  -0.79040  -0.78195  -0.77698  -0.77511
 Alpha  occ. eigenvalues --   -0.76900  -0.76504  -0.76290  -0.75352  -0.74967
 Alpha  occ. eigenvalues --   -0.74058  -0.73225  -0.72250  -0.72193  -0.71025
 Alpha  occ. eigenvalues --   -0.70321  -0.69482  -0.69396  -0.68677  -0.68220
 Alpha  occ. eigenvalues --   -0.67764  -0.67313  -0.67022  -0.65923  -0.65485
 Alpha  occ. eigenvalues --   -0.65190  -0.64891  -0.64763  -0.64302  -0.63959
 Alpha  occ. eigenvalues --   -0.63710  -0.63053  -0.61025  -0.60847  -0.60244
 Alpha  occ. eigenvalues --   -0.59926  -0.59561  -0.59362  -0.59278  -0.58884
 Alpha  occ. eigenvalues --   -0.58423  -0.57925  -0.57784  -0.56997  -0.56871
 Alpha  occ. eigenvalues --   -0.56655  -0.56457  -0.56007  -0.55791  -0.55712
 Alpha  occ. eigenvalues --   -0.55236  -0.55029  -0.54757  -0.54554  -0.54337
 Alpha  occ. eigenvalues --   -0.53862  -0.53757  -0.53714  -0.53473  -0.53291
 Alpha  occ. eigenvalues --   -0.53236  -0.52924  -0.52826  -0.52631  -0.52515
 Alpha  occ. eigenvalues --   -0.52210  -0.52139  -0.52103  -0.51834  -0.51383
 Alpha  occ. eigenvalues --   -0.51355  -0.51180  -0.51013  -0.50661  -0.50428
 Alpha  occ. eigenvalues --   -0.50366  -0.50152  -0.49937  -0.49860  -0.49698
 Alpha  occ. eigenvalues --   -0.49575  -0.49423  -0.49222  -0.49108  -0.48941
 Alpha  occ. eigenvalues --   -0.48922  -0.48849  -0.48479  -0.48259  -0.48131
 Alpha  occ. eigenvalues --   -0.47996  -0.47773  -0.47731  -0.47582  -0.47284
 Alpha  occ. eigenvalues --   -0.47108  -0.46972  -0.46752  -0.46512  -0.46364
 Alpha  occ. eigenvalues --   -0.46212  -0.45903  -0.45835  -0.45727  -0.45607
 Alpha  occ. eigenvalues --   -0.45333  -0.45208  -0.44995  -0.44727  -0.44626
 Alpha  occ. eigenvalues --   -0.44556  -0.44454  -0.44423  -0.44240  -0.44073
 Alpha  occ. eigenvalues --   -0.43857  -0.43770  -0.43762  -0.43562  -0.43347
 Alpha  occ. eigenvalues --   -0.43166  -0.43041  -0.42989  -0.42582  -0.42466
 Alpha  occ. eigenvalues --   -0.42156  -0.42119  -0.41964  -0.41800  -0.41681
 Alpha  occ. eigenvalues --   -0.41464  -0.41318  -0.41273  -0.41024  -0.40973
 Alpha  occ. eigenvalues --   -0.40954  -0.40806  -0.40505  -0.40376  -0.40137
 Alpha  occ. eigenvalues --   -0.39994  -0.39899  -0.39724  -0.39587  -0.39086
 Alpha  occ. eigenvalues --   -0.38766  -0.38218  -0.37992  -0.37814  -0.37598
 Alpha  occ. eigenvalues --   -0.37048  -0.36861  -0.36785  -0.36652  -0.35950
 Alpha  occ. eigenvalues --   -0.35871  -0.34851  -0.34499  -0.33766  -0.33679
 Alpha  occ. eigenvalues --   -0.32956  -0.32748  -0.31900  -0.31812  -0.31201
 Alpha  occ. eigenvalues --   -0.31021  -0.30901  -0.30362  -0.29857  -0.29549
 Alpha  occ. eigenvalues --   -0.29164  -0.28886  -0.28690  -0.24566  -0.23518
 Alpha  occ. eigenvalues --   -0.21507  -0.20663
 Alpha virt. eigenvalues --   -0.09291  -0.08310  -0.02321  -0.01242  -0.00765
 Alpha virt. eigenvalues --    0.00394   0.01240   0.02792   0.03248   0.03603
 Alpha virt. eigenvalues --    0.03805   0.04873   0.05403   0.05928   0.06277

 Mulliken charges:
               1
     1  Mg   0.564277
     2  C   -0.010629
     3  C   -0.093846
     4  C   -0.047440
     5  C   -0.064431
     6  N   -0.237235
     7  C   -0.104235
     8  C   -0.005733
     9  C   -0.080264
    10  C    0.055300
    11  C    0.105096
    12  C    0.035749
    13  C   -0.066697
    14  H    0.041038
    15  N   -0.423977
    16  C    0.169052
    17  C   -0.178399
    18  C   -0.005928
    19  C    0.150518
    20  C    0.110830
    21  C    0.009183
    22  O   -0.248952
    23  C    0.063306
    24  N   -0.318267
    25  C    0.042688
    26  C   -0.027363
    27  C   -0.024004
    28  C    0.074181
    29  C    0.076284
    30  C    0.043440
    31  C   -0.020947
    32  N   -0.296174
    33  C    0.084658
    34  C   -0.167776
    35  C    0.018865
    36  C    0.077773
    37  C    0.130202
    38  C   -0.024691
    39  O   -0.183575
    40  C    0.011105
    41  C    0.246523
    42  O   -0.269372
    43  O   -0.300386
    44  C    0.152320
    45  H   -0.018146
    46  H   -0.017446
    47  H   -0.041291
    48  H   -0.002381
    49  H   -0.004474
    50  H    0.025690
    51  H    0.018352
    52  H    0.017405
    53  H    0.013768
    54  H    0.054467
    55  H    0.018792
    56  H    0.019398
    57  H    0.006724
    58  H    0.027697
    59  H    0.038458
    60  H    0.038995
    61  H    0.036217
    62  H    0.029179
    63  H    0.015667
    64  H    0.010563
    65  H    0.023769
    66  H    0.013047
    67  H    0.005802
    68  H    0.006867
    69  H    0.005850
    70  H    0.011117
    71  H    0.021819
    72  H    0.031322
    73  H    0.049705
    74  H    0.010612
    75  H    0.046675
    76  H    0.041846
    77  H    0.047221
    78  H    0.049475
    79  H    0.061890
    80  Mg   0.835989
    81  C   -0.014707
    82  C   -0.089523
    83  C   -0.046683
    84  C   -0.066760
    85  N   -0.254025
    86  C   -0.045764
    87  C   -0.028018
    88  C   -0.102162
    89  C    0.046081
    90  C    0.106334
    91  C    0.138702
    92  C   -0.193292
    93  H    0.125069
    94  N   -0.423347
    95  C    0.161928
    96  C   -0.175333
    97  C   -0.009144
    98  C    0.151864
    99  C    0.099677
   100  C    0.014678
   101  O   -0.254430
   102  C    0.061659
   103  N   -0.350504
   104  C    0.037168
   105  C   -0.019428
   106  C   -0.034782
   107  C    0.089646
   108  C    0.074097
   109  C    0.035027
   110  C   -0.007475
   111  N   -0.324177
   112  C    0.079206
   113  C   -0.164412
   114  C    0.003606
   115  C    0.094806
   116  C    0.131601
   117  C    0.039915
   118  O   -0.185433
   119  C    0.009384
   120  C    0.217214
   121  O   -0.255177
   122  O   -0.320670
   123  C    0.175514
   124  H   -0.018410
   125  H   -0.017030
   126  H   -0.041607
   127  H    0.005065
   128  H    0.004957
   129  H    0.029105
   130  H    0.011681
   131  H    0.023969
   132  H    0.003386
   133  H    0.040521
   134  H    0.115959
   135  H    0.103018
   136  H    0.007574
   137  H    0.025482
   138  H    0.036647
   139  H    0.037754
   140  H    0.035076
   141  H    0.032538
   142  H    0.013459
   143  H    0.011683
   144  H    0.024076
   145  H    0.011516
   146  H    0.004784
   147  H    0.005322
   148  H    0.003241
   149  H    0.010385
   150  H    0.017093
   151  H    0.030744
   152  H    0.046304
   153  H    0.007323
   154  H    0.045984
   155  H    0.030276
   156  H    0.052142
   157  H    0.037093
   158  H    0.072248
 Sum of Mulliken charges =  -0.00000

 Dipole moment (field-independent basis, Debye):
    X=              4.4475    Y=              6.3210    Z=             -2.5310  Tot=              8.1327
 Quadrupole moment (field-independent basis, Debye-Ang):
   XX=           -493.0685   YY=           -546.5599   ZZ=           -470.5143
   XY=             28.3815   XZ=            -27.5791   YZ=             -9.5324

 Normal termination of Gaussian 16 at Thu Sep  9 23:34:12 2021.
