 Gaussian 16, Revision A.03,
 Gaussian 16:  ES64L-G16RevA.03 25-Dec-2016

 -----------------------------------
 #p cam-b3lyp/Def2SVP td=(nstates=5)
 -----------------------------------

 --------------------------------
 TDDFT excited states in gaussian
 --------------------------------
 Symbolic Z-matrix:
 Charge =  0 Multiplicity = 1

                         Standard orientation:
 ---------------------------------------------------------------------
 Center     Atomic      Atomic             Coordinates (Angstroms)
 Number     Number       Type             X           Y           Z
 ---------------------------------------------------------------------
      1         12           0       15.773723    0.770265    0.251764
      2          6           0       16.154759   -2.732556   -0.378533
      3          6           0       16.638591    1.299076   -3.006368
      4          6           0       15.887103    3.872700    0.898807
      5          6           0       16.056125    0.039673    3.647666
      6          7           0       16.304696   -0.621226   -1.386060
      7          6           0       16.355141   -1.943502   -1.513384
      8          6           0       16.566462   -2.415032   -2.983206
      9          6           0       17.257385   -1.104007   -3.571284
     10          6           0       16.672279   -0.074057   -2.621138
     11          6           0       18.775830   -1.098610   -3.427070
     12          6           0       15.213769   -2.724279   -3.708683
     13          6           0       15.340118   -3.495358   -5.025811
     14          1           0       14.313360   -4.467489   -5.369435
     15          7           0       15.720923    2.333476   -0.955064
     16          6           0       16.095177    2.364703   -2.256696
     17          6           0       15.867975    3.752839   -2.712920
     18          6           0       15.510682    4.570891   -1.520768
     19          6           0       15.720225    3.618416   -0.460456
     20          6           0       15.948300    4.170464   -4.149196
     21          6           0       15.063113    5.989490   -1.361426
     22          8           0       15.029469    6.568172   -0.221878
     23          6           0       14.745268    6.721233   -2.601009
     24          7           0       16.165702    1.843033    1.999093
     25          6           0       16.093349    3.178442    2.019840
     26          6           0       16.132108    3.705612    3.423596
     27          6           0       16.001164    2.432038    4.377858
     28          6           0       15.991509    1.325435    3.294526
     29          6           0       17.387565    4.502114    3.804939
     30          6           0       14.857595    2.451058    5.422993
     31          6           0       13.519728    2.383323    4.721123
     32          7           0       15.878001   -1.027115    1.464033
     33          6           0       16.015869   -1.097192    2.857861
     34          6           0       16.149938   -2.523313    3.207538
     35          6           0       16.097035   -3.186919    1.983335
     36          6           0       15.966244   -2.233815    0.933203
     37          6           0       16.355565   -3.044962    4.515221
     38          6           0       16.145327   -4.477824    1.316184
     39          8           0       16.152829   -5.649974    1.694999
     40          6           0       16.307133   -4.227654   -0.248124
     41          6           0       15.305748   -5.100735   -0.954006
     42          8           0       14.080820   -4.893017   -0.836659
     43          8           0       15.943657   -5.885095   -1.836271
     44          6           0       15.004104   -6.755933   -2.591941
     45          1           0       17.123309    1.597996   -3.937838
     46          1           0       15.820963    4.926682    1.176627
     47          1           0       16.063066   -0.270101    4.694301
     48          1           0       17.234000   -3.269641   -3.094829
     49          1           0       16.939523   -0.900166   -4.593603
     50          1           0       19.122002   -1.939885   -2.826784
     51          1           0       19.018265   -0.155663   -2.936592
     52          1           0       19.257618   -1.060529   -4.404417
     53          1           0       14.783595   -1.793749   -4.078988
     54          1           0       14.532074   -3.255761   -3.043743
     55          1           0       16.332762   -3.932319   -5.138209
     56          1           0       15.263095   -2.783047   -5.847321
     57          1           0       16.391461    3.391647   -4.768548
     58          1           0       16.658009    4.995860   -4.201569
     59          1           0       14.981764    4.491478   -4.537900
     60          1           0       15.624935    6.737736   -3.244796
     61          1           0       14.358027    7.690025   -2.287421
     62          1           0       13.976169    6.173911   -3.146788
     63          1           0       15.297519    4.379900    3.611274
     64          1           0       16.901373    2.271554    4.971610
     65          1           0       17.174987    5.510247    4.161567
     66          1           0       18.048231    4.524912    2.938745
     67          1           0       18.023300    4.024256    4.549862
     68          1           0       14.876301    3.382016    5.988601
     69          1           0       14.912650    1.628523    6.136193
     70          1           0       13.331923    3.422725    4.454282
     71          1           0       12.752459    2.009795    5.400083
     72          1           0       13.585447    1.815372    3.792899
     73          1           0       15.699117   -3.910390    4.605101
     74          1           0       16.134441   -2.299094    5.278364
     75          1           0       17.415725   -3.293533    4.469065
     76          1           0       17.332782   -4.492190   -0.503440
     77          1           0       15.335493   -7.784681   -2.450192
     78          1           0       14.975005   -6.369574   -3.610903
     79          1           0       13.985073   -6.813193   -2.207705
     80         12           0      -15.944281   -0.813182    0.111675
     81          6           0      -15.904803    2.617995   -0.939293
     82          6           0      -15.135723    0.290229    3.236312
     83          6           0      -15.529190   -3.840763    0.965403
     84          6           0      -15.616814   -1.699694   -3.242804
     85          7           0      -15.593195    1.215674    0.919594
     86          6           0      -15.666585    2.448336    0.440529
     87          6           0      -15.553602    3.563522    1.514388
     88          6           0      -14.756685    2.736605    2.636879
     89          6           0      -15.212656    1.325649    2.270861
     90          6           0      -13.247013    2.806982    2.477915
     91          6           0      -16.956217    4.035353    2.035987
     92          6           0      -16.936483    5.328715    2.853646
     93          1           0      -18.064852    6.247430    2.730310
     94          7           0      -15.894835   -1.644320    1.913153
     95          6           0      -15.566948   -1.045067    3.077064
     96          6           0      -15.664275   -2.089363    4.108637
     97          6           0      -15.916138   -3.392195    3.434924
     98          6           0      -15.765837   -3.004476    2.046692
     99          6           0      -15.600193   -1.789930    5.578212
    100          6           0      -16.226624   -4.763199    3.954668
    101          8           0      -16.172253   -5.797713    3.199921
    102          6           0      -16.505011   -4.871068    5.394233
    103          7           0      -15.408197   -2.517237   -0.951876
    104          6           0      -15.351115   -3.718300   -0.350120
    105          6           0      -15.216318   -4.830089   -1.363105
    106          6           0      -15.438870   -4.141285   -2.789156
    107          6           0      -15.581553   -2.670402   -2.340229
    108          6           0      -13.881143   -5.574194   -1.360450
    109          6           0      -16.542826   -4.746916   -3.698651
    110          6           0      -17.904381   -4.507226   -3.087009
    111          7           0      -15.972148    0.226943   -1.781844
    112          6           0      -15.790345   -0.333023   -3.065382
    113          6           0      -15.777598    0.785383   -4.030483
    114          6           0      -15.931024    1.929316   -3.232760
    115          6           0      -16.011987    1.552062   -1.865057
    116          6           0      -15.589908    0.668676   -5.436644
    117          6           0      -16.032249    3.370995   -3.235757
    118          8           0      -16.113444    4.234310   -4.108585
    119          6           0      -15.892819    3.890493   -1.740068
    120          6           0      -16.992140    4.886175   -1.489809
    121          8           0      -18.182902    4.527460   -1.494509
    122          8           0      -16.450421    6.045291   -1.073447
    123          6           0      -17.501994    7.061220   -0.801603
    124          1           0      -14.661896    0.507906    4.193901
    125          1           0      -15.488807   -4.908103    1.194810
    126          1           0      -15.617396   -1.900466   -4.316292
    127          1           0      -14.977322    4.429403    1.211192
    128          1           0      -15.094935    2.999525    3.635795
    129          1           0      -12.960968    3.306042    1.563993
    130          1           0      -12.903676    1.780766    2.472046
    131          1           0      -12.796282    3.270544    3.360121
    132          1           0      -17.307601    3.333408    2.803163
    133          1           0      -17.651803    4.131091    1.225057
    134          1           0      -15.987794    5.868843    2.747818
    135          1           0      -16.980416    5.069459    3.914248
    136          1           0      -15.243529   -0.769606    5.765655
    137          1           0      -14.820535   -2.432292    6.001731
    138          1           0      -16.542741   -1.993210    6.090984
    139          1           0      -15.650074   -4.502357    5.956011
    140          1           0      -16.791922   -5.911422    5.559247
    141          1           0      -17.348181   -4.214996    5.637636
    142          1           0      -15.979694   -5.583813   -1.213942
    143          1           0      -14.534061   -4.193268   -3.412412
    144          1           0      -13.989492   -6.664635   -1.207934
    145          1           0      -13.251909   -5.143543   -0.592895
    146          1           0      -13.276688   -5.441439   -2.256110
    147          1           0      -16.421528   -5.830525   -3.771099
    148          1           0      -16.533471   -4.353505   -4.709652
    149          1           0      -17.998418   -5.324783   -2.366008
    150          1           0      -18.680749   -4.560468   -3.847583
    151          1           0      -17.922755   -3.567085   -2.523584
    152          1           0      -16.312701    1.325032   -5.902754
    153          1           0      -15.712482   -0.359704   -5.770103
    154          1           0      -14.554241    1.007845   -5.523989
    155          1           0      -14.903676    4.338959   -1.639898
    156          1           0      -17.259150    7.941634   -1.404588
    157          1           0      -17.515095    7.191045    0.296907
    158          1           0      -18.508260    6.843958   -1.140238
 ---------------------------------------------------------------------

 SCF Done:  E(RCAM-B3LYP) =  -4069.81178691     A.U. after   19 cycles

 Excitation energies and oscillator strengths:

 Excited State   1:      Singlet-A      1.6754 eV  740.04 nm  f=0.2438  <S**2>=0.000
     310 -> 316        0.16950
     311 -> 314        0.14771
     312 -> 313        0.66996
     310 <- 316        0.10218
 This state for optimization and/or second-order correction.
 Total Energy, E(TD-HF/TD-DFT) =  -4069.75021821
 Copying the excited state density for this state as the 1-particle RhoCI density.

 Excited State   2:      Singlet-A      1.6801 eV  737.95 nm  f=0.5334  <S**2>=0.000
     309 -> 315        0.17148
     311 -> 314        0.66960
     312 -> 313       -0.14767
     309 <- 315        0.10267

 Excited State   3:      Singlet-A      2.1861 eV  567.13 nm  f=0.0962  <S**2>=0.000
     310 -> 313        0.64214
     312 -> 316       -0.27299

 Excited State   4:      Singlet-A      2.1926 eV  565.47 nm  f=0.1040  <S**2>=0.000
     309 -> 314        0.64036
     311 -> 315       -0.27816

 Excited State   5:      Singlet-A      3.0658 eV  404.41 nm  f=0.0000  <S**2>=0.000
     311 -> 313        0.70711

 The electronic state is 1-A.
 Alpha  occ. eigenvalues --  -46.87796 -46.87660 -19.26353 -19.26282 -19.19164
 Alpha  occ. eigenvalues --  -19.19018 -19.18814 -19.18712 -19.18169 -19.18054
 Alpha  occ. eigenvalues --  -14.42497 -14.42449 -14.41450 -14.41359 -14.39402
 Alpha  occ. eigenvalues --  -14.39352 -14.38600 -14.38586 -10.39094 -10.39078
 Alpha  occ. eigenvalues --  -10.35447 -10.35389 -10.34389 -10.34231 -10.31760
 Alpha  occ. eigenvalues --  -10.31676 -10.31404 -10.31310 -10.31023 -10.30907
 Alpha  occ. eigenvalues --  -10.30569 -10.30507 -10.30398 -10.30362 -10.30207
 Alpha  occ. eigenvalues --  -10.30140 -10.29922 -10.29895 -10.29630 -10.29436
 Alpha  occ. eigenvalues --  -10.29401 -10.29254 -10.28746 -10.28719 -10.28655
 Alpha  occ. eigenvalues --  -10.28532 -10.28405 -10.28364 -10.28139 -10.28113
 Alpha  occ. eigenvalues --  -10.28001 -10.27792 -10.27726 -10.27669 -10.27583
 Alpha  occ. eigenvalues --  -10.27518 -10.27504 -10.27484 -10.27478 -10.27466
 Alpha  occ. eigenvalues --  -10.27462 -10.27452 -10.27403 -10.27375 -10.27157
 Alpha  occ. eigenvalues --  -10.27052 -10.26700 -10.26693 -10.26410 -10.26407
 Alpha  occ. eigenvalues --  -10.26231 -10.26189 -10.26139 -10.26023 -10.26020
 Alpha  occ. eigenvalues --  -10.25935 -10.25855 -10.25846 -10.25438 -10.25395
 Alpha  occ. eigenvalues --  -10.24874 -10.24832 -10.24788 -10.24733 -10.24693
 Alpha  occ. eigenvalues --  -10.24690  -3.16539  -3.16410  -1.91420  -1.91293
 Alpha  occ. eigenvalues --   -1.91007  -1.90881  -1.90849  -1.90718  -1.16647
 Alpha  occ. eigenvalues --   -1.16630  -1.08661  -1.08627  -1.07215  -1.06964
 Alpha  occ. eigenvalues --   -1.06949  -1.06640  -1.04580  -1.04495  -1.03760
 Alpha  occ. eigenvalues --   -1.03663  -1.03233  -1.03039  -1.02411  -1.02112
 Alpha  occ. eigenvalues --   -0.91988  -0.91971  -0.89521  -0.89495  -0.89185
 Alpha  occ. eigenvalues --   -0.89151  -0.88288  -0.88220  -0.87870  -0.87796
 Alpha  occ. eigenvalues --   -0.87684  -0.87672  -0.87272  -0.87119  -0.84999
 Alpha  occ. eigenvalues --   -0.84980  -0.83939  -0.83877  -0.82966  -0.82929
 Alpha  occ. eigenvalues --   -0.82652  -0.82647  -0.81598  -0.81584  -0.80595
 Alpha  occ. eigenvalues --   -0.80443  -0.78796  -0.78635  -0.77218  -0.77145
 Alpha  occ. eigenvalues --   -0.76933  -0.76899  -0.75921  -0.75839  -0.74899
 Alpha  occ. eigenvalues --   -0.74803  -0.72774  -0.72700  -0.71672  -0.71581
 Alpha  occ. eigenvalues --   -0.69910  -0.69758  -0.68871  -0.68827  -0.67640
 Alpha  occ. eigenvalues --   -0.67602  -0.67217  -0.67199  -0.65284  -0.65272
 Alpha  occ. eigenvalues --   -0.64853  -0.64771  -0.64654  -0.64620  -0.64271
 Alpha  occ. eigenvalues --   -0.64204  -0.62296  -0.62280  -0.60441  -0.60339
 Alpha  occ. eigenvalues --   -0.59802  -0.59796  -0.58993  -0.58987  -0.58503
 Alpha  occ. eigenvalues --   -0.58426  -0.57583  -0.57556  -0.57309  -0.57237
 Alpha  occ. eigenvalues --   -0.56309  -0.56205  -0.55976  -0.55888  -0.55519
 Alpha  occ. eigenvalues --   -0.55452  -0.55340  -0.55249  -0.54524  -0.54489
 Alpha  occ. eigenvalues --   -0.53912  -0.53892  -0.53298  -0.53228  -0.53220
 Alpha  occ. eigenvalues --   -0.53142  -0.52914  -0.52903  -0.52754  -0.52666
 Alpha  occ. eigenvalues --   -0.52442  -0.52402  -0.51916  -0.51888  -0.51658
 Alpha  occ. eigenvalues --   -0.51614  -0.51203  -0.51196  -0.50570  -0.50472
 Alpha  occ. eigenvalues --   -0.50033  -0.49979  -0.49917  -0.49867  -0.49512
 Alpha  occ. eigenvalues --   -0.49487  -0.49213  -0.49203  -0.49105  -0.49094
 Alpha  occ. eigenvalues --   -0.48592  -0.48559  -0.48462  -0.48444  -0.48376
 Alpha  occ. eigenvalues --   -0.48337  -0.47693  -0.47594  -0.47296  -0.47117
 Alpha  occ. eigenvalues --   -0.46797  -0.46710  -0.46553  -0.46552  -0.46359
 Alpha  occ. eigenvalues --   -0.46271  -0.46163  -0.46087  -0.45824  -0.45821
 Alpha  occ. eigenvalues --   -0.45208  -0.45202  -0.44577  -0.44515  -0.44505
 Alpha  occ. eigenvalues --   -0.44476  -0.44145  -0.44127  -0.44086  -0.44078
 Alpha  occ. eigenvalues --   -0.44018  -0.43938  -0.43555  -0.43494  -0.43386
 Alpha  occ. eigenvalues --   -0.43385  -0.43027  -0.42932  -0.42903  -0.42698
 Alpha  occ. eigenvalues --   -0.42656  -0.42553  -0.42010  -0.41965  -0.41703
 Alpha  occ. eigenvalues --   -0.41670  -0.41531  -0.41459  -0.41140  -0.40989
 Alpha  occ. eigenvalues --   -0.40868  -0.40821  -0.40721  -0.40697  -0.40572
 Alpha  occ. eigenvalues --   -0.40494  -0.40230  -0.40226  -0.39444  -0.39426
 Alpha  occ. eigenvalues --   -0.38470  -0.38350  -0.37745  -0.37654  -0.37321
 Alpha  occ. eigenvalues --   -0.37266  -0.37261  -0.37200  -0.36774  -0.36712
 Alpha  occ. eigenvalues --   -0.36218  -0.36192  -0.34285  -0.34254  -0.33865
 Alpha  occ. eigenvalues --   -0.33769  -0.33186  -0.33176  -0.31343  -0.31271
 Alpha  occ. eigenvalues --   -0.31035  -0.30973  -0.30028  -0.29958  -0.29448
 Alpha  occ. eigenvalues --   -0.29327  -0.29321  -0.29213  -0.24080  -0.24037
 Alpha  occ. eigenvalues --   -0.21127  -0.21117
 Alpha virt. eigenvalues --   -0.08792  -0.08773  -0.01749  -0.01684  -0.00057
 Alpha virt. eigenvalues --   -0.00028   0.02201   0.02206   0.03121   0.03227
 Alpha virt. eigenvalues --    0.04720   0.04729   0.05100   0.05162   0.06181

 Mulliken charges:
               1
     1  Mg   0.838700
     2  C   -0.002951
     3  C   -0.094084
     4  C   -0.045866
     5  C   -0.063984
     6  N   -0.256782
     7  C   -0.052464
     8  C   -0.014018
     9  C   -0.087005
    10  C    0.046336
    11  C    0.104806
    12  C    0.053456
    13  C   -0.071836
    14  H    0.036172
    15  N   -0.433144
    16  C    0.168423
    17  C   -0.177120
    18  C   -0.003986
    19  C    0.148712
    20  C    0.110168
    21  C    0.012282
    22  O   -0.249644
    23  C    0.062468
    24  N   -0.341110
    25  C    0.041238
    26  C   -0.028171
    27  C   -0.023924
    28  C    0.074811
    29  C    0.076167
    30  C    0.035121
    31  C   -0.004488
    32  N   -0.310471
    33  C    0.080395
    34  C   -0.169740
    35  C    0.008338
    36  C    0.082986
    37  C    0.127318
    38  C    0.046106
    39  O   -0.188461
    40  C   -0.005330
    41  C    0.212881
    42  O   -0.257114
    43  O   -0.304792
    44  C    0.157681
    45  H   -0.017564
    46  H   -0.016850
    47  H   -0.041538
    48  H    0.000944
    49  H   -0.003991
    50  H    0.025470
    51  H    0.016438
    52  H    0.016690
    53  H    0.011227
    54  H    0.044115
    55  H    0.017872
    56  H    0.017989
    57  H    0.005907
    58  H    0.026846
    59  H    0.039609
    60  H    0.037369
    61  H    0.035662
    62  H    0.031541
    63  H    0.016528
    64  H    0.009439
    65  H    0.023193
    66  H    0.012569
    67  H    0.004739
    68  H    0.006327
    69  H    0.004696
    70  H    0.008770
    71  H    0.018074
    72  H    0.029023
    73  H    0.047538
    74  H    0.009068
    75  H    0.046002
    76  H    0.035155
    77  H    0.042945
    78  H    0.046434
    79  H    0.053687
    80  Mg   0.837808
    81  C   -0.016816
    82  C   -0.087759
    83  C   -0.045464
    84  C   -0.064885
    85  N   -0.254560
    86  C   -0.049851
    87  C   -0.015089
    88  C   -0.090503
    89  C    0.045753
    90  C    0.114360
    91  C    0.062508
    92  C   -0.077898
    93  H    0.034882
    94  N   -0.423496
    95  C    0.162946
    96  C   -0.174568
    97  C   -0.007770
    98  C    0.152119
    99  C    0.099341
   100  C    0.015602
   101  O   -0.253132
   102  C    0.061183
   103  N   -0.350055
   104  C    0.037504
   105  C   -0.019827
   106  C   -0.034814
   107  C    0.088917
   108  C    0.073635
   109  C    0.034726
   110  C   -0.007676
   111  N   -0.324092
   112  C    0.078439
   113  C   -0.163164
   114  C    0.002217
   115  C    0.096181
   116  C    0.131496
   117  C    0.042363
   118  O   -0.187940
   119  C    0.000907
   120  C    0.211269
   121  O   -0.251029
   122  O   -0.305630
   123  C    0.152031
   124  H   -0.019598
   125  H   -0.015526
   126  H   -0.040482
   127  H   -0.000654
   128  H   -0.004300
   129  H    0.022450
   130  H    0.014471
   131  H    0.016340
   132  H    0.013930
   133  H    0.037659
   134  H    0.020794
   135  H    0.019620
   136  H    0.008793
   137  H    0.026238
   138  H    0.039823
   139  H    0.038310
   140  H    0.036446
   141  H    0.033886
   142  H    0.014410
   143  H    0.012420
   144  H    0.025186
   145  H    0.011697
   146  H    0.005693
   147  H    0.006283
   148  H    0.003619
   149  H    0.010952
   150  H    0.017910
   151  H    0.030097
   152  H    0.045966
   153  H    0.008496
   154  H    0.046916
   155  H    0.035016
   156  H    0.043887
   157  H    0.049515
   158  H    0.053570
 Sum of Mulliken charges =  -0.00000

 Dipole moment (field-independent basis, Debye):
    X=              3.8955    Y=              2.1678    Z=              0.4987  Tot=              4.4858
 Quadrupole moment (field-independent basis, Debye-Ang):
   XX=           -518.9465   YY=           -545.7423   ZZ=           -452.9279
   XY=             39.4905   XZ=           -124.0124   YZ=             42.8944

 Normal termination of Gaussian 16 at Sat Sep  4 18:04:04 2021.
