 Gaussian 16, Revision A.03,
 Gaussian 16:  ES64L-G16RevA.03 25-Dec-2016

 -----------------------------------
 #p cam-b3lyp/Def2SVP td=(nstates=5)
 -----------------------------------

 --------------------------------
 TDDFT excited states in gaussian
 --------------------------------
 Symbolic Z-matrix:
 Charge =  0 Multiplicity = 1

                         Standard orientation:
 ---------------------------------------------------------------------
 Center     Atomic      Atomic             Coordinates (Angstroms)
 Number     Number       Type             X           Y           Z
 ---------------------------------------------------------------------
      1         12           0       16.129133    0.519199    0.386980
      2          6           0       16.331023   -2.715572   -1.132136
      3          6           0       17.032263    1.829051   -2.631581
      4          6           0       16.400248    3.338296    1.813799
      5          6           0       16.360798   -1.079313    3.475143
      6          7           0       16.593584   -0.425803   -1.560301
      7          6           0       16.576118   -1.670787   -2.026004
      8          6           0       16.768253   -1.755697   -3.569781
      9          6           0       17.528167   -0.374001   -3.805245
     10          6           0       16.993531    0.403125   -2.615218
     11          6           0       19.044317   -0.483378   -3.679432
     12          6           0       15.404092   -1.797294   -4.337288
     13          6           0       15.495325   -2.206355   -5.810278
     14          1           0       14.420995   -3.002801   -6.383721
     15          7           0       16.161651    2.342210   -0.373563
     16          6           0       16.541850    2.690387   -1.626363
     17          6           0       16.388366    4.159011   -1.705519
     18          6           0       16.069391    4.657492   -0.338820
     19          6           0       16.225504    3.453534    0.436740
     20          6           0       16.495495    4.929706   -2.985481
     21          6           0       15.695124    6.007291    0.186630
     22          8           0       15.687191    6.272049    1.437395
     23          6           0       15.420115    7.050280   -0.818152
     24          7           0       16.569522    1.081475    2.348494
     25          6           0       16.566184    2.367842    2.714871
     26          6           0       16.626914    2.510809    4.206786
     27          6           0       16.426801    1.041920    4.800144
     28          6           0       16.364009    0.255603    3.467466
     29          6           0       17.920421    3.116453    4.768965
     30          6           0       15.281869    0.847766    5.825743
     31          6           0       13.944905    1.032250    5.143400
     32          7           0       16.135906   -1.533706    1.091665
     33          6           0       16.264792   -1.969279    2.418442
     34          6           0       16.323701   -3.442212    2.385768
     35          6           0       16.241130   -3.762558    1.032104
     36          6           0       16.163658   -2.564635    0.265769
     37          6           0       16.497244   -4.294484    3.511801
     38          6           0       16.225140   -4.837371    0.053137
     39          8           0       16.170665   -6.066447    0.115577
     40          6           0       16.405463   -4.199182   -1.394629
     41          6           0       15.362936   -4.807565   -2.292581
     42          8           0       14.149948   -4.575298   -2.113475
     43          8           0       15.962740   -5.368075   -3.353997
     44          6           0       14.982263   -5.964545   -4.300063
     45          1           0       17.535233    2.333947   -3.458649
     46          1           0       16.387619    4.286323    2.355576
     47          1           0       16.347838   -1.649510    4.405820
     48          1           0       17.391155   -2.585050   -3.905325
     49          1           0       17.225060    0.103537   -4.736806
     50          1           0       19.344330   -1.467892   -3.320759
     51          1           0       19.333323    0.286782   -2.964015
     52          1           0       19.531055   -0.218042   -4.618293
     53          1           0       15.023948   -0.781977   -4.449904
     54          1           0       14.693384   -2.447462   -3.825916
     55          1           0       16.464478   -2.649203   -6.041660
     56          1           0       15.458259   -1.302630   -6.418642
     57          1           0       16.900123    4.316359   -3.789613
     58          1           0       17.247090    5.703301   -2.829393
     59          1           0       15.548285    5.389164   -3.268367
     60          1           0       16.301845    7.188180   -1.444318
     61          1           0       15.082283    7.923206   -0.260729
     62          1           0       14.625797    6.702827   -1.479428
     63          1           0       15.827586    3.155035    4.570756
     64          1           0       17.315305    0.687570    5.323279
     65          1           0       17.758890    4.007295    5.376430
     66          1           0       18.584595    3.329163    3.931756
     67          1           0       18.527847    2.430285    5.358561
     68          1           0       15.346548    1.598285    6.612816
     69          1           0       15.291704   -0.133108    6.301180
     70          1           0       13.812045    2.113457    5.156521
     71          1           0       13.156846    0.535157    5.710034
     72          1           0       13.984640    0.721482    4.099211
     73          1           0       15.796630   -5.119114    3.381057
     74          1           0       16.312118   -3.761451    4.444114
     75          1           0       17.543309   -4.576212    3.392498
     76          1           0       17.417016   -4.440386   -1.719749
     77          1           0       15.259529   -7.010383   -4.432657
     78          1           0       14.976949   -5.326518   -5.183974
     79          1           0       13.960215   -6.067452   -3.933774
     80         12           0      -15.628985    0.643887    0.148665
     81          6           0      -18.035230   -2.018399    0.112884
     82          6           0      -17.601699    2.256759   -2.118855
     83          6           0      -13.318466    2.792889   -0.184074
     84          6           0      -13.345863   -1.624153    1.486209
     85          7           0      -17.546983    0.089132   -0.803075
     86          6           0      -18.398556   -0.919361   -0.693061
     87          6           0      -19.748758   -0.704153   -1.428041
     88          6           0      -19.259531    0.365402   -2.521469
     89          6           0      -18.082511    0.972072   -1.760393
     90          6           0      -18.727369   -0.274353   -3.793027
     91          6           0      -20.851419   -0.101552   -0.488341
     92          6           0      -22.273743   -0.152882   -1.050585
     93          1           0      -23.380130   -0.381333   -0.125281
     94          7           0      -15.684508    2.485576   -0.588669
     95          6           0      -16.567393    2.977845   -1.482799
     96          6           0      -16.167745    4.374320   -1.715827
     97          6           0      -14.879272    4.617201   -1.011853
     98          6           0      -14.559933    3.272765   -0.575249
     99          6           0      -17.021686    5.349588   -2.472839
    100          6           0      -14.062470    5.852603   -0.782076
    101          8           0      -12.857580    5.792316   -0.349126
    102          6           0      -14.681939    7.129109   -1.167122
    103          7           0      -13.566048    0.544551    0.386907
    104          6           0      -12.798786    1.637808    0.231903
    105          6           0      -11.391456    1.390254    0.720306
    106          6           0      -11.436882   -0.026031    1.461697
    107          6           0      -12.906807   -0.410087    1.183840
    108          6           0      -10.307924    1.365661   -0.357528
    109          6           0      -10.926025   -0.069574    2.927912
    110          6           0      -11.858788    0.714182    3.822937
    111          7           0      -15.701427   -1.388046    0.879451
    112          6           0      -14.623755   -2.156395    1.371734
    113          6           0      -15.142981   -3.513287    1.639427
    114          6           0      -16.491954   -3.446076    1.259612
    115          6           0      -16.787253   -2.145263    0.769536
    116          6           0      -14.381486   -4.615478    2.120498
    117          6           0      -17.730624   -4.182821    1.151877
    118          8           0      -18.108520   -5.301894    1.496261
    119          6           0      -18.753480   -3.327842    0.286333
    120          6           0      -20.073245   -3.312857    1.007811
    121          8           0      -20.184202   -2.749284    2.110839
    122          8           0      -21.031516   -3.773212    0.183090
    123          6           0      -22.360844   -3.767118    0.849930
    124          1           0      -18.027243    2.743619   -2.996796
    125          1           0      -12.510160    3.527769   -0.175715
    126          1           0      -12.721070   -2.360724    1.995893
    127          1           0      -20.143517   -1.584936   -1.920144
    128          1           0      -20.021958    1.117488   -2.707030
    129          1           0      -18.656042   -1.348219   -3.704371
    130          1           0      -17.748209    0.157991   -3.952307
    131          1           0      -19.334278    0.029862   -4.650594
    132          1           0      -20.713328    0.985517   -0.425530
    133          1           0      -20.827143   -0.569661    0.476497
    134          1           0      -22.351233   -0.823194   -1.915242
    135          1           0      -22.524020    0.832184   -1.451846
    136          1           0      -17.830620    4.841668   -3.012333
    137          1           0      -16.394976    5.777274   -3.262879
    138          1           0      -17.396908    6.158645   -1.842508
    139          1           0      -14.933017    7.104140   -2.224860
    140          1           0      -13.982216    7.902552   -0.844557
    141          1           0      -15.626176    7.238244   -0.622028
    142          1           0      -11.089675    2.149562    1.431275
    143          1           0      -10.814365   -0.774262    0.949388
    144          1           0       -9.499108    2.099451   -0.180151
    145          1           0      -10.776629    1.540836   -1.316780
    146          1           0       -9.827875    0.400178   -0.507828
    147          1           0       -9.947519    0.411179    3.002460
    148          1           0      -10.820967   -1.076060    3.318994
    149          1           0      -11.515212    1.745054    3.695102
    150          1           0      -11.759465    0.390392    4.857022
    151          1           0      -12.890834    0.662915    3.457009
    152          1           0      -14.982036   -5.102061    2.877508
    153          1           0      -13.422498   -4.292042    2.519881
    154          1           0      -14.268752   -5.191936    1.198405
    155          1           0      -18.828091   -3.800367   -0.693834
    156          1           0      -22.755643   -4.785734    0.784751
    157          1           0      -22.941764   -2.968853    0.350879
    158          1           0      -22.383835   -3.599472    1.920360
 ---------------------------------------------------------------------

 SCF Done:  E(RCAM-B3LYP) =  -4069.81176559     A.U. after   19 cycles

 Excitation energies and oscillator strengths:

 Excited State   1:      Singlet-A      1.6753 eV  740.08 nm  f=0.2133  <S**2>=0.000
     310 -> 316        0.16866
     311 -> 313        0.66675
     312 -> 314       -0.16159
     310 <- 316        0.10168
 This state for optimization and/or second-order correction.
 Total Energy, E(TD-HF/TD-DFT) =  -4069.75020025
 Copying the excited state density for this state as the 1-particle RhoCI density.

 Excited State   2:      Singlet-A      1.6801 eV  737.94 nm  f=0.5641  <S**2>=0.000
     309 -> 315        0.17068
     311 -> 313        0.16154
     312 -> 314        0.66639
     309 <- 315        0.10219

 Excited State   3:      Singlet-A      2.1861 eV  567.15 nm  f=0.1022  <S**2>=0.000
     310 -> 313        0.64244
     311 -> 316       -0.27310

 Excited State   4:      Singlet-A      2.1925 eV  565.48 nm  f=0.0992  <S**2>=0.000
     309 -> 314        0.64066
     312 -> 315       -0.27829

 Excited State   5:      Singlet-A      3.0626 eV  404.83 nm  f=0.0000  <S**2>=0.000
     312 -> 313        0.70710

 The electronic state is 1-A.
 Alpha  occ. eigenvalues --  -46.87778 -46.87660 -19.26350 -19.26266 -19.19161
 Alpha  occ. eigenvalues --  -19.19002 -19.18795 -19.18714 -19.18151 -19.18051
 Alpha  occ. eigenvalues --  -14.42497 -14.42431 -14.41430 -14.41358 -14.39384
 Alpha  occ. eigenvalues --  -14.39352 -14.38599 -14.38568 -10.39091 -10.39061
 Alpha  occ. eigenvalues --  -10.35429 -10.35392 -10.34371 -10.34228 -10.31757
 Alpha  occ. eigenvalues --  -10.31661 -10.31386 -10.31309 -10.31024 -10.30890
 Alpha  occ. eigenvalues --  -10.30551 -10.30488 -10.30397 -10.30360 -10.30188
 Alpha  occ. eigenvalues --  -10.30139 -10.29902 -10.29893 -10.29612 -10.29436
 Alpha  occ. eigenvalues --  -10.29400 -10.29235 -10.28730 -10.28721 -10.28656
 Alpha  occ. eigenvalues --  -10.28520 -10.28405 -10.28346 -10.28142 -10.28098
 Alpha  occ. eigenvalues --  -10.28000 -10.27774 -10.27708 -10.27669 -10.27565
 Alpha  occ. eigenvalues --  -10.27512 -10.27483 -10.27482 -10.27469 -10.27465
 Alpha  occ. eigenvalues --  -10.27462 -10.27430 -10.27385 -10.27371 -10.27140
 Alpha  occ. eigenvalues --  -10.27051 -10.26694 -10.26686 -10.26416 -10.26390
 Alpha  occ. eigenvalues --  -10.26217 -10.26164 -10.26129 -10.26028 -10.26000
 Alpha  occ. eigenvalues --  -10.25932 -10.25847 -10.25825 -10.25417 -10.25392
 Alpha  occ. eigenvalues --  -10.24872 -10.24814 -10.24769 -10.24723 -10.24689
 Alpha  occ. eigenvalues --  -10.24667  -3.16520  -3.16410  -1.91402  -1.91292
 Alpha  occ. eigenvalues --   -1.90988  -1.90881  -1.90831  -1.90717  -1.16644
 Alpha  occ. eigenvalues --   -1.16615  -1.08658  -1.08609  -1.07196  -1.06966
 Alpha  occ. eigenvalues --   -1.06946  -1.06624  -1.04562  -1.04495  -1.03741
 Alpha  occ. eigenvalues --   -1.03662  -1.03215  -1.03038  -1.02392  -1.02111
 Alpha  occ. eigenvalues --   -0.91987  -0.91953  -0.89500  -0.89492  -0.89169
 Alpha  occ. eigenvalues --   -0.89152  -0.88268  -0.88217  -0.87852  -0.87792
 Alpha  occ. eigenvalues --   -0.87684  -0.87654  -0.87255  -0.87121  -0.85000
 Alpha  occ. eigenvalues --   -0.84963  -0.83917  -0.83872  -0.82948  -0.82931
 Alpha  occ. eigenvalues --   -0.82653  -0.82630  -0.81596  -0.81567  -0.80578
 Alpha  occ. eigenvalues --   -0.80442  -0.78778  -0.78635  -0.77200  -0.77144
 Alpha  occ. eigenvalues --   -0.76916  -0.76898  -0.75905  -0.75839  -0.74879
 Alpha  occ. eigenvalues --   -0.74800  -0.72755  -0.72698  -0.71653  -0.71580
 Alpha  occ. eigenvalues --   -0.69888  -0.69752  -0.68854  -0.68828  -0.67622
 Alpha  occ. eigenvalues --   -0.67601  -0.67201  -0.67201  -0.65272  -0.65268
 Alpha  occ. eigenvalues --   -0.64835  -0.64769  -0.64653  -0.64602  -0.64250
 Alpha  occ. eigenvalues --   -0.64201  -0.62279  -0.62278  -0.60423  -0.60339
 Alpha  occ. eigenvalues --   -0.59797  -0.59786  -0.58992  -0.58968  -0.58485
 Alpha  occ. eigenvalues --   -0.58425  -0.57566  -0.57554  -0.57290  -0.57235
 Alpha  occ. eigenvalues --   -0.56291  -0.56204  -0.55960  -0.55887  -0.55501
 Alpha  occ. eigenvalues --   -0.55452  -0.55321  -0.55245  -0.54505  -0.54486
 Alpha  occ. eigenvalues --   -0.53914  -0.53876  -0.53280  -0.53227  -0.53203
 Alpha  occ. eigenvalues --   -0.53142  -0.52902  -0.52896  -0.52737  -0.52669
 Alpha  occ. eigenvalues --   -0.52419  -0.52395  -0.51896  -0.51883  -0.51660
 Alpha  occ. eigenvalues --   -0.51598  -0.51200  -0.51177  -0.50553  -0.50476
 Alpha  occ. eigenvalues --   -0.50012  -0.49980  -0.49899  -0.49864  -0.49496
 Alpha  occ. eigenvalues --   -0.49488  -0.49203  -0.49196  -0.49105  -0.49078
 Alpha  occ. eigenvalues --   -0.48574  -0.48559  -0.48442  -0.48426  -0.48373
 Alpha  occ. eigenvalues --   -0.48339  -0.47676  -0.47594  -0.47278  -0.47118
 Alpha  occ. eigenvalues --   -0.46778  -0.46708  -0.46555  -0.46537  -0.46340
 Alpha  occ. eigenvalues --   -0.46269  -0.46144  -0.46084  -0.45821  -0.45803
 Alpha  occ. eigenvalues --   -0.45206  -0.45182  -0.44559  -0.44514  -0.44488
 Alpha  occ. eigenvalues --   -0.44476  -0.44127  -0.44125  -0.44076  -0.44070
 Alpha  occ. eigenvalues --   -0.44000  -0.43940  -0.43552  -0.43476  -0.43385
 Alpha  occ. eigenvalues --   -0.43367  -0.43008  -0.42930  -0.42900  -0.42680
 Alpha  occ. eigenvalues --   -0.42636  -0.42550  -0.41990  -0.41962  -0.41685
 Alpha  occ. eigenvalues --   -0.41669  -0.41515  -0.41458  -0.41122  -0.40989
 Alpha  occ. eigenvalues --   -0.40850  -0.40804  -0.40722  -0.40698  -0.40552
 Alpha  occ. eigenvalues --   -0.40490  -0.40228  -0.40215  -0.39421  -0.39420
 Alpha  occ. eigenvalues --   -0.38450  -0.38347  -0.37729  -0.37655  -0.37301
 Alpha  occ. eigenvalues --   -0.37264  -0.37245  -0.37200  -0.36771  -0.36695
 Alpha  occ. eigenvalues --   -0.36216  -0.36174  -0.34267  -0.34253  -0.33862
 Alpha  occ. eigenvalues --   -0.33752  -0.33175  -0.33167  -0.31325  -0.31273
 Alpha  occ. eigenvalues --   -0.31017  -0.30972  -0.30010  -0.29955  -0.29430
 Alpha  occ. eigenvalues --   -0.29327  -0.29303  -0.29211  -0.24062  -0.24036
 Alpha  occ. eigenvalues --   -0.21116  -0.21109
 Alpha virt. eigenvalues --   -0.08792  -0.08755  -0.01731  -0.01683  -0.00039
 Alpha virt. eigenvalues --   -0.00029   0.02208   0.02219   0.03142   0.03228
 Alpha virt. eigenvalues --    0.04729   0.04737   0.05116   0.05165   0.06181

 Mulliken charges:
               1
     1  Mg   0.838755
     2  C   -0.002958
     3  C   -0.094114
     4  C   -0.045889
     5  C   -0.063985
     6  N   -0.256781
     7  C   -0.052485
     8  C   -0.013990
     9  C   -0.087021
    10  C    0.046332
    11  C    0.104816
    12  C    0.053466
    13  C   -0.071813
    14  H    0.036135
    15  N   -0.433155
    16  C    0.168423
    17  C   -0.177149
    18  C   -0.003994
    19  C    0.148736
    20  C    0.110183
    21  C    0.012291
    22  O   -0.249613
    23  C    0.062469
    24  N   -0.341159
    25  C    0.041269
    26  C   -0.028175
    27  C   -0.023989
    28  C    0.074875
    29  C    0.076180
    30  C    0.035135
    31  C   -0.004509
    32  N   -0.310457
    33  C    0.080412
    34  C   -0.169721
    35  C    0.008347
    36  C    0.082988
    37  C    0.127312
    38  C    0.046126
    39  O   -0.188452
    40  C   -0.005337
    41  C    0.212873
    42  O   -0.257098
    43  O   -0.304799
    44  C    0.157686
    45  H   -0.017611
    46  H   -0.016832
    47  H   -0.041494
    48  H    0.000925
    49  H   -0.004031
    50  H    0.025467
    51  H    0.016444
    52  H    0.016647
    53  H    0.011218
    54  H    0.044124
    55  H    0.017860
    56  H    0.017956
    57  H    0.005868
    58  H    0.026816
    59  H    0.039575
    60  H    0.037333
    61  H    0.035669
    62  H    0.031525
    63  H    0.016569
    64  H    0.009451
    65  H    0.023215
    66  H    0.012534
    67  H    0.004743
    68  H    0.006367
    69  H    0.004725
    70  H    0.008794
    71  H    0.018151
    72  H    0.028983
    73  H    0.047567
    74  H    0.009113
    75  H    0.045996
    76  H    0.035137
    77  H    0.042938
    78  H    0.046403
    79  H    0.053692
    80  Mg   0.837864
    81  C   -0.016827
    82  C   -0.087824
    83  C   -0.045502
    84  C   -0.064850
    85  N   -0.254578
    86  C   -0.049844
    87  C   -0.015106
    88  C   -0.090495
    89  C    0.045750
    90  C    0.114390
    91  C    0.062529
    92  C   -0.077894
    93  H    0.034908
    94  N   -0.423490
    95  C    0.162934
    96  C   -0.174645
    97  C   -0.007804
    98  C    0.152107
    99  C    0.099377
   100  C    0.015560
   101  O   -0.253161
   102  C    0.061197
   103  N   -0.350070
   104  C    0.037517
   105  C   -0.019846
   106  C   -0.034848
   107  C    0.088942
   108  C    0.073638
   109  C    0.034724
   110  C   -0.007698
   111  N   -0.324122
   112  C    0.078441
   113  C   -0.163105
   114  C    0.002238
   115  C    0.096204
   116  C    0.131489
   117  C    0.042396
   118  O   -0.187850
   119  C    0.000912
   120  C    0.211262
   121  O   -0.251001
   122  O   -0.305641
   123  C    0.152025
   124  H   -0.019684
   125  H   -0.015547
   126  H   -0.040372
   127  H   -0.000655
   128  H   -0.004334
   129  H    0.022455
   130  H    0.014421
   131  H    0.016259
   132  H    0.013921
   133  H    0.037685
   134  H    0.020778
   135  H    0.019584
   136  H    0.008748
   137  H    0.026119
   138  H    0.039792
   139  H    0.038230
   140  H    0.036400
   141  H    0.033898
   142  H    0.014431
   143  H    0.012493
   144  H    0.025194
   145  H    0.011591
   146  H    0.005751
   147  H    0.006360
   148  H    0.003720
   149  H    0.010939
   150  H    0.017985
   151  H    0.030049
   152  H    0.046030
   153  H    0.008586
   154  H    0.046966
   155  H    0.035016
   156  H    0.043915
   157  H    0.049482
   158  H    0.053593
 Sum of Mulliken charges =  -0.00000

 Dipole moment (field-independent basis, Debye):
    X=              1.1409    Y=              5.6148    Z=             -6.3205  Tot=              8.5309
 Quadrupole moment (field-independent basis, Debye-Ang):
   XX=           -396.3502   YY=           -556.6976   ZZ=           -467.4513
   XY=            -19.7245   XZ=             28.9819   YZ=             -9.4613

 Normal termination of Gaussian 16 at Sun Sep 12 21:44:30 2021.
