 Gaussian 16, Revision A.03,
 Gaussian 16:  ES64L-G16RevA.03 25-Dec-2016

 -----------------------------------
 #p cam-b3lyp/Def2SVP td=(nstates=5)
 -----------------------------------

 --------------------------------
 TDDFT excited states in gaussian
 --------------------------------
 Symbolic Z-matrix:
 Charge =  0 Multiplicity = 1

                         Standard orientation:
 ---------------------------------------------------------------------
 Center     Atomic      Atomic             Coordinates (Angstroms)
 Number     Number       Type             X           Y           Z
 ---------------------------------------------------------------------
      1         12           0       -5.364715   -0.235756   -0.000655
      2          6           0       -5.208734    3.340097    0.033397
      3          6           0       -6.151202   -0.021454   -3.314048
      4          6           0       -5.952520   -3.351627    0.048858
      5          6           0       -5.689432   -0.107427    3.466874
      6          7           0       -5.616408    1.496470   -1.355900
      7          6           0       -5.470113    2.812006   -1.232875
      8          6           0       -5.545812    3.571736   -2.590981
      9          6           0       -6.391610    2.509621   -3.426766
     10          6           0       -6.003777    1.246832   -2.677851
     11          6           0       -7.899880    2.705412   -3.311490
     12          6           0       -4.131809    3.802738   -3.222617
     13          6           0       -4.087130    4.812701   -4.372978
     14          1           0       -2.916787    5.666393   -4.510299
     15          7           0       -5.484148   -1.540656   -1.479107
     16          6           0       -5.800821   -1.275834   -2.769407
     17          6           0       -5.755953   -2.574650   -3.474916
     18          6           0       -5.573547   -3.641897   -2.452269
     19          6           0       -5.690552   -2.879928   -1.235268
     20          6           0       -5.831749   -2.704524   -4.965264
     21          6           0       -5.342556   -5.116396   -2.555360
     22          8           0       -5.443275   -5.892937   -1.544710
     23          6           0       -5.078723   -5.647224   -3.905047
     24          7           0       -5.984368   -1.540162    1.506724
     25          6           0       -6.106164   -2.852163    1.276935
     26          6           0       -6.282770   -3.616341    2.555521
     27          6           0       -6.012207   -2.573963    3.734503
     28          6           0       -5.795120   -1.301361    2.879151
     29          6           0       -7.655568   -4.272070    2.759127
     30          6           0       -4.930861   -2.955762    4.776300
     31          6           0       -3.567359   -2.961503    4.122139
     32          7           0       -5.262676    1.303354    1.526360
     33          6           0       -5.450768    1.136075    2.905966
     34          6           0       -5.393363    2.477410    3.515551
     35          6           0       -5.191091    3.339036    2.439200
     36          6           0       -5.152482    2.586386    1.230763
     37          6           0       -5.579553    2.774809    4.894435
     38          6           0       -5.023217    4.722926    2.026255
     39          8           0       -4.878576    5.793213    2.618757
     40          6           0       -5.149749    4.791462    0.440342
     41          6           0       -4.002674    5.619268   -0.071777
     42          8           0       -2.826886    5.212374    0.024785
     43          8           0       -4.481105    6.638911   -0.801143
     44          6           0       -3.393267    7.482948   -1.363606
     45          1           0       -6.632083   -0.068134   -4.293087
     46          1           0       -6.051327   -4.436510    0.124381
     47          1           0       -5.698141    0.002314    4.552845
     48          1           0       -6.077634    4.522514   -2.550861
     49          1           0       -6.061351    2.451741   -4.463734
     50          1           0       -8.147545    3.464320   -2.569438
     51          1           0       -8.297181    1.735576   -3.011387
     52          1           0       -8.338246    2.920125   -4.286432
     53          1           0       -3.824175    2.902289   -3.754232
     54          1           0       -3.410861    4.094792   -2.458245
     55          1           0       -5.000480    5.406590   -4.417656
     56          1           0       -4.077133    4.260045   -5.312483
     57          1           0       -6.130132   -1.767739   -5.434248
     58          1           0       -6.649940   -3.390433   -5.183897
     59          1           0       -4.905250   -3.089816   -5.391270
     60          1           0       -5.922125   -5.413198   -4.555012
     61          1           0       -4.849415   -6.704028   -3.773010
     62          1           0       -4.215323   -5.130494   -4.325141
     63          1           0       -5.563204   -4.430938    2.626814
     64          1           0       -6.905372   -2.392227    4.332753
     65          1           0       -7.606505   -5.348827    2.923111
     66          1           0       -8.273502   -4.036123    1.893230
     67          1           0       -8.248269   -3.849400    3.569975
     68          1           0       -5.108600   -3.961274    5.156168
     69          1           0       -4.898451   -2.279420    5.630561
     70          1           0       -3.519605   -3.950409    3.667588
     71          1           0       -2.785196   -2.838298    4.871973
     72          1           0       -3.509279   -2.229397    3.316450
     73          1           0       -4.809912    3.500701    5.156546
     74          1           0       -5.502307    1.876892    5.507119
     75          1           0       -6.589732    3.183627    4.878219
     76          1           0       -6.114223    5.249038    0.222315
     77          1           0       -3.578945    8.505994   -1.036294
     78          1           0       -3.374917    7.290402   -2.436451
     79          1           0       -2.394698    7.315309   -0.958520
     80         12           0        5.172207   -1.296830    0.222002
     81          6           0        6.128972    2.160736    0.316195
     82          6           0        5.174213   -1.050261   -3.180029
     83          6           0        3.897516   -4.200286    0.110009
     84          6           0        4.148995   -0.960360    3.536452
     85          7           0        5.612495    0.390211   -1.138980
     86          6           0        6.025314    1.639965   -0.990516
     87          6           0        6.422095    2.347768   -2.313825
     88          6           0        5.546980    1.464920   -3.330500
     89          6           0        5.463857    0.171761   -2.522103
     90          6           0        4.136938    1.995904   -3.528482
     91          6           0        7.956021    2.225311   -2.620538
     92          6           0        8.466101    3.149522   -3.728425
     93          1           0        9.808339    3.711005   -3.603449
     94          7           0        5.081427   -2.602890   -1.269476
     95          6           0        5.119015   -2.332654   -2.591154
     96          6           0        4.997942   -3.631624   -3.271000
     97          6           0        4.720273   -4.673701   -2.245489
     98          6           0        4.530852   -3.844812   -1.071965
     99          6           0        5.222735   -3.802477   -4.745351
    100          6           0        4.626466   -6.167989   -2.312755
    101          8           0        4.140028   -6.856262   -1.347107
    102          6           0        5.034196   -6.794124   -3.578928
    103          7           0        3.975809   -2.363483    1.546097
    104          6           0        3.604194   -3.627486    1.277566
    105          6           0        2.984346   -4.282812    2.488657
    106          6           0        3.238004   -3.271574    3.701358
    107          6           0        3.911639   -2.115404    2.930072
    108          6           0        1.490602   -4.590676    2.387028
    109          6           0        3.956958   -3.841822    4.954585
    110          6           0        5.387632   -4.192049    4.614146
    111          7           0        5.299744    0.233910    1.741426
    112          6           0        4.782829    0.177710    3.054336
    113          6           0        5.015852    1.499808    3.670927
    114          6           0        5.636391    2.246652    2.658188
    115          6           0        5.761739    1.452867    1.486148
    116          6           0        4.623472    1.886373    4.983456
    117          6           0        6.204292    3.529396    2.310706
    118          8           0        6.453150    4.564855    2.926852
    119          6           0        6.434167    3.571104    0.738506
    120          6           0        7.821875    4.093443    0.485666
    121          8           0        8.817963    3.439949    0.842561
    122          8           0        7.748401    5.165725   -0.323766
    123          6           0        9.100820    5.712886   -0.612567
    124          1           0        4.923707   -1.021691   -4.240827
    125          1           0        3.538223   -5.230721    0.160995
    126          1           0        3.947433   -0.806459    4.598695
    127          1           0        6.128673    3.388713   -2.377879
    128          1           0        6.076632    1.297215   -4.264686
    129          1           0        3.917211    2.814798   -2.859703
    130          1           0        3.477762    1.160293   -3.332788
    131          1           0        3.979243    2.265104   -4.576808
    132          1           0        8.151657    1.250028   -3.084551
    133          1           0        8.535648    2.374229   -1.730327
    134          1           0        7.742166    3.935585   -3.975330
    135          1           0        8.556602    2.569432   -4.650003
    136          1           0        5.247833   -2.835690   -5.263124
    137          1           0        4.335730   -4.303356   -5.148112
    138          1           0        6.103188   -4.408368   -4.969760
    139          1           0        4.426387   -6.398949   -4.389390
    140          1           0        4.981947   -7.870301   -3.402887
    141          1           0        6.069750   -6.507383   -3.793474
    142          1           0        3.470169   -5.225300    2.709524
    143          1           0        2.295009   -2.873396    4.103904
    144          1           0        1.253169   -5.659109    2.548791
    145          1           0        1.140475   -4.266105    1.416146
    146          1           0        0.854849   -4.022296    3.063758
    147          1           0        3.478307   -4.770054    5.276193
    148          1           0        3.949177   -3.164947    5.802387
    149          1           0        5.298554   -5.186771    4.167301
    150          1           0        6.000310   -4.216592    5.513068
    151          1           0        5.785109   -3.519592    3.845082
    152          1           0        5.456445    2.429029    5.410291
    153          1           0        4.358103    1.022730    5.589656
    154          1           0        3.754462    2.508106    4.752072
    155          1           0        5.668378    4.220513    0.312571
    156          1           0        9.086225    6.768850   -0.325494
    157          1           0        9.295065    5.482910   -1.677049
    158          1           0        9.928321    5.343547   -0.018191
 ---------------------------------------------------------------------

 SCF Done:  E(RCAM-B3LYP) =  -4069.81145028     A.U. after   19 cycles

 Excitation energies and oscillator strengths:

 Excited State   1:      Singlet-A      1.6570 eV  748.26 nm  f=0.0029  <S**2>=0.000
     309 -> 315       -0.11276
     310 -> 316        0.12620
     311 -> 313       -0.45618
     312 -> 314        0.51386
 This state for optimization and/or second-order correction.
 Total Energy, E(TD-HF/TD-DFT) =  -4069.75055782
 Copying the excited state density for this state as the 1-particle RhoCI density.

 Excited State   2:      Singlet-A      1.6970 eV  730.63 nm  f=0.7182  <S**2>=0.000
     309 -> 315        0.13466
     310 -> 316        0.11876
     311 -> 313        0.51197
     312 -> 314        0.45455

 Excited State   3:      Singlet-A      2.1829 eV  567.97 nm  f=0.0285  <S**2>=0.000
     309 -> 313       -0.26609
     310 -> 314        0.58651
     311 -> 315        0.11088
     312 -> 316       -0.24632

 Excited State   4:      Singlet-A      2.1948 eV  564.89 nm  f=0.1540  <S**2>=0.000
     309 -> 313        0.58292
     310 -> 314        0.26288
     311 -> 315       -0.25542
     312 -> 316       -0.11656

 Excited State   5:      Singlet-A      2.4943 eV  497.08 nm  f=0.0000  <S**2>=0.000
     312 -> 313        0.70706

 The electronic state is 1-A.
 Alpha  occ. eigenvalues --  -46.87849 -46.87492 -19.26313 -19.26196 -19.19049
 Alpha  occ. eigenvalues --  -19.19004 -19.18838 -19.18579 -19.18198 -19.17857
 Alpha  occ. eigenvalues --  -14.42505 -14.42332 -14.41506 -14.41191 -14.39452
 Alpha  occ. eigenvalues --  -14.39188 -14.38637 -14.38423 -10.39110 -10.38929
 Alpha  occ. eigenvalues --  -10.35471 -10.35260 -10.34419 -10.34033 -10.31704
 Alpha  occ. eigenvalues --  -10.31623 -10.31461 -10.31137 -10.30963 -10.30870
 Alpha  occ. eigenvalues --  -10.30622 -10.30554 -10.30265 -10.30223 -10.30186
 Alpha  occ. eigenvalues --  -10.29989 -10.29974 -10.29716 -10.29677 -10.29304
 Alpha  occ. eigenvalues --  -10.29278 -10.29233 -10.28817 -10.28642 -10.28572
 Alpha  occ. eigenvalues --  -10.28555 -10.28412 -10.28236 -10.28182 -10.27990
 Alpha  occ. eigenvalues --  -10.27837 -10.27828 -10.27783 -10.27630 -10.27576
 Alpha  occ. eigenvalues --  -10.27543 -10.27512 -10.27511 -10.27453 -10.27372
 Alpha  occ. eigenvalues --  -10.27370 -10.27314 -10.27307 -10.27213 -10.27194
 Alpha  occ. eigenvalues --  -10.26857 -10.26795 -10.26571 -10.26427 -10.26323
 Alpha  occ. eigenvalues --  -10.26296 -10.26292 -10.26078 -10.26018 -10.25880
 Alpha  occ. eigenvalues --  -10.25858 -10.25769 -10.25621 -10.25483 -10.25214
 Alpha  occ. eigenvalues --  -10.24875 -10.24845 -10.24837 -10.24691 -10.24616
 Alpha  occ. eigenvalues --  -10.24521  -3.16592  -3.16241  -1.91474  -1.91123
 Alpha  occ. eigenvalues --   -1.91060  -1.90902  -1.90712  -1.90549  -1.16661
 Alpha  occ. eigenvalues --   -1.16489  -1.08654  -1.08461  -1.07237  -1.06834
 Alpha  occ. eigenvalues --   -1.06787  -1.06671  -1.04635  -1.04330  -1.03815
 Alpha  occ. eigenvalues --   -1.03497  -1.03284  -1.02870  -1.02463  -1.01940
 Alpha  occ. eigenvalues --   -0.92019  -0.91811  -0.89590  -0.89338  -0.89255
 Alpha  occ. eigenvalues --   -0.89001  -0.88354  -0.88064  -0.87914  -0.87732
 Alpha  occ. eigenvalues --   -0.87603  -0.87524  -0.87318  -0.86985  -0.85046
 Alpha  occ. eigenvalues --   -0.84851  -0.84011  -0.83722  -0.83012  -0.82806
 Alpha  occ. eigenvalues --   -0.82704  -0.82508  -0.81630  -0.81436  -0.80644
 Alpha  occ. eigenvalues --   -0.80286  -0.78845  -0.78482  -0.77284  -0.76997
 Alpha  occ. eigenvalues --   -0.76993  -0.76747  -0.75976  -0.75682  -0.74958
 Alpha  occ. eigenvalues --   -0.74639  -0.72827  -0.72529  -0.71725  -0.71415
 Alpha  occ. eigenvalues --   -0.69997  -0.69615  -0.68933  -0.68679  -0.67688
 Alpha  occ. eigenvalues --   -0.67441  -0.67283  -0.67067  -0.65349  -0.65119
 Alpha  occ. eigenvalues --   -0.64906  -0.64679  -0.64609  -0.64499  -0.64335
 Alpha  occ. eigenvalues --   -0.64049  -0.62340  -0.62121  -0.60491  -0.60193
 Alpha  occ. eigenvalues --   -0.59863  -0.59639  -0.59040  -0.58827  -0.58554
 Alpha  occ. eigenvalues --   -0.58261  -0.57623  -0.57375  -0.57360  -0.57077
 Alpha  occ. eigenvalues --   -0.56357  -0.56043  -0.56021  -0.55737  -0.55564
 Alpha  occ. eigenvalues --   -0.55399  -0.55305  -0.55088  -0.54579  -0.54334
 Alpha  occ. eigenvalues --   -0.53960  -0.53766  -0.53349  -0.53273  -0.53074
 Alpha  occ. eigenvalues --   -0.52992  -0.52966  -0.52806  -0.52752  -0.52545
 Alpha  occ. eigenvalues --   -0.52531  -0.52266  -0.51956  -0.51674  -0.51674
 Alpha  occ. eigenvalues --   -0.51518  -0.51250  -0.51036  -0.50619  -0.50359
 Alpha  occ. eigenvalues --   -0.50107  -0.49966  -0.49836  -0.49716  -0.49564
 Alpha  occ. eigenvalues --   -0.49345  -0.49259  -0.49152  -0.49045  -0.48938
 Alpha  occ. eigenvalues --   -0.48640  -0.48512  -0.48480  -0.48396  -0.48212
 Alpha  occ. eigenvalues --   -0.48195  -0.47751  -0.47451  -0.47346  -0.46972
 Alpha  occ. eigenvalues --   -0.46861  -0.46618  -0.46554  -0.46414  -0.46411
 Alpha  occ. eigenvalues --   -0.46212  -0.46114  -0.45911  -0.45865  -0.45647
 Alpha  occ. eigenvalues --   -0.45264  -0.45044  -0.44621  -0.44568  -0.44358
 Alpha  occ. eigenvalues --   -0.44321  -0.44210  -0.44147  -0.44061  -0.43971
 Alpha  occ. eigenvalues --   -0.43932  -0.43789  -0.43540  -0.43447  -0.43397
 Alpha  occ. eigenvalues --   -0.43227  -0.43080  -0.42775  -0.42760  -0.42731
 Alpha  occ. eigenvalues --   -0.42710  -0.42406  -0.42085  -0.41819  -0.41754
 Alpha  occ. eigenvalues --   -0.41601  -0.41497  -0.41315  -0.41195  -0.40942
 Alpha  occ. eigenvalues --   -0.40863  -0.40827  -0.40640  -0.40591  -0.40560
 Alpha  occ. eigenvalues --   -0.40339  -0.40310  -0.40100  -0.39541  -0.39286
 Alpha  occ. eigenvalues --   -0.38539  -0.38195  -0.37823  -0.37519  -0.37385
 Alpha  occ. eigenvalues --   -0.37325  -0.37110  -0.37045  -0.36756  -0.36616
 Alpha  occ. eigenvalues --   -0.36245  -0.36060  -0.34338  -0.34085  -0.33803
 Alpha  occ. eigenvalues --   -0.33703  -0.33236  -0.33008  -0.31369  -0.31137
 Alpha  occ. eigenvalues --   -0.31085  -0.30807  -0.30058  -0.29760  -0.29492
 Alpha  occ. eigenvalues --   -0.29365  -0.29169  -0.29026  -0.24133  -0.23865
 Alpha  occ. eigenvalues --   -0.21180  -0.20950
 Alpha virt. eigenvalues --   -0.08822  -0.08624  -0.01801  -0.01521  -0.00097
 Alpha virt. eigenvalues --    0.00122   0.02160   0.02392   0.03042   0.03383
 Alpha virt. eigenvalues --    0.04653   0.04888   0.05066   0.05328   0.06098

 Mulliken charges:
               1
     1  Mg   0.838689
     2  C   -0.002911
     3  C   -0.094472
     4  C   -0.045669
     5  C   -0.064146
     6  N   -0.256739
     7  C   -0.052592
     8  C   -0.013938
     9  C   -0.086965
    10  C    0.046267
    11  C    0.104804
    12  C    0.053628
    13  C   -0.071514
    14  H    0.035451
    15  N   -0.433177
    16  C    0.168429
    17  C   -0.177298
    18  C   -0.003790
    19  C    0.148761
    20  C    0.110269
    21  C    0.012816
    22  O   -0.249093
    23  C    0.062388
    24  N   -0.341012
    25  C    0.041047
    26  C   -0.028300
    27  C   -0.023923
    28  C    0.074576
    29  C    0.076092
    30  C    0.035245
    31  C   -0.005290
    32  N   -0.310514
    33  C    0.080333
    34  C   -0.169755
    35  C    0.008569
    36  C    0.082988
    37  C    0.127282
    38  C    0.046327
    39  O   -0.187830
    40  C   -0.005459
    41  C    0.213029
    42  O   -0.257011
    43  O   -0.304835
    44  C    0.157493
    45  H   -0.017687
    46  H   -0.016574
    47  H   -0.041598
    48  H    0.001120
    49  H   -0.004394
    50  H    0.025635
    51  H    0.016563
    52  H    0.016618
    53  H    0.010608
    54  H    0.044132
    55  H    0.018255
    56  H    0.017480
    57  H    0.005582
    58  H    0.026984
    59  H    0.039085
    60  H    0.037052
    61  H    0.036358
    62  H    0.031307
    63  H    0.016638
    64  H    0.009708
    65  H    0.023445
    66  H    0.012704
    67  H    0.004817
    68  H    0.006561
    69  H    0.004736
    70  H    0.009372
    71  H    0.016363
    72  H    0.029422
    73  H    0.047904
    74  H    0.008852
    75  H    0.046197
    76  H    0.035239
    77  H    0.043396
    78  H    0.045915
    79  H    0.054077
    80  Mg   0.838260
    81  C   -0.016506
    82  C   -0.088081
    83  C   -0.045620
    84  C   -0.064164
    85  N   -0.254514
    86  C   -0.049156
    87  C   -0.015149
    88  C   -0.090687
    89  C    0.045968
    90  C    0.114431
    91  C    0.062630
    92  C   -0.077572
    93  H    0.034469
    94  N   -0.423366
    95  C    0.162794
    96  C   -0.175418
    97  C   -0.008088
    98  C    0.151849
    99  C    0.099769
   100  C    0.015206
   101  O   -0.253160
   102  C    0.061388
   103  N   -0.349890
   104  C    0.037428
   105  C   -0.019822
   106  C   -0.034719
   107  C    0.089160
   108  C    0.073289
   109  C    0.034722
   110  C   -0.007561
   111  N   -0.324409
   112  C    0.078965
   113  C   -0.162088
   114  C    0.003097
   115  C    0.096417
   116  C    0.131048
   117  C    0.043354
   118  O   -0.187273
   119  C    0.000529
   120  C    0.211083
   121  O   -0.251402
   122  O   -0.305391
   123  C    0.152169
   124  H   -0.020736
   125  H   -0.015570
   126  H   -0.040441
   127  H   -0.000402
   128  H   -0.005141
   129  H    0.024284
   130  H    0.014552
   131  H    0.014774
   132  H    0.013682
   133  H    0.037657
   134  H    0.020663
   135  H    0.019133
   136  H    0.008138
   137  H    0.024879
   138  H    0.039307
   139  H    0.037501
   140  H    0.036096
   141  H    0.033686
   142  H    0.014020
   143  H    0.012333
   144  H    0.025130
   145  H    0.012314
   146  H    0.005912
   147  H    0.005740
   148  H    0.003420
   149  H    0.010822
   150  H    0.017589
   151  H    0.030276
   152  H    0.045645
   153  H    0.007852
   154  H    0.049857
   155  H    0.036615
   156  H    0.043862
   157  H    0.049097
   158  H    0.053343
 Sum of Mulliken charges =  -0.00000

 Dipole moment (field-independent basis, Debye):
    X=             -3.5507    Y=             -1.9065    Z=             -7.8542  Tot=              8.8278
 Quadrupole moment (field-independent basis, Debye-Ang):
   XX=           -509.9004   YY=           -554.2047   ZZ=           -446.8598
   XY=             -5.4971   XZ=            -19.1016   YZ=            -40.3205

 Normal termination of Gaussian 16 at Fri Sep 10 14:02:11 2021.
