 Gaussian 16, Revision A.03,
 Gaussian 16:  ES64L-G16RevA.03 25-Dec-2016

 -----------------------------------
 #p cam-b3lyp/Def2SVP td=(nstates=5)
 -----------------------------------

 --------------------------------
 TDDFT excited states in gaussian
 --------------------------------
 Symbolic Z-matrix:
 Charge =  0 Multiplicity = 1

                         Standard orientation:
 ---------------------------------------------------------------------
 Center     Atomic      Atomic             Coordinates (Angstroms)
 Number     Number       Type             X           Y           Z
 ---------------------------------------------------------------------
      1         12           0        3.741644    1.016323    0.414538
      2          6           0        4.029834   -1.831515    2.563719
      3          6           0        5.045834   -0.917550   -2.075901
      4          6           0        3.921426    3.629927   -1.372463
      5          6           0        3.546016    2.979684    3.287273
      6          7           0        4.411726   -1.093135    0.371857
      7          6           0        4.413699   -2.093996    1.246755
      8          6           0        4.790306   -3.466992    0.613966
      9          6           0        5.614651   -2.945318   -0.647109
     10          6           0        4.962368   -1.584678   -0.817726
     11          6           0        7.100083   -2.745871   -0.363890
     12          6           0        3.529476   -4.285411    0.175526
     13          6           0        3.787553   -5.759979   -0.147586
     14          1           0        2.767761   -6.740425    0.193144
     15          7           0        3.921828    1.220597   -1.542157
     16          6           0        4.462538    0.325568   -2.403459
     17          6           0        4.364274    0.940136   -3.744850
     18          6           0        3.895948    2.342987   -3.569426
     19          6           0        3.919748    2.463714   -2.134073
     20          6           0        4.650155    0.196729   -5.013459
     21          6           0        3.501220    3.409414   -4.541566
     22          8           0        3.348570    4.628743   -4.188709
     23          6           0        3.382608    3.000550   -5.952879
     24          7           0        3.955920    3.040673    0.876845
     25          6           0        3.946689    3.972372   -0.082758
     26          6           0        3.829024    5.351175    0.496031
     27          6           0        3.513687    5.153350    2.048829
     28          6           0        3.590436    3.607836    2.110192
     29          6           0        5.061868    6.251504    0.336301
     30          6           0        2.246722    5.851525    2.603600
     31          6           0        1.009295    5.217617    2.008593
     32          7           0        3.600321    0.657564    2.550508
     33          6           0        3.552977    1.623237    3.566336
     34          6           0        3.570946    0.899969    4.851104
     35          6           0        3.644703   -0.444243    4.491243
     36          6           0        3.697610   -0.552437    3.072164
     37          6           0        3.579846    1.496105    6.142993
     38          6           0        3.715969   -1.813095    4.976035
     39          8           0        3.617199   -2.347806    6.081395
     40          6           0        4.090959   -2.759465    3.751456
     41          6           0        3.148031   -3.931439    3.777394
     42          8           0        1.929817   -3.777447    3.554665
     43          8           0        3.855794   -5.070518    3.823339
     44          6           0        2.980659   -6.273136    3.821491
     45          1           0        5.661069   -1.354189   -2.865061
     46          1           0        3.871341    4.553372   -1.953134
     47          1           0        3.402271    3.521614    4.223811
     48          1           0        5.424208   -4.096698    1.238517
     49          1           0        5.442151   -3.561540   -1.529286
     50          1           0        7.324184   -2.872117    0.695243
     51          1           0        7.322657   -1.726945   -0.681291
     52          1           0        7.705639   -3.395701   -0.996187
     53          1           0        3.196757   -3.936735   -0.802116
     54          1           0        2.742329   -4.213382    0.926883
     55          1           0        4.763898   -6.082543    0.215198
     56          1           0        3.852369   -5.866056   -1.230520
     57          1           0        5.131273   -0.760584   -4.816935
     58          1           0        5.400065    0.771103   -5.557003
     59          1           0        3.758895    0.079336   -5.630068
     60          1           0        4.337976    2.600529   -6.293178
     61          1           0        3.005726    3.871657   -6.487652
     62          1           0        2.664885    2.182809   -6.024456
     63          1           0        3.011039    5.901294    0.032679
     64          1           0        4.320536    5.525413    2.680682
     65          1           0        4.854314    7.191346   -0.175875
     66          1           0        5.829444    5.682131   -0.187084
     67          1           0        5.571739    6.497765    1.267324
     68          1           0        2.237406    6.902883    2.318110
     69          1           0        2.168799    5.802100    3.689756
     70          1           0        0.908526    5.730672    1.052846
     71          1           0        0.143283    5.403544    2.644726
     72          1           0        1.166874    4.160102    1.795714
     73          1           0        2.875877    0.924398    6.747597
     74          1           0        3.298406    2.547846    6.095714
     75          1           0        4.623666    1.355354    6.423145
     76          1           0        5.126904   -3.064226    3.896579
     77          1           0        3.240348   -6.860431    4.702331
     78          1           0        3.102611   -6.743612    2.845691
     79          1           0        1.918887   -6.096914    3.997346
     80         12           0       -4.119837    0.230375   -0.304190
     81          6           0       -2.578543   -1.929347   -2.720610
     82          6           0       -5.908076   -2.475247    0.752403
     83          6           0       -5.816250    2.190719    1.525198
     84          6           0       -3.092090    2.924260   -2.261848
     85          7           0       -4.150612   -1.876866   -0.975645
     86          6           0       -3.476970   -2.595437   -1.861193
     87          6           0       -3.723941   -4.125205   -1.769751
     88          6           0       -5.168973   -4.094092   -1.069917
     89          6           0       -5.064973   -2.748921   -0.354114
     90          6           0       -6.317013   -4.019302   -2.062755
     91          6           0       -2.664006   -4.848884   -0.867071
     92          6           0       -2.657584   -6.374970   -0.980223
     93          1           0       -1.379991   -7.075010   -0.879370
     94          7           0       -5.268982   -0.152485    1.267903
     95          6           0       -5.897866   -1.311993    1.553059
     96          6           0       -6.631160   -1.074385    2.806059
     97          6           0       -6.516800    0.368988    3.149997
     98          6           0       -5.866187    0.873422    1.957387
     99          6           0       -7.280543   -2.177267    3.590512
    100          6           0       -6.936555    1.165884    4.347902
    101          8           0       -6.952185    2.447424    4.332328
    102          6           0       -7.417607    0.401561    5.508025
    103          7           0       -4.598274    2.247301   -0.463684
    104          6           0       -5.306191    2.867910    0.496329
    105          6           0       -5.291085    4.365542    0.303327
    106          6           0       -4.220475    4.638950   -0.852799
    107          6           0       -3.850925    3.181362   -1.205330
    108          6           0       -6.627535    5.000327   -0.080539
    109          6           0       -3.073217    5.634579   -0.528464
    110          6           0       -2.162509    5.047022    0.525476
    111          7           0       -2.879470    0.498627   -2.052779
    112          6           0       -2.602285    1.709521   -2.724339
    113          6           0       -1.807164    1.370765   -3.922444
    114          6           0       -1.695603   -0.027075   -3.876798
    115          6           0       -2.390466   -0.526165   -2.742084
    116          6           0       -1.337705    2.294970   -4.897936
    117          6           0       -1.157015   -1.194837   -4.536308
    118          8           0       -0.408077   -1.383631   -5.494010
    119          6           0       -1.811553   -2.489242   -3.886304
    120          6           0       -0.709304   -3.470015   -3.593663
    121          8           0        0.161948   -3.207279   -2.746029
    122          8           0       -0.986936   -4.638697   -4.199874
    123          6           0        0.072160   -5.647305   -3.930016
    124          1           0       -6.680419   -3.201150    1.008215
    125          1           0       -6.293297    2.921102    2.182811
    126          1           0       -2.650200    3.716529   -2.869899
    127          1           0       -3.784131   -4.633508   -2.724627
    128          1           0       -5.276842   -4.901554   -0.350375
    129          1           0       -5.966241   -3.879797   -3.074509
    130          1           0       -6.920344   -3.176453   -1.751896
    131          1           0       -6.957500   -4.900586   -1.965517
    132          1           0       -2.955765   -4.739750    0.185409
    133          1           0       -1.679089   -4.468367   -1.056232
    134          1           0       -3.220156   -6.725881   -1.853900
    135          1           0       -3.201480   -6.788451   -0.127461
    136          1           0       -7.341653   -3.104022    3.006731
    137          1           0       -8.324703   -1.885899    3.747675
    138          1           0       -6.808300   -2.337585    4.562079
    139          1           0       -8.270635   -0.204660    5.212565
    140          1           0       -7.585984    1.139531    6.294742
    141          1           0       -6.630243   -0.293783    5.819762
    142          1           0       -4.968917    4.868658    1.206755
    143          1           0       -4.689995    5.069724   -1.749352
    144          1           0       -6.953054    5.790723    0.621875
    145          1           0       -7.371672    4.217495   -0.143462
    146          1           0       -6.663192    5.433735   -1.078579
    147          1           0       -3.480212    6.557278   -0.107574
    148          1           0       -2.481892    5.909501   -1.395496
    149          1           0       -2.681174    5.283394    1.459397
    150          1           0       -1.181553    5.516526    0.489038
    151          1           0       -2.116317    3.955042    0.441320
    152          1           0       -0.316013    2.018713   -5.122261
    153          1           0       -1.403526    3.319862   -4.538741
    154          1           0       -2.043940    2.098077   -5.708947
    155          1           0       -2.533171   -2.885793   -4.601559
    156          1           0        0.432415   -5.999996   -4.901363
    157          1           0       -0.392527   -6.397185   -3.262566
    158          1           0        0.992759   -5.298444   -3.476976
 ---------------------------------------------------------------------

 SCF Done:  E(RCAM-B3LYP) =  -4069.81273892     A.U. after   18 cycles

 Excitation energies and oscillator strengths:

 Excited State   1:      Singlet-A      1.6350 eV  758.33 nm  f=0.0727  <S**2>=0.000
     309 -> 315        0.12128
     310 -> 316        0.10861
     311 -> 313        0.50966
     312 -> 314        0.46285
 This state for optimization and/or second-order correction.
 Total Energy, E(TD-HF/TD-DFT) =  -4069.75265517
 Copying the excited state density for this state as the 1-particle RhoCI density.

 Excited State   2:      Singlet-A      1.7108 eV  724.70 nm  f=0.6320  <S**2>=0.000
     309 -> 315       -0.12257
     310 -> 316        0.13448
     311 -> 313       -0.45967
     312 -> 314        0.50626

 Excited State   3:      Singlet-A      2.1779 eV  569.29 nm  f=0.0092  <S**2>=0.000
     309 -> 313        0.53925
     310 -> 314       -0.35669
     311 -> 315       -0.22166
     312 -> 316        0.14460

 Excited State   4:      Singlet-A      2.1972 eV  564.28 nm  f=0.1586  <S**2>=0.000
     309 -> 313        0.35141
     310 -> 314        0.53303
     311 -> 315       -0.15529
     312 -> 316       -0.23426

 Excited State   5:      Singlet-A      2.2429 eV  552.79 nm  f=0.0000  <S**2>=0.000
     312 -> 313        0.70660

 The electronic state is 1-A.
 Alpha  occ. eigenvalues --  -46.87547 -46.87238 -19.26591 -19.25973 -19.19428
 Alpha  occ. eigenvalues --  -19.18667 -19.18595 -19.18363 -19.18170 -19.17724
 Alpha  occ. eigenvalues --  -14.42381 -14.41883 -14.41254 -14.40940 -14.39237
 Alpha  occ. eigenvalues --  -14.38833 -14.38518 -14.38062 -10.39302 -10.38719
 Alpha  occ. eigenvalues --  -10.35268 -10.34989 -10.34339 -10.33949 -10.32077
 Alpha  occ. eigenvalues --  -10.31460 -10.31234 -10.30920 -10.30864 -10.30325
 Alpha  occ. eigenvalues --  -10.30311 -10.30286 -10.30027 -10.30022 -10.29995
 Alpha  occ. eigenvalues --  -10.29809 -10.29697 -10.29490 -10.29319 -10.29317
 Alpha  occ. eigenvalues --  -10.29131 -10.28693 -10.28629 -10.28591 -10.28332
 Alpha  occ. eigenvalues --  -10.28171 -10.28145 -10.28054 -10.27938 -10.27812
 Alpha  occ. eigenvalues --  -10.27566 -10.27560 -10.27408 -10.27372 -10.27353
 Alpha  occ. eigenvalues --  -10.27316 -10.27256 -10.27255 -10.27156 -10.27156
 Alpha  occ. eigenvalues --  -10.27143 -10.27133 -10.27044 -10.26884 -10.26726
 Alpha  occ. eigenvalues --  -10.26681 -10.26540 -10.26250 -10.25969 -10.25959
 Alpha  occ. eigenvalues --  -10.25919 -10.25907 -10.25876 -10.25850 -10.25804
 Alpha  occ. eigenvalues --  -10.25777 -10.25519 -10.25439 -10.25300 -10.25157
 Alpha  occ. eigenvalues --  -10.24827 -10.24599 -10.24503 -10.24381 -10.24318
 Alpha  occ. eigenvalues --  -10.24305  -3.16295  -3.15977  -1.91176  -1.90858
 Alpha  occ. eigenvalues --   -1.90765  -1.90603  -1.90446  -1.90288  -1.16881
 Alpha  occ. eigenvalues --   -1.16311  -1.08797  -1.08200  -1.07178  -1.06845
 Alpha  occ. eigenvalues --   -1.06777  -1.06291  -1.04393  -1.04021  -1.03559
 Alpha  occ. eigenvalues --   -1.03246  -1.02939  -1.02704  -1.02020  -1.01889
 Alpha  occ. eigenvalues --   -0.91955  -0.91474  -0.89376  -0.89120  -0.89055
 Alpha  occ. eigenvalues --   -0.88630  -0.88091  -0.87894  -0.87742  -0.87578
 Alpha  occ. eigenvalues --   -0.87381  -0.87119  -0.87000  -0.86686  -0.84910
 Alpha  occ. eigenvalues --   -0.84456  -0.83774  -0.83597  -0.82803  -0.82577
 Alpha  occ. eigenvalues --   -0.82473  -0.82154  -0.81648  -0.81175  -0.80413
 Alpha  occ. eigenvalues --   -0.80122  -0.78539  -0.78235  -0.77054  -0.76881
 Alpha  occ. eigenvalues --   -0.76756  -0.76487  -0.75817  -0.75464  -0.74730
 Alpha  occ. eigenvalues --   -0.74501  -0.72616  -0.72281  -0.71514  -0.71204
 Alpha  occ. eigenvalues --   -0.69784  -0.69426  -0.68747  -0.68369  -0.67539
 Alpha  occ. eigenvalues --   -0.67153  -0.67091  -0.66671  -0.65216  -0.64773
 Alpha  occ. eigenvalues --   -0.64733  -0.64598  -0.64395  -0.64204  -0.64069
 Alpha  occ. eigenvalues --   -0.63828  -0.62345  -0.61913  -0.60229  -0.59920
 Alpha  occ. eigenvalues --   -0.59709  -0.59259  -0.58927  -0.58512  -0.58389
 Alpha  occ. eigenvalues --   -0.58032  -0.57639  -0.57158  -0.57157  -0.56873
 Alpha  occ. eigenvalues --   -0.56174  -0.55937  -0.55820  -0.55579  -0.55429
 Alpha  occ. eigenvalues --   -0.55235  -0.55027  -0.54989  -0.54484  -0.54154
 Alpha  occ. eigenvalues --   -0.53824  -0.53351  -0.53151  -0.53119  -0.52869
 Alpha  occ. eigenvalues --   -0.52837  -0.52715  -0.52549  -0.52469  -0.52302
 Alpha  occ. eigenvalues --   -0.52193  -0.52099  -0.51856  -0.51573  -0.51477
 Alpha  occ. eigenvalues --   -0.51177  -0.51064  -0.50756  -0.50332  -0.49989
 Alpha  occ. eigenvalues --   -0.49878  -0.49784  -0.49570  -0.49415  -0.49385
 Alpha  occ. eigenvalues --   -0.49170  -0.49091  -0.49019  -0.48729  -0.48621
 Alpha  occ. eigenvalues --   -0.48559  -0.48351  -0.48234  -0.48176  -0.48069
 Alpha  occ. eigenvalues --   -0.47951  -0.47526  -0.47228  -0.47035  -0.46795
 Alpha  occ. eigenvalues --   -0.46631  -0.46488  -0.46345  -0.46207  -0.46070
 Alpha  occ. eigenvalues --   -0.46022  -0.45880  -0.45829  -0.45738  -0.45419
 Alpha  occ. eigenvalues --   -0.45141  -0.44782  -0.44518  -0.44384  -0.44168
 Alpha  occ. eigenvalues --   -0.44133  -0.44030  -0.43976  -0.43860  -0.43720
 Alpha  occ. eigenvalues --   -0.43649  -0.43608  -0.43517  -0.43316  -0.43095
 Alpha  occ. eigenvalues --   -0.43038  -0.42898  -0.42861  -0.42583  -0.42446
 Alpha  occ. eigenvalues --   -0.42341  -0.42298  -0.41867  -0.41656  -0.41603
 Alpha  occ. eigenvalues --   -0.41368  -0.41236  -0.41049  -0.40920  -0.40672
 Alpha  occ. eigenvalues --   -0.40615  -0.40579  -0.40418  -0.40372  -0.40328
 Alpha  occ. eigenvalues --   -0.40157  -0.40099  -0.39618  -0.39486  -0.38752
 Alpha  occ. eigenvalues --   -0.38220  -0.38054  -0.37565  -0.37239  -0.37173
 Alpha  occ. eigenvalues --   -0.37110  -0.36917  -0.36851  -0.36725  -0.36352
 Alpha  occ. eigenvalues --   -0.36121  -0.35759  -0.34198  -0.34024  -0.33772
 Alpha  occ. eigenvalues --   -0.33387  -0.33089  -0.32670  -0.31156  -0.30898
 Alpha  occ. eigenvalues --   -0.30884  -0.30527  -0.30081  -0.29593  -0.29249
 Alpha  occ. eigenvalues --   -0.29144  -0.28910  -0.28794  -0.23942  -0.23549
 Alpha  occ. eigenvalues --   -0.21018  -0.20594
 Alpha virt. eigenvalues --   -0.08706  -0.08235  -0.01573  -0.01238   0.00061
 Alpha virt. eigenvalues --    0.00471   0.02209   0.02640   0.02779   0.04569
 Alpha virt. eigenvalues --    0.04707   0.04976   0.05183   0.05471   0.05835

 Mulliken charges:
               1
     1  Mg   0.842568
     2  C   -0.002150
     3  C   -0.086331
     4  C   -0.048590
     5  C   -0.065293
     6  N   -0.256950
     7  C   -0.050767
     8  C   -0.015602
     9  C   -0.088726
    10  C    0.051044
    11  C    0.105118
    12  C    0.051456
    13  C   -0.069790
    14  H    0.029266
    15  N   -0.433370
    16  C    0.173384
    17  C   -0.171274
    18  C   -0.005141
    19  C    0.149931
    20  C    0.109141
    21  C    0.010208
    22  O   -0.253192
    23  C    0.058367
    24  N   -0.341130
    25  C    0.042386
    26  C   -0.029488
    27  C   -0.024918
    28  C    0.073715
    29  C    0.076953
    30  C    0.047670
    31  C   -0.031975
    32  N   -0.309892
    33  C    0.079190
    34  C   -0.171328
    35  C    0.007331
    36  C    0.082090
    37  C    0.127712
    38  C    0.044902
    39  O   -0.191291
    40  C   -0.005389
    41  C    0.212796
    42  O   -0.257356
    43  O   -0.304724
    44  C    0.158880
    45  H   -0.018467
    46  H   -0.019176
    47  H   -0.043390
    48  H   -0.001553
    49  H   -0.003439
    50  H    0.024499
    51  H    0.015963
    52  H    0.015298
    53  H    0.026194
    54  H    0.043842
    55  H    0.015859
    56  H    0.015397
    57  H    0.005625
    58  H    0.023479
    59  H    0.052213
    60  H    0.037227
    61  H    0.032950
    62  H    0.040426
    63  H    0.015246
    64  H    0.008716
    65  H    0.021493
    66  H    0.012857
    67  H    0.004271
    68  H    0.003716
    69  H    0.002647
    70  H    0.026084
    71  H    0.025046
    72  H    0.032256
    73  H    0.045901
    74  H    0.008103
    75  H    0.044754
    76  H    0.034120
    77  H    0.041471
    78  H    0.046157
    79  H    0.051750
    80  Mg   0.840621
    81  C   -0.017119
    82  C   -0.086928
    83  C   -0.045350
    84  C   -0.064880
    85  N   -0.254937
    86  C   -0.048674
    87  C   -0.016126
    88  C   -0.090951
    89  C    0.047364
    90  C    0.114453
    91  C    0.062247
    92  C   -0.077146
    93  H    0.032430
    94  N   -0.423597
    95  C    0.164962
    96  C   -0.173725
    97  C   -0.006890
    98  C    0.152907
    99  C    0.099397
   100  C    0.016402
   101  O   -0.253316
   102  C    0.060593
   103  N   -0.350166
   104  C    0.037993
   105  C   -0.020419
   106  C   -0.033461
   107  C    0.088283
   108  C    0.073914
   109  C    0.038739
   110  C   -0.011488
   111  N   -0.323718
   112  C    0.076927
   113  C   -0.162872
   114  C    0.000058
   115  C    0.096022
   116  C    0.132938
   117  C    0.041404
   118  O   -0.194608
   119  C    0.001284
   120  C    0.210798
   121  O   -0.250950
   122  O   -0.304755
   123  C    0.153107
   124  H   -0.019746
   125  H   -0.015567
   126  H   -0.039084
   127  H   -0.002067
   128  H   -0.003767
   129  H    0.021853
   130  H    0.014430
   131  H    0.016074
   132  H    0.018201
   133  H    0.038643
   134  H    0.019493
   135  H    0.020422
   136  H    0.008886
   137  H    0.025790
   138  H    0.041865
   139  H    0.037871
   140  H    0.036384
   141  H    0.035884
   142  H    0.014491
   143  H    0.011977
   144  H    0.024781
   145  H    0.011318
   146  H    0.005615
   147  H    0.004019
   148  H    0.003676
   149  H    0.009264
   150  H    0.014296
   151  H    0.029224
   152  H    0.039787
   153  H    0.014092
   154  H    0.045695
   155  H    0.034797
   156  H    0.042399
   157  H    0.051433
   158  H    0.049829
 Sum of Mulliken charges =  -0.00000

 Dipole moment (field-independent basis, Debye):
    X=             -1.3932    Y=             -3.2691    Z=             -2.5141  Tot=              4.3530
 Quadrupole moment (field-independent basis, Debye-Ang):
   XX=           -479.4774   YY=           -463.7900   ZZ=           -540.7723
   XY=             13.4361   XZ=            -11.4320   YZ=             15.3545

 Normal termination of Gaussian 16 at Wed Sep  8 20:13:40 2021.
