 Gaussian 16, Revision A.03,
 Gaussian 16:  ES64L-G16RevA.03 25-Dec-2016

 -----------------------------------
 #p cam-b3lyp/Def2SVP td=(nstates=5)
 -----------------------------------

 --------------------------------
 TDDFT excited states in gaussian
 --------------------------------
 Symbolic Z-matrix:
 Charge =  0 Multiplicity = 1

                         Standard orientation:
 ---------------------------------------------------------------------
 Center     Atomic      Atomic             Coordinates (Angstroms)
 Number     Number       Type             X           Y           Z
 ---------------------------------------------------------------------
      1         12           0        6.609984   -0.622312    0.555450
      2          6           0        7.006795    1.998209   -1.850298
      3          6           0        7.276502    1.695401    2.969374
      4          6           0        6.713729   -2.997424    2.654188
      5          6           0        7.099713   -2.886187   -2.048527
      6          7           0        7.066145    1.541263    0.448176
      7          6           0        7.129121    2.438636   -0.530561
      8          6           0        7.262023    3.903817   -0.017770
      9          6           0        7.897798    3.612372    1.415007
     10          6           0        7.353222    2.213200    1.642336
     11          6           0        9.421793    3.550528    1.404154
     12          6           0        5.874396    4.618615    0.105867
     13          6           0        5.935858    6.138463    0.283734
     14          1           0        4.905734    6.958283   -0.336014
     15          7           0        6.463702   -0.598554    2.525447
     16          6           0        6.761386    0.436525    3.347203
     17          6           0        6.487158   -0.040777    4.719669
     18          6           0        6.187215   -1.497590    4.643356
     19          6           0        6.472231   -1.765082    3.256781
     20          6           0        6.477795    0.858953    5.917228
     21          6           0        5.728226   -2.493171    5.661334
     22          8           0        5.751923   -3.752197    5.440276
     23          6           0        5.328052   -1.953990    6.973655
     24          7           0        7.086286   -2.647630    0.385568
     25          6           0        6.995066   -3.468559    1.437583
     26          6           0        7.107125   -4.905038    1.020557
     27          6           0        7.050977   -4.907742   -0.575248
     28          6           0        6.995301   -3.378327   -0.812014
     29          6           0        8.370379   -5.641035    1.488006
     30          6           0        5.969735   -5.796751   -1.239326
     31          6           0        4.594623   -5.245242   -0.936008
     32          7           0        6.811509   -0.507923   -1.602638
     33          6           0        7.030958   -1.574243   -2.486650
     34          6           0        7.206620   -0.992491   -3.830069
     35          6           0        7.092911    0.381920   -3.630296
     36          6           0        6.887086    0.643838   -2.245620
     37          6           0        7.495545   -1.716381   -5.020422
     38          6           0        7.121983    1.691648   -4.260872
     39          8           0        7.169152    2.092944   -5.424585
     40          6           0        7.189066    2.797226   -3.116747
     41          6           0        6.161781    3.847940   -3.439231
     42          8           0        4.942710    3.583830   -3.400799
     43          8           0        6.759284    5.047421   -3.508344
     44          6           0        5.790801    6.138868   -3.796331
     45          1           0        7.701853    2.278178    3.788757
     46          1           0        6.647864   -3.854555    3.327558
     47          1           0        7.171977   -3.536124   -2.922490
     48          1           0        7.934821    4.530909   -0.603025
     49          1           0        7.518183    4.294884    2.175132
     50          1           0        9.814854    3.588890    0.388304
     51          1           0        9.677952    2.601665    1.875889
     52          1           0        9.845506    4.326431    2.042292
     53          1           0        5.409462    4.339809    1.051469
     54          1           0        5.240496    4.381033   -0.749149
     55          1           0        6.926816    6.527576    0.048144
     56          1           0        5.800595    6.364290    1.341518
     57          1           0        6.896051    1.837805    5.686022
     58          1           0        7.170710    0.431760    6.641854
     59          1           0        5.485614    0.940748    6.361322
     60          1           0        6.168586   -1.416781    7.413495
     61          1           0        4.945025   -2.800525    7.542441
     62          1           0        4.536986   -1.218078    6.826694
     63          1           0        6.274711   -5.490869    1.408261
     64          1           0        7.986404   -5.252190   -1.016842
     65          1           0        8.163600   -6.539061    2.070670
     66          1           0        8.979321   -4.938089    2.055763
     67          1           0        9.055367   -5.925591    0.689735
     68          1           0        6.007102   -6.806780   -0.832642
     69          1           0        6.078461   -5.870699   -2.321435
     70          1           0        4.375971   -5.663027    0.046071
     71          1           0        3.873725   -5.592035   -1.677124
     72          1           0        4.615027   -4.160289   -0.831379
     73          1           0        6.858573   -1.293136   -5.797016
     74          1           0        7.307758   -2.782050   -4.891239
     75          1           0        8.554887   -1.490764   -5.141864
     76          1           0        8.202081    3.198239   -3.127355
     77          1           0        6.145369    6.655546   -4.688273
     78          1           0        5.696865    6.719898   -2.878733
     79          1           0        4.796731    5.828286   -4.119909
     80         12           0       -6.564794   -0.662190   -0.558438
     81          6           0       -7.221504    1.888560    1.879077
     82          6           0       -7.026580    1.719514   -2.956110
     83          6           0       -6.437166   -2.968760   -2.733488
     84          6           0       -7.279466   -3.013184    1.912955
     85          7           0       -7.055786    1.490664   -0.430304
     86          6           0       -7.221449    2.364379    0.551285
     87          6           0       -7.316821    3.842610    0.087297
     88          6           0       -7.815515    3.590400   -1.418213
     89          6           0       -7.236747    2.193991   -1.636709
     90          6           0       -9.327498    3.505999   -1.545180
     91          6           0       -5.926610    4.569519    0.117722
     92          6           0       -5.993554    6.091679   -0.024802
     93          1           0       -5.029965    6.902969    0.713959
     94          7           0       -6.227299   -0.568106   -2.511847
     95          6           0       -6.450564    0.484445   -3.326441
     96          6           0       -6.058476    0.041144   -4.673253
     97          6           0       -5.740979   -1.411619   -4.615000
     98          6           0       -6.151844   -1.717084   -3.259281
     99          6           0       -5.936752    0.982259   -5.836388
    100          6           0       -5.174751   -2.370410   -5.618152
    101          8           0       -5.205281   -3.637876   -5.429957
    102          6           0       -4.667935   -1.787200   -6.868955
    103          7           0       -7.024908   -2.688614   -0.493313
    104          6           0       -6.828754   -3.476855   -1.564813
    105          6           0       -6.967167   -4.935988   -1.201254
    106          6           0       -7.058850   -4.974223    0.394906
    107          6           0       -7.046727   -3.457380    0.685482
    108          6           0       -8.174982   -5.658460   -1.797578
    109          6           0       -6.035932   -5.877204    1.137161
    110          6           0       -4.641221   -5.316246    0.977534
    111          7           0       -6.965359   -0.614791    1.564150
    112          6           0       -7.264704   -1.712581    2.400408
    113          6           0       -7.573698   -1.168818    3.738792
    114          6           0       -7.454193    0.220209    3.581266
    115          6           0       -7.115756    0.522089    2.234476
    116          6           0       -7.956650   -1.931057    4.878294
    117          6           0       -7.547795    1.500346    4.245478
    118          8           0       -7.716675    1.865423    5.408200
    119          6           0       -7.525205    2.644737    3.142638
    120          6           0       -6.543280    3.695412    3.583568
    121          8           0       -5.330126    3.433398    3.662404
    122          8           0       -7.164744    4.887926    3.629123
    123          6           0       -6.228980    5.964184    4.050812
    124          1           0       -7.373375    2.331778   -3.789038
    125          1           0       -6.299349   -3.809847   -3.416911
    126          1           0       -7.416038   -3.686987    2.761486
    127          1           0       -8.042903    4.441277    0.624129
    128          1           0       -7.366822    4.301218   -2.107246
    129          1           0       -9.813721    3.511712   -0.580964
    130          1           0       -9.527751    2.577903   -2.064390
    131          1           0       -9.695980    4.302261   -2.198264
    132          1           0       -5.371768    4.319514   -0.795730
    133          1           0       -5.382063    4.313324    1.005671
    134          1           0       -7.010735    6.475014    0.121329
    135          1           0       -5.754014    6.354340   -1.058066
    136          1           0       -6.393451    1.955062   -5.616210
    137          1           0       -6.549890    0.571312   -6.645744
    138          1           0       -4.908371    1.084950   -6.189293
    139          1           0       -5.468504   -1.242606   -7.363885
    140          1           0       -4.223046   -2.618260   -7.419670
    141          1           0       -3.892590   -1.052856   -6.623600
    142          1           0       -6.096359   -5.497441   -1.516783
    143          1           0       -8.033116   -5.352164    0.738134
    144          1           0       -7.900181   -6.548319   -2.394830
    145          1           0       -8.731378   -4.952980   -2.400280
    146          1           0       -8.921357   -5.984125   -1.075033
    147          1           0       -6.021276   -6.876093    0.694279
    148          1           0       -6.251936   -5.996470    2.193622
    149          1           0       -4.330017   -5.702454    0.002301
    150          1           0       -3.990015   -5.677169    1.771075
    151          1           0       -4.662562   -4.222499    0.907397
    152          1           0       -7.407571   -1.530160    5.719897
    153          1           0       -7.750405   -2.989818    4.736008
    154          1           0       -9.029372   -1.721336    4.901706
    155          1           0       -8.538319    3.040149    3.060041
    156          1           0       -6.676262    6.453367    4.921628
    157          1           0       -6.065719    6.587402    3.151535
    158          1           0       -5.266339    5.664149    4.448007
 ---------------------------------------------------------------------

 SCF Done:  E(RCAM-B3LYP) =  -4069.81198523     A.U. after   19 cycles

 Excitation energies and oscillator strengths:

 Excited State   1:      Singlet-A      1.6660 eV  744.20 nm  f=0.0113  <S**2>=0.000
     309 -> 315        0.10983
     310 -> 316        0.13193
     311 -> 313        0.52864
     312 -> 314        0.43815
 This state for optimization and/or second-order correction.
 Total Energy, E(TD-HF/TD-DFT) =  -4069.75076049
 Copying the excited state density for this state as the 1-particle RhoCI density.

 Excited State   2:      Singlet-A      1.6894 eV  733.91 nm  f=0.7339  <S**2>=0.000
     309 -> 315        0.13709
     310 -> 316       -0.11312
     311 -> 313       -0.43728
     312 -> 314        0.52748

 Excited State   3:      Singlet-A      2.1860 eV  567.16 nm  f=0.0424  <S**2>=0.000
     309 -> 314       -0.19624
     310 -> 313        0.61231
     311 -> 316       -0.25966

 Excited State   4:      Singlet-A      2.1938 eV  565.17 nm  f=0.1471  <S**2>=0.000
     309 -> 314        0.61002
     310 -> 313        0.19477
     312 -> 315       -0.26577

 Excited State   5:      Singlet-A      2.7146 eV  456.73 nm  f=0.0000  <S**2>=0.000
     312 -> 313        0.70709

 The electronic state is 1-A.
 Alpha  occ. eigenvalues --  -46.87683 -46.87562 -19.26321 -19.26247 -19.19123
 Alpha  occ. eigenvalues --  -19.18974 -19.18679 -19.18588 -19.18089 -19.17982
 Alpha  occ. eigenvalues --  -14.42402 -14.42340 -14.41338 -14.41266 -14.39286
 Alpha  occ. eigenvalues --  -14.39250 -14.38506 -14.38479 -10.39050 -10.39030
 Alpha  occ. eigenvalues --  -10.35309 -10.35262 -10.34311 -10.34161 -10.31750
 Alpha  occ. eigenvalues --  -10.31665 -10.31304 -10.31223 -10.30924 -10.30798
 Alpha  occ. eigenvalues --  -10.30464 -10.30398 -10.30304 -10.30270 -10.30088
 Alpha  occ. eigenvalues --  -10.30039 -10.29817 -10.29809 -10.29519 -10.29332
 Alpha  occ. eigenvalues --  -10.29302 -10.29136 -10.28653 -10.28636 -10.28586
 Alpha  occ. eigenvalues --  -10.28459 -10.28308 -10.28255 -10.28056 -10.28019
 Alpha  occ. eigenvalues --  -10.27907 -10.27685 -10.27617 -10.27572 -10.27466
 Alpha  occ. eigenvalues --  -10.27432 -10.27393 -10.27390 -10.27361 -10.27343
 Alpha  occ. eigenvalues --  -10.27335 -10.27321 -10.27300 -10.27293 -10.27083
 Alpha  occ. eigenvalues --  -10.26987 -10.26608 -10.26605 -10.26245 -10.26241
 Alpha  occ. eigenvalues --  -10.26146 -10.26067 -10.26051 -10.25952 -10.25908
 Alpha  occ. eigenvalues --  -10.25841 -10.25785 -10.25760 -10.25338 -10.25325
 Alpha  occ. eigenvalues --  -10.24783 -10.24730 -10.24678 -10.24633 -10.24597
 Alpha  occ. eigenvalues --  -10.24556  -3.16426  -3.16312  -1.91307  -1.91194
 Alpha  occ. eigenvalues --   -1.90894  -1.90783  -1.90736  -1.90620  -1.16613
 Alpha  occ. eigenvalues --   -1.16593  -1.08595  -1.08552  -1.07079  -1.06908
 Alpha  occ. eigenvalues --   -1.06839  -1.06596  -1.04473  -1.04401  -1.03650
 Alpha  occ. eigenvalues --   -1.03567  -1.03123  -1.02944  -1.02301  -1.02017
 Alpha  occ. eigenvalues --   -0.91903  -0.91875  -0.89409  -0.89405  -0.89090
 Alpha  occ. eigenvalues --   -0.89067  -0.88178  -0.88133  -0.87771  -0.87710
 Alpha  occ. eigenvalues --   -0.87591  -0.87565  -0.87143  -0.86997  -0.84912
 Alpha  occ. eigenvalues --   -0.84881  -0.83830  -0.83792  -0.82832  -0.82809
 Alpha  occ. eigenvalues --   -0.82556  -0.82545  -0.81533  -0.81510  -0.80499
 Alpha  occ. eigenvalues --   -0.80360  -0.78678  -0.78528  -0.77112  -0.77054
 Alpha  occ. eigenvalues --   -0.76846  -0.76825  -0.75835  -0.75762  -0.74797
 Alpha  occ. eigenvalues --   -0.74722  -0.72668  -0.72609  -0.71572  -0.71497
 Alpha  occ. eigenvalues --   -0.69794  -0.69669  -0.68770  -0.68738  -0.67535
 Alpha  occ. eigenvalues --   -0.67511  -0.67111  -0.67101  -0.65190  -0.65189
 Alpha  occ. eigenvalues --   -0.64758  -0.64687  -0.64575  -0.64524  -0.64161
 Alpha  occ. eigenvalues --   -0.64117  -0.62228  -0.62220  -0.60319  -0.60230
 Alpha  occ. eigenvalues --   -0.59708  -0.59703  -0.58907  -0.58885  -0.58403
 Alpha  occ. eigenvalues --   -0.58342  -0.57507  -0.57491  -0.57205  -0.57145
 Alpha  occ. eigenvalues --   -0.56206  -0.56115  -0.55912  -0.55824  -0.55407
 Alpha  occ. eigenvalues --   -0.55358  -0.55248  -0.55173  -0.54441  -0.54420
 Alpha  occ. eigenvalues --   -0.53827  -0.53797  -0.53189  -0.53135  -0.53114
 Alpha  occ. eigenvalues --   -0.53051  -0.52825  -0.52823  -0.52630  -0.52544
 Alpha  occ. eigenvalues --   -0.52325  -0.52313  -0.51824  -0.51812  -0.51563
 Alpha  occ. eigenvalues --   -0.51512  -0.51123  -0.51102  -0.50427  -0.50340
 Alpha  occ. eigenvalues --   -0.49917  -0.49879  -0.49798  -0.49773  -0.49406
 Alpha  occ. eigenvalues --   -0.49384  -0.49114  -0.49113  -0.49026  -0.49004
 Alpha  occ. eigenvalues --   -0.48507  -0.48484  -0.48363  -0.48326  -0.48299
 Alpha  occ. eigenvalues --   -0.48225  -0.47588  -0.47502  -0.47188  -0.47021
 Alpha  occ. eigenvalues --   -0.46693  -0.46623  -0.46466  -0.46458  -0.46254
 Alpha  occ. eigenvalues --   -0.46180  -0.46069  -0.46009  -0.45758  -0.45744
 Alpha  occ. eigenvalues --   -0.45124  -0.45095  -0.44491  -0.44439  -0.44389
 Alpha  occ. eigenvalues --   -0.44387  -0.44044  -0.44037  -0.43990  -0.43987
 Alpha  occ. eigenvalues --   -0.43914  -0.43833  -0.43493  -0.43417  -0.43303
 Alpha  occ. eigenvalues --   -0.43282  -0.42928  -0.42875  -0.42824  -0.42638
 Alpha  occ. eigenvalues --   -0.42551  -0.42459  -0.41906  -0.41878  -0.41606
 Alpha  occ. eigenvalues --   -0.41589  -0.41434  -0.41372  -0.41040  -0.40905
 Alpha  occ. eigenvalues --   -0.40766  -0.40693  -0.40627  -0.40589  -0.40466
 Alpha  occ. eigenvalues --   -0.40409  -0.40132  -0.40131  -0.39335  -0.39324
 Alpha  occ. eigenvalues --   -0.38362  -0.38265  -0.37653  -0.37572  -0.37212
 Alpha  occ. eigenvalues --   -0.37178  -0.37163  -0.37110  -0.36724  -0.36649
 Alpha  occ. eigenvalues --   -0.36141  -0.36105  -0.34179  -0.34163  -0.33814
 Alpha  occ. eigenvalues --   -0.33713  -0.33084  -0.33081  -0.31211  -0.31150
 Alpha  occ. eigenvalues --   -0.30928  -0.30880  -0.29951  -0.29889  -0.29332
 Alpha  occ. eigenvalues --   -0.29222  -0.29216  -0.29119  -0.23972  -0.23943
 Alpha  occ. eigenvalues --   -0.21021  -0.21017
 Alpha virt. eigenvalues --   -0.08694  -0.08662  -0.01636  -0.01586   0.00062
 Alpha virt. eigenvalues --    0.00080   0.02290   0.02297   0.03262   0.03350
 Alpha virt. eigenvalues --    0.04816   0.04820   0.05153   0.05210   0.06252

 Mulliken charges:
               1
     1  Mg   0.839308
     2  C   -0.003012
     3  C   -0.093819
     4  C   -0.045798
     5  C   -0.063937
     6  N   -0.256795
     7  C   -0.052525
     8  C   -0.014077
     9  C   -0.087072
    10  C    0.046495
    11  C    0.104829
    12  C    0.053358
    13  C   -0.071603
    14  H    0.035452
    15  N   -0.433198
    16  C    0.168763
    17  C   -0.176744
    18  C   -0.003683
    19  C    0.148935
    20  C    0.110104
    21  C    0.012677
    22  O   -0.249715
    23  C    0.062200
    24  N   -0.341183
    25  C    0.041343
    26  C   -0.028174
    27  C   -0.023904
    28  C    0.074802
    29  C    0.076233
    30  C    0.035144
    31  C   -0.004549
    32  N   -0.310360
    33  C    0.080269
    34  C   -0.169939
    35  C    0.008049
    36  C    0.082905
    37  C    0.127394
    38  C    0.045797
    39  O   -0.189277
    40  C   -0.005278
    41  C    0.212733
    42  O   -0.257328
    43  O   -0.304698
    44  C    0.157988
    45  H   -0.017588
    46  H   -0.016819
    47  H   -0.041668
    48  H    0.000587
    49  H   -0.003857
    50  H    0.025286
    51  H    0.016463
    52  H    0.016558
    53  H    0.011976
    54  H    0.043942
    55  H    0.017587
    56  H    0.018293
    57  H    0.005842
    58  H    0.026700
    59  H    0.040742
    60  H    0.037116
    61  H    0.035798
    62  H    0.032697
    63  H    0.016657
    64  H    0.009218
    65  H    0.023133
    66  H    0.012472
    67  H    0.004589
    68  H    0.006170
    69  H    0.004615
    70  H    0.008768
    71  H    0.018508
    72  H    0.029147
    73  H    0.047070
    74  H    0.009128
    75  H    0.045740
    76  H    0.034948
    77  H    0.042520
    78  H    0.046515
    79  H    0.053037
    80  Mg   0.838295
    81  C   -0.016864
    82  C   -0.087415
    83  C   -0.045438
    84  C   -0.064900
    85  N   -0.254545
    86  C   -0.049921
    87  C   -0.015204
    88  C   -0.090576
    89  C    0.045927
    90  C    0.114397
    91  C    0.062396
    92  C   -0.077684
    93  H    0.034201
    94  N   -0.423556
    95  C    0.163382
    96  C   -0.174150
    97  C   -0.007396
    98  C    0.152330
    99  C    0.099281
   100  C    0.016011
   101  O   -0.253374
   102  C    0.060828
   103  N   -0.350061
   104  C    0.037618
   105  C   -0.019843
   106  C   -0.034728
   107  C    0.088827
   108  C    0.073739
   109  C    0.034783
   110  C   -0.007696
   111  N   -0.323955
   112  C    0.078226
   113  C   -0.163417
   114  C    0.001957
   115  C    0.096115
   116  C    0.131570
   117  C    0.042077
   118  O   -0.188673
   119  C    0.000991
   120  C    0.211136
   121  O   -0.251184
   122  O   -0.305571
   123  C    0.152291
   124  H   -0.019599
   125  H   -0.015586
   126  H   -0.040718
   127  H   -0.001008
   128  H   -0.004091
   129  H    0.022256
   130  H    0.014419
   131  H    0.016184
   132  H    0.014807
   133  H    0.037513
   134  H    0.020465
   135  H    0.019961
   136  H    0.008729
   137  H    0.025992
   138  H    0.041384
   139  H    0.038008
   140  H    0.036529
   141  H    0.035493
   142  H    0.014451
   143  H    0.012146
   144  H    0.025027
   145  H    0.011589
   146  H    0.005483
   147  H    0.006019
   148  H    0.003478
   149  H    0.010910
   150  H    0.018087
   151  H    0.030341
   152  H    0.045548
   153  H    0.008429
   154  H    0.046641
   155  H    0.034789
   156  H    0.043491
   157  H    0.049573
   158  H    0.053035
 Sum of Mulliken charges =  -0.00000

 Dipole moment (field-independent basis, Debye):
    X=              0.4326    Y=              3.0980    Z=              0.0663  Tot=              3.1288
 Quadrupole moment (field-independent basis, Debye-Ang):
   XX=           -478.9196   YY=           -460.6632   ZZ=           -537.2029
   XY=              1.6898   XZ=             54.9476   YZ=              1.3707

 Normal termination of Gaussian 16 at Sat Sep 11 06:32:52 2021.
