 Gaussian 16, Revision A.03,
 Gaussian 16:  ES64L-G16RevA.03 25-Dec-2016

 -----------------------------------
 #p cam-b3lyp/Def2SVP td=(nstates=5)
 -----------------------------------

 --------------------------------
 TDDFT excited states in gaussian
 --------------------------------
 Symbolic Z-matrix:
 Charge =  0 Multiplicity = 1

                         Standard orientation:
 ---------------------------------------------------------------------
 Center     Atomic      Atomic             Coordinates (Angstroms)
 Number     Number       Type             X           Y           Z
 ---------------------------------------------------------------------
      1         12           0        6.301270   -1.151081    0.385211
      2          6           0        6.793868    2.211867   -0.737349
      3          6           0        7.075950   -0.059064    3.523751
      4          6           0        6.317366   -4.181947    1.318064
      5          6           0        6.683066   -2.156996   -2.929609
      6          7           0        6.846216    0.846777    1.167670
      7          6           0        6.941248    2.064807    0.643701
      8          6           0        7.137488    3.182850    1.710867
      9          6           0        7.768101    2.304551    2.882582
     10          6           0        7.167151    0.956369    2.525948
     11          6           0        9.288141    2.198388    2.813959
     12          6           0        5.781369    3.832198    2.147925
     13          6           0        5.906749    5.140543    2.933970
     14          1           0        4.908295    6.179030    2.729074
     15          7           0        6.166390   -1.935836    2.193198
     16          6           0        6.511040   -1.342561    3.361327
     17          6           0        6.224422   -2.332796    4.421500
     18          6           0        5.863914   -3.617085    3.759134
     19          6           0        6.130344   -3.299553    2.379436
     20          6           0        6.258641   -2.006633    5.883073
     21          6           0        5.369347   -4.926583    4.287103
     22          8           0        5.339645   -5.982693    3.567156
     23          6           0        4.998742   -4.962047    5.713439
     24          7           0        6.692259   -2.942113   -0.613272
     25          6           0        6.572561   -4.119724    0.009535
     26          6           0        6.622760   -5.259818   -0.963915
     27          6           0        6.558214   -4.602838   -2.417862
     28          6           0        6.564790   -3.110785   -2.003128
     29          6           0        7.856821   -6.167551   -0.868395
     30          6           0        5.437573   -5.100146   -3.365105
     31          6           0        4.088124   -4.673943   -2.831782
     32          7           0        6.496093   -0.165023   -1.538530
     33          6           0        6.666502   -0.779529   -2.787536
     34          6           0        6.859125    0.297355   -3.776114
     35          6           0        6.803569    1.470500   -3.026121
     36          6           0        6.616020    1.145852   -1.652177
     37          6           0        7.111554    0.118359   -5.164881
     38          6           0        6.883649    2.921749   -3.062456
     39          8           0        6.941345    3.764874   -3.958729
     40          6           0        7.002508    3.454624   -1.566547
     41          6           0        6.018020    4.580770   -1.405648
     42          8           0        4.789260    4.367922   -1.452664
     43          8           0        6.664394    5.680066   -0.988166
     44          6           0        5.740526    6.826992   -0.780359
     45          1           0        7.529382    0.118820    4.500837
     46          1           0        6.219522   -5.237427    1.580410
     47          1           0        6.723744   -2.391281   -3.994930
     48          1           0        7.832652    3.970944    1.420907
     49          1           0        7.421097    2.626350    3.864293
     50          1           0        9.677144    2.637816    1.895536
     51          1           0        9.507181    1.130976    2.847803
     52          1           0        9.747000    2.626840    3.705393
     53          1           0        5.310215    3.205350    2.904983
     54          1           0        5.133702    3.990727    1.284952
     55          1           0        6.911750    5.556563    2.857753
     56          1           0        5.786495    4.915192    3.993666
     57          1           0        6.715927   -1.035051    6.066000
     58          1           0        6.937016   -2.718822    6.352439
     59          1           0        5.273040   -2.079750    6.343048
     60          1           0        5.863120   -4.684089    6.316877
     61          1           0        4.583906   -5.953489    5.891778
     62          1           0        4.238125   -4.203260    5.899591
     63          1           0        5.768798   -5.923269   -0.833495
     64          1           0        7.476229   -4.767873   -2.982385
     65          1           0        7.616016   -7.217874   -0.702446
     66          1           0        8.497354   -5.783133   -0.075153
     67          1           0        8.525238   -6.122182   -1.727800
     68          1           0        5.435136   -6.188650   -3.410921
     69          1           0        5.537485   -4.725543   -4.383899
     70          1           0        3.857463   -5.451137   -2.104048
     71          1           0        3.349601   -4.658674   -3.634005
     72          1           0        4.154060   -3.729931   -2.290505
     73          1           0        6.488639    0.846370   -5.684445
     74          1           0        6.880402   -0.898454   -5.481523
     75          1           0        8.178694    0.336052   -5.205850
     76          1           0        8.031216    3.788004   -1.433351
     77          1           0        6.111558    7.652247   -1.388243
     78          1           0        5.675565    6.981332    0.296843
     79          1           0        4.732753    6.712951   -1.181266
     80         12           0       -6.884332   -0.257684   -0.359560
     81          6           0       -4.634484    2.537830   -0.408747
     82          6           0       -8.205715    1.047149    2.501557
     83          6           0       -8.569721   -2.926745   -0.038651
     84          6           0       -4.681201   -1.890969   -2.509985
     85          7           0       -6.398554    1.563159    0.798380
     86          6           0       -5.565623    2.582229    0.649770
     87          6           0       -5.793938    3.750158    1.646444
     88          6           0       -6.516385    2.926546    2.820584
     89          6           0       -7.110878    1.789788    1.991715
     90          6           0       -5.543265    2.328483    3.822937
     91          6           0       -6.735142    4.860529    1.060596
     92          6           0       -6.754431    6.170324    1.851687
     93          1           0       -6.890678    7.425109    1.117235
     94          7           0       -8.505674   -0.630472    0.722495
     95          6           0       -8.902304    0.011009    1.841624
     96          6           0      -10.144022   -0.653104    2.267370
     97          6           0      -10.359425   -1.844333    1.401758
     98          6           0       -9.115208   -1.858854    0.658924
     99          6           0      -11.033473   -0.102392    3.343943
    100          6           0      -11.491768   -2.817822    1.273896
    101          8           0      -11.365607   -3.916003    0.625126
    102          6           0      -12.722817   -2.491665    2.008479
    103          7           0       -6.560134   -2.213722   -0.984960
    104          6           0       -7.476372   -3.171984   -0.760989
    105          6           0       -7.154179   -4.426799   -1.536880
    106          6           0       -5.958159   -4.028276   -2.520901
    107          6           0       -5.726035   -2.572435   -2.060430
    108          6           0       -6.742824   -5.638601   -0.700988
    109          6           0       -6.172741   -4.299240   -4.035231
    110          6           0       -7.255703   -3.392109   -4.573472
    111          7           0       -5.095323    0.271456   -1.449303
    112          6           0       -4.316200   -0.572230   -2.271041
    113          6           0       -3.136703    0.206679   -2.700594
    114          6           0       -3.301029    1.451904   -2.075368
    115          6           0       -4.487962    1.442544   -1.293969
    116          6           0       -2.075935   -0.273400   -3.519374
    117          6           0       -2.734758    2.768627   -1.890221
    118          8           0       -1.782642    3.380485   -2.372768
    119          6           0       -3.506973    3.488298   -0.701882
    120          6           0       -3.861963    4.878541   -1.153231
    121          8           0       -4.666598    5.054400   -2.085032
    122          8           0       -3.364718    5.767630   -0.274236
    123          6           0       -3.700269    7.160558   -0.672959
    124          1           0       -8.538350    1.246651    3.520591
    125          1           0       -9.170761   -3.838933   -0.049902
    126          1           0       -3.998381   -2.296543   -3.259613
    127          1           0       -4.888009    4.212519    2.019643
    128          1           0       -7.305086    3.511875    3.286112
    129          1           0       -4.516626    2.456957    3.513700
    130          1           0       -5.791654    1.276920    3.882643
    131          1           0       -5.728862    2.739046    4.819598
    132          1           0       -7.779674    4.548501    1.188301
    133          1           0       -6.494660    5.061501    0.034721
    134          1           0       -5.925505    6.231922    2.567254
    135          1           0       -7.650187    6.184690    2.477319
    136          1           0      -10.533420    0.692049    3.911577
    137          1           0      -11.185064   -0.904177    4.074714
    138          1           0      -12.005923    0.217960    2.963962
    139          1           0      -12.497569   -2.400869    3.068427
    140          1           0      -13.445818   -3.257839    1.721899
    141          1           0      -13.078243   -1.509616    1.677019
    142          1           0       -8.004227   -4.745061   -2.127831
    143          1           0       -5.036963   -4.582266   -2.287800
    144          1           0       -7.380350   -6.525857   -0.875380
    145          1           0       -6.762367   -5.355597    0.343068
    146          1           0       -5.711885   -5.962428   -0.833309
    147          1           0       -6.519981   -5.323565   -4.191194
    148          1           0       -5.273843   -4.170030   -4.628771
    149          1           0       -8.175545   -3.923044   -4.310609
    150          1           0       -7.159720   -3.278702   -5.651414
    151          1           0       -7.265522   -2.433025   -4.042699
    152          1           0       -1.856571    0.508110   -4.234659
    153          1           0       -2.346253   -1.203154   -4.015621
    154          1           0       -1.298888   -0.421734   -2.764753
    155          1           0       -2.842883    3.495823    0.163281
    156          1           0       -2.756296    7.710427   -0.738105
    157          1           0       -4.439034    7.514383    0.070540
    158          1           0       -4.103447    7.313982   -1.667118
 ---------------------------------------------------------------------

 SCF Done:  E(RCAM-B3LYP) =  -4069.81071757     A.U. after   19 cycles

 Excitation energies and oscillator strengths:

 Excited State   1:      Singlet-A      1.6666 eV  743.95 nm  f=0.1595  <S**2>=0.000
     309 -> 315       -0.11114
     310 -> 316        0.13085
     311 -> 314       -0.44350
     312 -> 313        0.52403
 This state for optimization and/or second-order correction.
 Total Energy, E(TD-HF/TD-DFT) =  -4069.74947280
 Copying the excited state density for this state as the 1-particle RhoCI density.

 Excited State   2:      Singlet-A      1.6889 eV  734.10 nm  f=0.6051  <S**2>=0.000
     309 -> 315        0.13528
     310 -> 316        0.11395
     311 -> 314        0.52297
     312 -> 313        0.44277

 Excited State   3:      Singlet-A      2.1853 eV  567.35 nm  f=0.0187  <S**2>=0.000
     309 -> 314       -0.29445
     310 -> 313        0.57166
     311 -> 315        0.12440
     312 -> 316       -0.24244

 Excited State   4:      Singlet-A      2.1930 eV  565.36 nm  f=0.1677  <S**2>=0.000
     309 -> 314        0.56921
     310 -> 313        0.29253
     311 -> 315       -0.24832
     312 -> 316       -0.12753

 Excited State   5:      Singlet-A      2.6712 eV  464.14 nm  f=0.0000  <S**2>=0.000
     311 -> 313        0.70672

 The electronic state is 1-A.
 Alpha  occ. eigenvalues --  -46.87647 -46.87518 -19.26160 -19.25987 -19.18967
 Alpha  occ. eigenvalues --  -19.18705 -19.18686 -19.18588 -19.17962 -19.17787
 Alpha  occ. eigenvalues --  -14.42363 -14.42301 -14.41310 -14.41218 -14.39258
 Alpha  occ. eigenvalues --  -14.39208 -14.38444 -14.38426 -10.38898 -10.38764
 Alpha  occ. eigenvalues --  -10.35342 -10.35269 -10.34178 -10.33970 -10.31586
 Alpha  occ. eigenvalues --  -10.31384 -10.31243 -10.31159 -10.30893 -10.30757
 Alpha  occ. eigenvalues --  -10.30409 -10.30357 -10.30241 -10.30198 -10.30089
 Alpha  occ. eigenvalues --  -10.30018 -10.29778 -10.29742 -10.29480 -10.29300
 Alpha  occ. eigenvalues --  -10.29243 -10.29119 -10.28605 -10.28584 -10.28565
 Alpha  occ. eigenvalues --  -10.28371 -10.28251 -10.28205 -10.28031 -10.27966
 Alpha  occ. eigenvalues --  -10.27830 -10.27636 -10.27584 -10.27534 -10.27441
 Alpha  occ. eigenvalues --  -10.27408 -10.27401 -10.27375 -10.27353 -10.27351
 Alpha  occ. eigenvalues --  -10.27336 -10.27315 -10.27254 -10.27241 -10.26939
 Alpha  occ. eigenvalues --  -10.26845 -10.26584 -10.26516 -10.26332 -10.26315
 Alpha  occ. eigenvalues --  -10.26119 -10.26100 -10.26032 -10.25942 -10.25884
 Alpha  occ. eigenvalues --  -10.25794 -10.25672 -10.25612 -10.25347 -10.25286
 Alpha  occ. eigenvalues --  -10.24696 -10.24666 -10.24647 -10.24644 -10.24625
 Alpha  occ. eigenvalues --  -10.24545  -3.16390  -3.16268  -1.91271  -1.91150
 Alpha  occ. eigenvalues --   -1.90858  -1.90739  -1.90700  -1.90575  -1.16452
 Alpha  occ. eigenvalues --   -1.16332  -1.08408  -1.08388  -1.07110  -1.06843
 Alpha  occ. eigenvalues --   -1.06747  -1.06318  -1.04428  -1.04356  -1.03619
 Alpha  occ. eigenvalues --   -1.03520  -1.03085  -1.02892  -1.02262  -1.01962
 Alpha  occ. eigenvalues --   -0.91820  -0.91797  -0.89400  -0.89358  -0.89036
 Alpha  occ. eigenvalues --   -0.89030  -0.88171  -0.88092  -0.87708  -0.87609
 Alpha  occ. eigenvalues --   -0.87545  -0.87526  -0.87148  -0.86987  -0.84875
 Alpha  occ. eigenvalues --   -0.84827  -0.83823  -0.83746  -0.82861  -0.82811
 Alpha  occ. eigenvalues --   -0.82525  -0.82494  -0.81430  -0.81381  -0.80426
 Alpha  occ. eigenvalues --   -0.80291  -0.78659  -0.78487  -0.77082  -0.77013
 Alpha  occ. eigenvalues --   -0.76771  -0.76764  -0.75749  -0.75696  -0.74769
 Alpha  occ. eigenvalues --   -0.74669  -0.72627  -0.72544  -0.71524  -0.71443
 Alpha  occ. eigenvalues --   -0.69813  -0.69638  -0.68722  -0.68697  -0.67488
 Alpha  occ. eigenvalues --   -0.67449  -0.67078  -0.67066  -0.65137  -0.65122
 Alpha  occ. eigenvalues --   -0.64690  -0.64625  -0.64510  -0.64457  -0.64143
 Alpha  occ. eigenvalues --   -0.64069  -0.62112  -0.62076  -0.60316  -0.60203
 Alpha  occ. eigenvalues --   -0.59666  -0.59648  -0.58843  -0.58834  -0.58344
 Alpha  occ. eigenvalues --   -0.58269  -0.57374  -0.57361  -0.57148  -0.57087
 Alpha  occ. eigenvalues --   -0.56157  -0.56049  -0.55751  -0.55728  -0.55378
 Alpha  occ. eigenvalues --   -0.55305  -0.55186  -0.55098  -0.54337  -0.54336
 Alpha  occ. eigenvalues --   -0.53793  -0.53733  -0.53161  -0.53083  -0.53067
 Alpha  occ. eigenvalues --   -0.53000  -0.52755  -0.52727  -0.52625  -0.52551
 Alpha  occ. eigenvalues --   -0.52332  -0.52276  -0.51741  -0.51676  -0.51531
 Alpha  occ. eigenvalues --   -0.51456  -0.51031  -0.51028  -0.50470  -0.50360
 Alpha  occ. eigenvalues --   -0.49928  -0.49859  -0.49791  -0.49738  -0.49365
 Alpha  occ. eigenvalues --   -0.49358  -0.49053  -0.49045  -0.48943  -0.48937
 Alpha  occ. eigenvalues --   -0.48414  -0.48399  -0.48336  -0.48283  -0.48234
 Alpha  occ. eigenvalues --   -0.48176  -0.47550  -0.47457  -0.47153  -0.46984
 Alpha  occ. eigenvalues --   -0.46657  -0.46572  -0.46432  -0.46394  -0.46214
 Alpha  occ. eigenvalues --   -0.46126  -0.45993  -0.45927  -0.45644  -0.45628
 Alpha  occ. eigenvalues --   -0.45082  -0.45077  -0.44398  -0.44380  -0.44375
 Alpha  occ. eigenvalues --   -0.44319  -0.44019  -0.43983  -0.43942  -0.43940
 Alpha  occ. eigenvalues --   -0.43844  -0.43777  -0.43398  -0.43298  -0.43244
 Alpha  occ. eigenvalues --   -0.43241  -0.42870  -0.42773  -0.42721  -0.42574
 Alpha  occ. eigenvalues --   -0.42426  -0.42408  -0.41875  -0.41835  -0.41539
 Alpha  occ. eigenvalues --   -0.41487  -0.41382  -0.41336  -0.40994  -0.40851
 Alpha  occ. eigenvalues --   -0.40735  -0.40706  -0.40604  -0.40582  -0.40445
 Alpha  occ. eigenvalues --   -0.40363  -0.40119  -0.40072  -0.39356  -0.39308
 Alpha  occ. eigenvalues --   -0.38352  -0.38229  -0.37585  -0.37536  -0.37194
 Alpha  occ. eigenvalues --   -0.37135  -0.37099  -0.37065  -0.36598  -0.36483
 Alpha  occ. eigenvalues --   -0.36072  -0.35985  -0.34132  -0.34104  -0.33677
 Alpha  occ. eigenvalues --   -0.33471  -0.33027  -0.33016  -0.31234  -0.31148
 Alpha  occ. eigenvalues --   -0.30881  -0.30829  -0.29817  -0.29690  -0.29306
 Alpha  occ. eigenvalues --   -0.29177  -0.29155  -0.29030  -0.23927  -0.23890
 Alpha  occ. eigenvalues --   -0.20981  -0.20971
 Alpha virt. eigenvalues --   -0.08637  -0.08625  -0.01610  -0.01546   0.00082
 Alpha virt. eigenvalues --    0.00115   0.02374   0.02405   0.03284   0.03357
 Alpha virt. eigenvalues --    0.04855   0.04868   0.05362   0.05390   0.06291

 Mulliken charges:
               1
     1  Mg   0.839022
     2  C   -0.001934
     3  C   -0.094235
     4  C   -0.046221
     5  C   -0.064339
     6  N   -0.256646
     7  C   -0.052280
     8  C   -0.014021
     9  C   -0.086961
    10  C    0.046264
    11  C    0.104917
    12  C    0.053438
    13  C   -0.071580
    14  H    0.036487
    15  N   -0.432996
    16  C    0.168197
    17  C   -0.177507
    18  C   -0.004400
    19  C    0.148544
    20  C    0.110325
    21  C    0.011937
    22  O   -0.250188
    23  C    0.062638
    24  N   -0.341115
    25  C    0.041014
    26  C   -0.028009
    27  C   -0.023966
    28  C    0.074915
    29  C    0.076288
    30  C    0.035246
    31  C   -0.004414
    32  N   -0.310803
    33  C    0.080930
    34  C   -0.169125
    35  C    0.008939
    36  C    0.083856
    37  C    0.127013
    38  C    0.047576
    39  O   -0.187344
    40  C   -0.005834
    41  C    0.212333
    42  O   -0.253443
    43  O   -0.305678
    44  C    0.157175
    45  H   -0.018044
    46  H   -0.017385
    47  H   -0.041679
    48  H    0.000933
    49  H   -0.004430
    50  H    0.025446
    51  H    0.016224
    52  H    0.016215
    53  H    0.010794
    54  H    0.046029
    55  H    0.017489
    56  H    0.017096
    57  H    0.005622
    58  H    0.026398
    59  H    0.038875
    60  H    0.037220
    61  H    0.035132
    62  H    0.031165
    63  H    0.016003
    64  H    0.009372
    65  H    0.022793
    66  H    0.012578
    67  H    0.004554
    68  H    0.005922
    69  H    0.004821
    70  H    0.008283
    71  H    0.017137
    72  H    0.029629
    73  H    0.048802
    74  H    0.008744
    75  H    0.045732
    76  H    0.034626
    77  H    0.042361
    78  H    0.045392
    79  H    0.056138
    80  Mg   0.837409
    81  C   -0.016728
    82  C   -0.087989
    83  C   -0.045671
    84  C   -0.065039
    85  N   -0.254419
    86  C   -0.049977
    87  C   -0.014941
    88  C   -0.090448
    89  C    0.045494
    90  C    0.114489
    91  C    0.062619
    92  C   -0.077591
    93  H    0.034768
    94  N   -0.423392
    95  C    0.162578
    96  C   -0.175041
    97  C   -0.008135
    98  C    0.151868
    99  C    0.099542
   100  C    0.015325
   101  O   -0.253575
   102  C    0.061299
   103  N   -0.350046
   104  C    0.037295
   105  C   -0.019697
   106  C   -0.034853
   107  C    0.089177
   108  C    0.073741
   109  C    0.034779
   110  C   -0.007622
   111  N   -0.324305
   112  C    0.078639
   113  C   -0.163282
   114  C    0.003330
   115  C    0.096007
   116  C    0.132020
   117  C    0.042958
   118  O   -0.183052
   119  C    0.000586
   120  C    0.211897
   121  O   -0.251265
   122  O   -0.305549
   123  C    0.152132
   124  H   -0.020292
   125  H   -0.015938
   126  H   -0.040408
   127  H   -0.000773
   128  H   -0.004711
   129  H    0.022319
   130  H    0.014272
   131  H    0.015473
   132  H    0.013816
   133  H    0.037954
   134  H    0.020383
   135  H    0.019237
   136  H    0.008346
   137  H    0.025612
   138  H    0.039391
   139  H    0.038005
   140  H    0.036027
   141  H    0.033764
   142  H    0.014148
   143  H    0.012386
   144  H    0.024812
   145  H    0.011541
   146  H    0.005629
   147  H    0.005964
   148  H    0.003567
   149  H    0.010781
   150  H    0.017806
   151  H    0.030320
   152  H    0.047509
   153  H    0.007534
   154  H    0.048200
   155  H    0.035574
   156  H    0.044112
   157  H    0.048594
   158  H    0.053712
 Sum of Mulliken charges =  -0.00000

 Dipole moment (field-independent basis, Debye):
    X=              0.1687    Y=             -0.0522    Z=              7.9260  Tot=              7.9279
 Quadrupole moment (field-independent basis, Debye-Ang):
   XX=           -482.0167   YY=           -509.7142   ZZ=           -483.4296
   XY=            -24.3185   XZ=             -1.7270   YZ=             59.2041

 Normal termination of Gaussian 16 at Sat Sep 11 13:00:21 2021.
