 Gaussian 16, Revision A.03,
 Gaussian 16:  ES64L-G16RevA.03 25-Dec-2016

 -----------------------------------
 #p cam-b3lyp/Def2SVP td=(nstates=5)
 -----------------------------------

 --------------------------------
 TDDFT excited states in gaussian
 --------------------------------
 Symbolic Z-matrix:
 Charge =  0 Multiplicity = 1

                         Standard orientation:
 ---------------------------------------------------------------------
 Center     Atomic      Atomic             Coordinates (Angstroms)
 Number     Number       Type             X           Y           Z
 ---------------------------------------------------------------------
      1         12           0       -3.891429   -0.718824   -0.552940
      2          6           0       -4.485363    1.824137    1.895081
      3          6           0       -4.486719    1.647260   -2.938384
      4          6           0       -3.820088   -3.037243   -2.715454
      5          6           0       -4.461961   -3.064670    1.960456
      6          7           0       -4.408745    1.429157   -0.414340
      7          6           0       -4.547712    2.297503    0.582572
      8          6           0       -4.690763    3.772514    0.101683
      9          6           0       -5.240536    3.505021   -1.370797
     10          6           0       -4.648338    2.126390   -1.604462
     11          6           0       -6.760776    3.405561   -1.444823
     12          6           0       -3.317518    4.524239    0.072715
     13          6           0       -3.408745    6.046435   -0.068536
     14          1           0       -2.435193    6.873936    0.627730
     15          7           0       -3.639752   -0.637404   -2.510714
     16          6           0       -3.919452    0.412240   -3.320222
     17          6           0       -3.559282   -0.020330   -4.687643
     18          6           0       -3.226161   -1.470899   -4.633090
     19          6           0       -3.578519   -1.783269   -3.271603
     20          6           0       -3.508697    0.911902   -5.859025
     21          6           0       -2.687224   -2.426602   -5.650101
     22          8           0       -2.690107   -3.691425   -5.463586
     23          6           0       -2.230976   -1.841942   -6.924091
     24          7           0       -4.323444   -2.759110   -0.462219
     25          6           0       -4.154316   -3.548361   -1.528738
     26          6           0       -4.251366   -4.998064   -1.156070
     27          6           0       -4.281336   -5.043207    0.439805
     28          6           0       -4.278251   -3.519965    0.719075
     29          6           0       -5.468023   -5.751696   -1.710863
     30          6           0       -3.214771   -5.923341    1.138535
     31          6           0       -1.840085   -5.330167    0.925273
     32          7           0       -4.211984   -0.668709    1.593167
     33          6           0       -4.451036   -1.763960    2.435755
     34          6           0       -4.713963   -1.223796    3.782291
     35          6           0       -4.625374    0.157957    3.624948
     36          6           0       -4.352022    0.462763    2.260887
     37          6           0       -5.047786   -1.986963    4.935795
     38          6           0       -4.722423    1.448770    4.286946
     39          8           0       -4.842708    1.816685    5.456417
     40          6           0       -4.756377    2.583370    3.170095
     41          6           0       -3.775618    3.649700    3.575511
     42          8           0       -2.549802    3.416710    3.596848
     43          8           0       -4.406928    4.831823    3.643149
     44          6           0       -3.484062    5.938365    4.011982
     45          1           0       -4.882239    2.241714   -3.764295
     46          1           0       -3.695756   -3.873688   -3.406351
     47          1           0       -4.564364   -3.739936    2.811915
     48          1           0       -5.410212    4.366617    0.665473
     49          1           0       -4.838320    4.217249   -2.090989
     50          1           0       -7.208929    3.406368   -0.451304
     51          1           0       -6.966386    2.464014   -1.954437
     52          1           0       -7.169454    4.188073   -2.084694
     53          1           0       -2.795166    4.282985   -0.853030
     54          1           0       -2.724710    4.278882    0.954591
     55          1           0       -4.420739    6.404522    0.122644
     56          1           0       -3.222525    6.304469   -1.111101
     57          1           0       -3.964096    1.873488   -5.625554
     58          1           0       -4.150184    0.487909   -6.631315
     59          1           0       -2.496463    1.030159   -6.245974
     60          1           0       -3.060225   -1.313625   -7.395023
     61          1           0       -1.795968   -2.662896   -7.492996
     62          1           0       -1.468368   -1.091171   -6.714993
     63          1           0       -3.384317   -5.552446   -1.512876
     64          1           0       -5.229962   -5.422479    0.820509
     65          1           0       -5.206861   -6.628045   -2.304590
     66          1           0       -6.063500   -5.048564   -2.292504
     67          1           0       -6.187456   -6.074770   -0.958895
     68          1           0       -3.203902   -6.922435    0.704208
     69          1           0       -3.379757   -6.029618    2.210792
     70          1           0       -1.557997   -5.715342   -0.053961
     71          1           0       -1.151455   -5.679403    1.695360
     72          1           0       -1.882984   -4.243577    0.848024
     73          1           0       -4.464842   -1.569713    5.756800
     74          1           0       -4.825691   -3.043759    4.789307
     75          1           0       -6.117637   -1.790803    5.005036
     76          1           0       -5.778561    2.958985    3.135811
     77          1           0       -3.899530    6.421509    4.896398
     78          1           0       -3.355883    6.546499    3.116354
     79          1           0       -2.501166    5.643478    4.381163
     80         12           0        3.961104   -0.564645    0.547565
     81          6           0        4.221263    2.059204   -1.886929
     82          6           0        4.689435    1.771461    2.923851
     83          6           0        4.183654   -2.924279    2.657080
     84          6           0        4.387270   -2.837126   -2.060106
     85          7           0        4.380276    1.602886    0.412097
     86          6           0        4.390729    2.503514   -0.559037
     87          6           0        4.514133    3.972447   -0.072651
     88          6           0        5.218553    3.698237    1.344200
     89          6           0        4.707271    2.282214    1.601385
     90          6           0        6.735303    3.651019    1.263085
     91          6           0        3.116276    4.662730    0.104879
     92          6           0        3.166805    6.182361    0.277900
     93          1           0        2.093253    6.984944   -0.301599
     94          7           0        3.890230   -0.525494    2.530491
     95          6           0        4.197786    0.513180    3.335377
     96          6           0        4.002778    0.028094    4.710450
     97          6           0        3.713947   -1.430806    4.656666
     98          6           0        3.943635   -1.693314    3.250101
     99          6           0        4.018608    0.938061    5.904244
    100          6           0        3.311634   -2.427588    5.701069
    101          8           0        3.345565   -3.689027    5.476473
    102          6           0        2.966238   -1.887586    7.024165
    103          7           0        4.454772   -2.576066    0.366315
    104          6           0        4.424359   -3.394200    1.432926
    105          6           0        4.545725   -4.840199    1.014885
    106          6           0        4.420423   -4.838457   -0.579443
    107          6           0        4.333879   -3.316061   -0.824820
    108          6           0        5.839757   -5.544193    1.422648
    109          6           0        3.327223   -5.750568   -1.200457
    110          6           0        1.954573   -5.230707   -0.838548
    111          7           0        4.068191   -0.456775   -1.607651
    112          6           0        4.276344   -1.526280   -2.505937
    113          6           0        4.387882   -0.943202   -3.858712
    114          6           0        4.258850    0.438078   -3.649182
    115          6           0        4.099774    0.699137   -2.261364
    116          6           0        4.629862   -1.668014   -5.059632
    117          6           0        4.231701    1.735511   -4.285293
    118          8           0        4.232479    2.132159   -5.449941
    119          6           0        4.332824    2.852659   -3.159175
    120          6           0        3.276071    3.886985   -3.434768
    121          8           0        2.069841    3.594811   -3.355736
    122          8           0        3.857864    5.096303   -3.531926
    123          6           0        2.848857    6.156978   -3.794024
    124          1           0        5.132004    2.372955    3.718343
    125          1           0        4.159484   -3.784556    3.329991
    126          1           0        4.422743   -3.486932   -2.937125
    127          1           0        5.146473    4.602617   -0.686500
    128          1           0        4.851402    4.380518    2.106471
    129          1           0        7.085662    3.692283    0.242450
    130          1           0        7.025665    2.716614    1.725281
    131          1           0        7.170659    4.441211    1.881468
    132          1           0        2.696694    4.376692    1.077952
    133          1           0        2.462135    4.413123   -0.707783
    134          1           0        4.145544    6.595877    0.005836
    135          1           0        3.063957    6.414217    1.340764
    136          1           0        4.418549    1.927544    5.650516
    137          1           0        4.745398    0.524613    6.611835
    138          1           0        3.045649    1.005114    6.395690
    139          1           0        3.813868   -1.333729    7.420679
    140          1           0        2.619666   -2.742866    7.607479
    141          1           0        2.147994   -1.168502    6.905828
    142          1           0        3.739088   -5.431817    1.430138
    143          1           0        5.347445   -5.182253   -1.061383
    144          1           0        5.669329   -6.454814    2.027451
    145          1           0        6.456476   -4.838558    1.963262
    146          1           0        6.488290   -5.832862    0.597263
    147          1           0        3.395979   -6.759632   -0.786688
    148          1           0        3.400301   -5.839195   -2.279252
    149          1           0        1.787846   -5.647852    0.159092
    150          1           0        1.210053   -5.590033   -1.546087
    151          1           0        1.959996   -4.138736   -0.742566
    152          1           0        3.962362   -1.262156   -5.808108
    153          1           0        4.469386   -2.734937   -4.919268
    154          1           0        5.684311   -1.429426   -5.222343
    155          1           0        5.338362    3.272752   -3.203832
    156          1           0        3.162188    6.678191   -4.703883
    157          1           0        2.795017    6.754332   -2.864500
    158          1           0        1.848345    5.840932   -4.065223
 ---------------------------------------------------------------------

 SCF Done:  E(RCAM-B3LYP) =  -4069.81297627     A.U. after   18 cycles

 Excitation energies and oscillator strengths:

 Excited State   1:      Singlet-A      1.6403 eV  755.87 nm  f=0.0058  <S**2>=0.000
     309 -> 315        0.12087
     310 -> 316        0.11184
     311 -> 313        0.50544
     312 -> 314       -0.46707
 This state for optimization and/or second-order correction.
 Total Energy, E(TD-HF/TD-DFT) =  -4069.75269718
 Copying the excited state density for this state as the 1-particle RhoCI density.

 Excited State   2:      Singlet-A      1.7102 eV  724.99 nm  f=0.6808  <S**2>=0.000
     309 -> 315        0.12379
     310 -> 316       -0.13429
     311 -> 313        0.46411
     312 -> 314        0.50223

 Excited State   3:      Singlet-A      2.1820 eV  568.21 nm  f=0.0112  <S**2>=0.000
     309 -> 313        0.54646
     310 -> 314       -0.34310
     311 -> 315       -0.22711
     312 -> 316       -0.14142

 Excited State   4:      Singlet-A      2.1985 eV  563.94 nm  f=0.1593  <S**2>=0.000
     309 -> 313        0.33833
     310 -> 314        0.54114
     311 -> 315       -0.15052
     312 -> 316        0.23922

 Excited State   5:      Singlet-A      2.3678 eV  523.63 nm  f=0.0000  <S**2>=0.000
     312 -> 313        0.70709

 The electronic state is 1-A.
 Alpha  occ. eigenvalues --  -46.87502 -46.87474 -19.26420 -19.26234 -19.19219
 Alpha  occ. eigenvalues --  -19.18953 -19.18494 -19.18491 -19.17976 -19.17970
 Alpha  occ. eigenvalues --  -14.42307 -14.42156 -14.41182 -14.41165 -14.39151
 Alpha  occ. eigenvalues --  -14.39091 -14.38431 -14.38310 -10.39132 -10.38998
 Alpha  occ. eigenvalues --  -10.35161 -10.35120 -10.34195 -10.34158 -10.31893
 Alpha  occ. eigenvalues --  -10.31696 -10.31147 -10.31134 -10.30829 -10.30605
 Alpha  occ. eigenvalues --  -10.30285 -10.30236 -10.30229 -10.30191 -10.29931
 Alpha  occ. eigenvalues --  -10.29897 -10.29747 -10.29677 -10.29342 -10.29224
 Alpha  occ. eigenvalues --  -10.29219 -10.28932 -10.28565 -10.28561 -10.28487
 Alpha  occ. eigenvalues --  -10.28363 -10.28227 -10.28071 -10.27975 -10.27847
 Alpha  occ. eigenvalues --  -10.27825 -10.27500 -10.27471 -10.27420 -10.27347
 Alpha  occ. eigenvalues --  -10.27318 -10.27267 -10.27265 -10.27253 -10.27232
 Alpha  occ. eigenvalues --  -10.27231 -10.27137 -10.27134 -10.27002 -10.26987
 Alpha  occ. eigenvalues --  -10.26979 -10.26512 -10.26419 -10.26097 -10.26003
 Alpha  occ. eigenvalues --  -10.25984 -10.25951 -10.25939 -10.25891 -10.25749
 Alpha  occ. eigenvalues --  -10.25741 -10.25727 -10.25629 -10.25277 -10.25244
 Alpha  occ. eigenvalues --  -10.24714 -10.24560 -10.24523 -10.24522 -10.24516
 Alpha  occ. eigenvalues --  -10.24425  -3.16244  -3.16223  -1.91126  -1.91105
 Alpha  occ. eigenvalues --   -1.90713  -1.90694  -1.90555  -1.90531  -1.16709
 Alpha  occ. eigenvalues --   -1.16577  -1.08605  -1.08446  -1.06999  -1.06898
 Alpha  occ. eigenvalues --   -1.06743  -1.06573  -1.04311  -1.04290  -1.03479
 Alpha  occ. eigenvalues --   -1.03476  -1.02942  -1.02859  -1.02126  -1.01935
 Alpha  occ. eigenvalues --   -0.91847  -0.91721  -0.89323  -0.89257  -0.88989
 Alpha  occ. eigenvalues --   -0.88923  -0.88056  -0.88035  -0.87646  -0.87609
 Alpha  occ. eigenvalues --   -0.87502  -0.87382  -0.86911  -0.86874  -0.84839
 Alpha  occ. eigenvalues --   -0.84718  -0.83727  -0.83700  -0.82709  -0.82636
 Alpha  occ. eigenvalues --   -0.82473  -0.82375  -0.81531  -0.81410  -0.80348
 Alpha  occ. eigenvalues --   -0.80311  -0.78469  -0.78427  -0.76974  -0.76947
 Alpha  occ. eigenvalues --   -0.76786  -0.76719  -0.75716  -0.75696  -0.74671
 Alpha  occ. eigenvalues --   -0.74653  -0.72529  -0.72498  -0.71432  -0.71421
 Alpha  occ. eigenvalues --   -0.69676  -0.69560  -0.68668  -0.68608  -0.67445
 Alpha  occ. eigenvalues --   -0.67374  -0.67015  -0.66936  -0.65128  -0.65033
 Alpha  occ. eigenvalues --   -0.64639  -0.64619  -0.64516  -0.64380  -0.64048
 Alpha  occ. eigenvalues --   -0.64006  -0.62227  -0.62141  -0.60129  -0.60122
 Alpha  occ. eigenvalues --   -0.59630  -0.59532  -0.58841  -0.58731  -0.58288
 Alpha  occ. eigenvalues --   -0.58251  -0.57497  -0.57408  -0.57073  -0.57053
 Alpha  occ. eigenvalues --   -0.56062  -0.56053  -0.55822  -0.55820  -0.55305
 Alpha  occ. eigenvalues --   -0.55229  -0.55142  -0.55123  -0.54401  -0.54342
 Alpha  occ. eigenvalues --   -0.53754  -0.53634  -0.53067  -0.53032  -0.53000
 Alpha  occ. eigenvalues --   -0.52939  -0.52772  -0.52696  -0.52422  -0.52407
 Alpha  occ. eigenvalues --   -0.52225  -0.52187  -0.51772  -0.51685  -0.51482
 Alpha  occ. eigenvalues --   -0.51333  -0.51078  -0.50964  -0.50204  -0.50171
 Alpha  occ. eigenvalues --   -0.49785  -0.49748  -0.49687  -0.49609  -0.49309
 Alpha  occ. eigenvalues --   -0.49241  -0.49049  -0.48979  -0.48953  -0.48859
 Alpha  occ. eigenvalues --   -0.48452  -0.48385  -0.48267  -0.48242  -0.48137
 Alpha  occ. eigenvalues --   -0.48131  -0.47440  -0.47414  -0.47009  -0.46936
 Alpha  occ. eigenvalues --   -0.46562  -0.46528  -0.46397  -0.46308  -0.46116
 Alpha  occ. eigenvalues --   -0.46085  -0.45957  -0.45931  -0.45740  -0.45635
 Alpha  occ. eigenvalues --   -0.45064  -0.44953  -0.44409  -0.44370  -0.44312
 Alpha  occ. eigenvalues --   -0.44212  -0.44007  -0.43920  -0.43894  -0.43844
 Alpha  occ. eigenvalues --   -0.43741  -0.43732  -0.43503  -0.43314  -0.43242
 Alpha  occ. eigenvalues --   -0.43124  -0.42904  -0.42782  -0.42767  -0.42587
 Alpha  occ. eigenvalues --   -0.42421  -0.42354  -0.41811  -0.41758  -0.41541
 Alpha  occ. eigenvalues --   -0.41460  -0.41303  -0.41283  -0.40889  -0.40839
 Alpha  occ. eigenvalues --   -0.40615  -0.40553  -0.40500  -0.40489  -0.40341
 Alpha  occ. eigenvalues --   -0.40324  -0.40040  -0.39953  -0.39390  -0.39032
 Alpha  occ. eigenvalues --   -0.38220  -0.38189  -0.37522  -0.37503  -0.37110
 Alpha  occ. eigenvalues --   -0.37050  -0.37033  -0.36997  -0.36777  -0.36593
 Alpha  occ. eigenvalues --   -0.36088  -0.35981  -0.34098  -0.34013  -0.33875
 Alpha  occ. eigenvalues --   -0.33667  -0.33002  -0.32909  -0.31057  -0.31031
 Alpha  occ. eigenvalues --   -0.30802  -0.30761  -0.29890  -0.29838  -0.29145
 Alpha  occ. eigenvalues --   -0.29137  -0.29037  -0.29033  -0.23861  -0.23797
 Alpha  occ. eigenvalues --   -0.20931  -0.20834
 Alpha virt. eigenvalues --   -0.08606  -0.08474  -0.01496  -0.01459   0.00174
 Alpha virt. eigenvalues --    0.00255   0.02313   0.02406   0.02500   0.04521
 Alpha virt. eigenvalues --    0.04841   0.04993   0.05142   0.05199   0.06044

 Mulliken charges:
               1
     1  Mg   0.839577
     2  C   -0.003147
     3  C   -0.090355
     4  C   -0.046532
     5  C   -0.063810
     6  N   -0.256848
     7  C   -0.052606
     8  C   -0.014392
     9  C   -0.087641
    10  C    0.047460
    11  C    0.104890
    12  C    0.052201
    13  C   -0.070589
    14  H    0.032218
    15  N   -0.433591
    16  C    0.170907
    17  C   -0.173766
    18  C   -0.003008
    19  C    0.149372
    20  C    0.109959
    21  C    0.012898
    22  O   -0.251530
    23  C    0.061004
    24  N   -0.341209
    25  C    0.041822
    26  C   -0.028160
    27  C   -0.023714
    28  C    0.074151
    29  C    0.076509
    30  C    0.036070
    31  C   -0.007750
    32  N   -0.310129
    33  C    0.079583
    34  C   -0.170654
    35  C    0.007313
    36  C    0.082273
    37  C    0.127718
    38  C    0.044765
    39  O   -0.191038
    40  C   -0.005081
    41  C    0.212723
    42  O   -0.258650
    43  O   -0.304310
    44  C    0.158641
    45  H   -0.017675
    46  H   -0.017722
    47  H   -0.042074
    48  H   -0.000308
    49  H   -0.003024
    50  H    0.024880
    51  H    0.016413
    52  H    0.016214
    53  H    0.017366
    54  H    0.042733
    55  H    0.016985
    56  H    0.018733
    57  H    0.005948
    58  H    0.025329
    59  H    0.046495
    60  H    0.036920
    61  H    0.034245
    62  H    0.037144
    63  H    0.015459
    64  H    0.008882
    65  H    0.022357
    66  H    0.012552
    67  H    0.004439
    68  H    0.004701
    69  H    0.004711
    70  H    0.009153
    71  H    0.021350
    72  H    0.029082
    73  H    0.045697
    74  H    0.009293
    75  H    0.045218
    76  H    0.034691
    77  H    0.042180
    78  H    0.046647
    79  H    0.051229
    80  Mg   0.838896
    81  C   -0.017168
    82  C   -0.085332
    83  C   -0.045732
    84  C   -0.064356
    85  N   -0.254748
    86  C   -0.049827
    87  C   -0.015509
    88  C   -0.091041
    89  C    0.046899
    90  C    0.114418
    91  C    0.061569
    92  C   -0.076871
    93  H    0.031439
    94  N   -0.423920
    95  C    0.165391
    96  C   -0.172380
    97  C   -0.006635
    98  C    0.152747
    99  C    0.099289
   100  C    0.016472
   101  O   -0.254363
   102  C    0.059975
   103  N   -0.350057
   104  C    0.037930
   105  C   -0.019887
   106  C   -0.034771
   107  C    0.088195
   108  C    0.073913
   109  C    0.036124
   110  C   -0.012098
   111  N   -0.323815
   112  C    0.077829
   113  C   -0.164127
   114  C    0.000920
   115  C    0.095679
   116  C    0.132039
   117  C    0.040682
   118  O   -0.190852
   119  C    0.001311
   120  C    0.210930
   121  O   -0.252824
   122  O   -0.304988
   123  C    0.153031
   124  H   -0.019616
   125  H   -0.016034
   126  H   -0.040555
   127  H   -0.001784
   128  H   -0.003436
   129  H    0.021935
   130  H    0.014432
   131  H    0.016008
   132  H    0.019157
   133  H    0.036410
   134  H    0.019967
   135  H    0.020614
   136  H    0.008843
   137  H    0.025159
   138  H    0.044923
   139  H    0.037759
   140  H    0.035704
   141  H    0.038446
   142  H    0.013833
   143  H    0.011947
   144  H    0.024555
   145  H    0.011571
   146  H    0.005455
   147  H    0.004809
   148  H    0.004012
   149  H    0.011326
   150  H    0.022674
   151  H    0.029992
   152  H    0.043422
   153  H    0.009369
   154  H    0.046313
   155  H    0.034714
   156  H    0.043202
   157  H    0.050059
   158  H    0.050656
 Sum of Mulliken charges =  -0.00000

 Dipole moment (field-independent basis, Debye):
    X=              0.3477    Y=              3.1862    Z=             -0.3208  Tot=              3.2211
 Quadrupole moment (field-independent basis, Debye-Ang):
   XX=           -493.0800   YY=           -462.5757   ZZ=           -536.9090
   XY=              1.6375   XZ=             33.9134   YZ=              1.6808

 Normal termination of Gaussian 16 at Wed Sep  8 18:41:57 2021.
