 Gaussian 16, Revision A.03,
 Gaussian 16:  ES64L-G16RevA.03 25-Dec-2016

 -----------------------------------
 #p cam-b3lyp/Def2SVP td=(nstates=5)
 -----------------------------------

 --------------------------------
 TDDFT excited states in gaussian
 --------------------------------
 Symbolic Z-matrix:
 Charge =  0 Multiplicity = 1

                         Standard orientation:
 ---------------------------------------------------------------------
 Center     Atomic      Atomic             Coordinates (Angstroms)
 Number     Number       Type             X           Y           Z
 ---------------------------------------------------------------------
      1         12           0        6.331009   -1.156247    0.307624
      2          6           0        6.799112    2.293330   -0.525149
      3          6           0        7.105064   -0.330310    3.526589
      4          6           0        6.369006   -4.255373    0.978890
      5          6           0        6.712468   -1.873595   -3.081412
      6          7           0        6.864435    0.771336    1.256584
      7          6           0        6.950351    2.030178    0.838128
      8          6           0        7.141465    3.054566    1.996350
      9          6           0        7.780299    2.083932    3.088028
     10          6           0        7.187488    0.767005    2.618769
     11          6           0        9.300858    1.994240    3.008289
     12          6           0        5.782022    3.655182    2.489204
     13          6           0        5.900437    4.892642    3.383644
     14          1           0        4.894743    5.938057    3.269478
     15          7           0        6.205087   -2.093025    2.042398
     16          6           0        6.548273   -1.599086    3.256290
     17          6           0        6.270400   -2.677924    4.228697
     18          6           0        5.916965   -3.903534    3.459894
     19          6           0        6.178406   -3.467861    2.111852
     20          6           0        6.305536   -2.477204    5.712687
     21          6           0        5.432133   -5.256541    3.875154
     22          8           0        5.407873   -6.247673    3.067910
     23          6           0        5.064760   -5.415851    5.293851
     24          7           0        6.731682   -2.853058   -0.840388
     25          6           0        6.621043   -4.080213   -0.319972
     26          6           0        6.676702   -5.132894   -1.387073
     27          6           0        6.604786   -4.354920   -2.779674
     28          6           0        6.602413   -2.903600   -2.239363
     29          6           0        7.916908   -6.037131   -1.371107
     30          6           0        5.485460   -4.777282   -3.764122
     31          6           0        4.134356   -4.407149   -3.194370
     32          7           0        6.515306   -0.008640   -1.525427
     33          6           0        6.687137   -0.513376   -2.822497
     34          6           0        6.870597    0.645064   -3.716045
     35          6           0        6.808894    1.749670   -2.868765
     36          6           0        6.626366    1.307929   -1.527183
     37          6           0        7.121287    0.586703   -5.115396
     38          6           0        6.879345    3.199247   -2.781471
     39          8           0        6.929613    4.116012   -3.602756
     40          6           0        6.997831    3.603570   -1.245792
     41          6           0        6.006293    4.705263   -0.988048
     42          8           0        4.778864    4.488922   -1.051146
     43          8           0        6.646292    5.769338   -0.479433
     44          6           0        5.715334    6.888149   -0.173274
     45          1           0        7.559362   -0.233240    4.514582
     46          1           0        6.278661   -5.329997    1.150525
     47          1           0        6.752453   -2.016017   -4.162878
     48          1           0        7.830819    3.869156    1.773512
     49          1           0        7.433244    2.318606    4.094111
     50          1           0        9.685035    2.512902    2.130041
     51          1           0        9.526989    0.929324    2.950752
     52          1           0        9.758755    2.348294    3.932276
     53          1           0        5.316591    2.962975    3.190834
     54          1           0        5.131519    3.882268    1.643861
     55          1           0        6.902516    5.320401    3.341606
     56          1           0        5.783890    4.577052    4.420476
     57          1           0        6.756801   -1.521674    5.977010
     58          1           0        6.989565   -3.222195    6.118644
     59          1           0        5.321404   -2.595867    6.166267
     60          1           0        5.928554   -5.184480    5.917451
     61          1           0        4.656833   -6.421651    5.387723
     62          1           0        4.299559   -4.680815    5.545122
     63          1           0        5.827400   -5.810778   -1.312336
     64          1           0        7.522682   -4.465088   -3.357604
     65          1           0        7.683368   -7.099369   -1.294861
     66          1           0        8.556559   -5.717364   -0.548983
     67          1           0        8.583209   -5.914232   -2.224545
     68          1           0        5.490090   -5.857921   -3.902486
     69          1           0        5.580769   -4.316606   -4.747455
     70          1           0        3.910340   -5.245035   -2.535132
     71          1           0        3.394069   -4.328585   -3.991248
     72          1           0        4.195213   -3.512244   -2.574751
     73          1           0        6.492507    1.352106   -5.570106
     74          1           0        6.896168   -0.400982   -5.517146
     75          1           0        8.186882    0.814277   -5.139304
     76          1           0        8.024599    3.931315   -1.086255
     77          1           0        6.079652    7.764659   -0.709218
     78          1           0        5.651617    6.949743    0.913258
     79          1           0        4.707495    6.801882   -0.580897
     80         12           0       -6.862318   -0.292186   -0.336953
     81          6           0       -4.905149    2.712507   -0.479702
     82          6           0       -7.774949    0.629888    2.817647
     83          6           0       -8.229520   -3.136484   -0.008083
     84          6           0       -4.932992   -1.508817   -2.971955
     85          7           0       -6.342136    1.466577    0.899340
     86          6           0       -5.638810    2.574011    0.716957
     87          6           0       -5.790759    3.626074    1.848159
     88          6           0       -6.224644    2.638794    3.038066
     89          6           0       -6.853481    1.519878    2.210256
     90          6           0       -5.044415    2.062136    3.802178
     91          6           0       -6.911663    4.679397    1.538186
     92          6           0       -6.906476    5.910419    2.447210
     93          1           0       -7.275960    7.201234    1.872975
     94          7           0       -8.232980   -0.916552    0.955336
     95          6           0       -8.483332   -0.413675    2.182408
     96          6           0       -9.570266   -1.233827    2.739246
     97          6           0       -9.828880   -2.365071    1.807513
     98          6           0       -8.735879   -2.191173    0.871981
     99          6           0      -10.303642   -0.867631    3.996827
    100          6           0      -10.877836   -3.434954    1.772449
    101          8           0      -10.771774   -4.457084    1.006397
    102          6           0      -11.986276   -3.297889    2.728518
    103          7           0       -6.483813   -2.146499   -1.197531
    104          6           0       -7.261046   -3.208382   -0.921441
    105          6           0       -6.971194   -4.355290   -1.860050
    106          6           0       -6.003010   -3.756870   -2.983478
    107          6           0       -5.821146   -2.328081   -2.425912
    108          6           0       -6.317928   -5.583854   -1.227382
    109          6           0       -6.452858   -3.922029   -4.460987
    110          6           0       -7.687021   -3.088590   -4.720967
    111          7           0       -5.342017    0.504892   -1.648976
    112          6           0       -4.647367   -0.184065   -2.667242
    113          6           0       -3.632047    0.743876   -3.206213
    114          6           0       -3.792330    1.909829   -2.442440
    115          6           0       -4.820386    1.714895   -1.480872
    116          6           0       -2.691984    0.443826   -4.232066
    117          6           0       -3.318418    3.257550   -2.223907
    118          8           0       -2.520930    4.001078   -2.793904
    119          6           0       -3.931972    3.793930   -0.859268
    120          6           0       -4.478635    5.173310   -1.106222
    121          8           0       -5.444875    5.342746   -1.870607
    122          8           0       -3.915112    6.032633   -0.237679
    123          6           0       -4.433795    7.412303   -0.435921
    124          1           0       -7.941706    0.709411    3.892240
    125          1           0       -8.742324   -4.101109   -0.010245
    126          1           0       -4.358149   -1.779252   -3.860266
    127          1           0       -4.877184    4.145882    2.110776
    128          1           0       -6.968171    3.100136    3.682806
    129          1           0       -4.101980    2.319725    3.342153
    130          1           0       -5.186894    0.989417    3.797738
    131          1           0       -5.089030    2.367747    4.851432
    132          1           0       -7.887294    4.253040    1.804853
    133          1           0       -6.871100    4.988039    0.511670
    134          1           0       -5.974437    5.996744    3.018867
    135          1           0       -7.677939    5.781577    3.210262
    136          1           0       -9.783201   -0.076082    4.549989
    137          1           0      -10.256306   -1.738410    4.659676
    138          1           0      -11.351245   -0.617726    3.815912
    139          1           0      -11.589236   -3.272644    3.740538
    140          1           0      -12.679103   -4.107402    2.490713
    141          1           0      -12.477287   -2.333131    2.558935
    142          1           0       -7.880164   -4.708517   -2.331316
    143          1           0       -5.010982   -4.231467   -2.961365
    144          1           0       -6.896988   -6.513972   -1.381144
    145          1           0       -6.180409   -5.391700   -0.171589
    146          1           0       -5.301532   -5.788847   -1.559206
    147          1           0       -6.732094   -4.959977   -4.658082
    148          1           0       -5.685141   -3.653203   -5.178857
    149          1           0       -8.497960   -3.730438   -4.363868
    150          1           0       -7.789679   -2.877177   -5.783417
    151          1           0       -7.687413   -2.182736   -4.103649
    152          1           0       -2.668377    1.300127   -4.892896
    153          1           0       -2.962966   -0.464370   -4.766412
    154          1           0       -1.785916    0.313522   -3.634278
    155          1           0       -3.131013    3.797471   -0.118971
    156          1           0       -3.566526    8.059017   -0.601108
    157          1           0       -5.060112    7.626241    0.450476
    158          1           0       -5.015067    7.605586   -1.329911
 ---------------------------------------------------------------------

 SCF Done:  E(RCAM-B3LYP) =  -4069.81102922     A.U. after   19 cycles

 Excitation energies and oscillator strengths:

 Excited State   1:      Singlet-A      1.6657 eV  744.34 nm  f=0.1032  <S**2>=0.000
     309 -> 315       -0.11167
     310 -> 316       -0.13012
     311 -> 313       -0.44600
     312 -> 314        0.52198
 This state for optimization and/or second-order correction.
 Total Energy, E(TD-HF/TD-DFT) =  -4069.74981623
 Copying the excited state density for this state as the 1-particle RhoCI density.

 Excited State   2:      Singlet-A      1.6897 eV  733.76 nm  f=0.6528  <S**2>=0.000
     309 -> 315        0.13499
     310 -> 316       -0.11473
     311 -> 313        0.52085
     312 -> 314        0.44519

 Excited State   3:      Singlet-A      2.1852 eV  567.37 nm  f=0.0251  <S**2>=0.000
     309 -> 313        0.26315
     310 -> 314        0.58673
     311 -> 315       -0.11104
     312 -> 316        0.24874

 Excited State   4:      Singlet-A      2.1932 eV  565.31 nm  f=0.1619  <S**2>=0.000
     309 -> 313        0.58428
     310 -> 314       -0.26126
     311 -> 315       -0.25485
     312 -> 316       -0.11414

 Excited State   5:      Singlet-A      2.6673 eV  464.84 nm  f=0.0000  <S**2>=0.000
     312 -> 313        0.70702

 The electronic state is 1-A.
 Alpha  occ. eigenvalues --  -46.87710 -46.87523 -19.26172 -19.26082 -19.18983
 Alpha  occ. eigenvalues --  -19.18798 -19.18755 -19.18595 -19.18030 -19.17817
 Alpha  occ. eigenvalues --  -14.42366 -14.42364 -14.41369 -14.41223 -14.39319
 Alpha  occ. eigenvalues --  -14.39214 -14.38491 -14.38450 -10.38912 -10.38871
 Alpha  occ. eigenvalues --  -10.35391 -10.35275 -10.34248 -10.33998 -10.31597
 Alpha  occ. eigenvalues --  -10.31469 -10.31309 -10.31164 -10.30897 -10.30822
 Alpha  occ. eigenvalues --  -10.30473 -10.30418 -10.30248 -10.30205 -10.30142
 Alpha  occ. eigenvalues --  -10.30022 -10.29836 -10.29748 -10.29541 -10.29305
 Alpha  occ. eigenvalues --  -10.29250 -10.29177 -10.28656 -10.28605 -10.28568
 Alpha  occ. eigenvalues --  -10.28450 -10.28270 -10.28257 -10.28032 -10.28032
 Alpha  occ. eigenvalues --  -10.27840 -10.27697 -10.27644 -10.27539 -10.27500
 Alpha  occ. eigenvalues --  -10.27451 -10.27428 -10.27404 -10.27395 -10.27360
 Alpha  occ. eigenvalues --  -10.27340 -10.27322 -10.27306 -10.27257 -10.27015
 Alpha  occ. eigenvalues --  -10.26852 -10.26604 -10.26588 -10.26375 -10.26321
 Alpha  occ. eigenvalues --  -10.26157 -10.26154 -10.26036 -10.25941 -10.25937
 Alpha  occ. eigenvalues --  -10.25799 -10.25726 -10.25625 -10.25386 -10.25286
 Alpha  occ. eigenvalues --  -10.24729 -10.24706 -10.24705 -10.24674 -10.24630
 Alpha  occ. eigenvalues --  -10.24550  -3.16453  -3.16273  -1.91335  -1.91155
 Alpha  occ. eigenvalues --   -1.90921  -1.90763  -1.90744  -1.90580  -1.16465
 Alpha  occ. eigenvalues --   -1.16429  -1.08479  -1.08419  -1.07158  -1.06849
 Alpha  occ. eigenvalues --   -1.06764  -1.06426  -1.04492  -1.04360  -1.03678
 Alpha  occ. eigenvalues --   -1.03525  -1.03146  -1.02898  -1.02324  -1.01968
 Alpha  occ. eigenvalues --   -0.91864  -0.91827  -0.89451  -0.89363  -0.89099
 Alpha  occ. eigenvalues --   -0.89038  -0.88221  -0.88096  -0.87768  -0.87618
 Alpha  occ. eigenvalues --   -0.87588  -0.87550  -0.87203  -0.86993  -0.84894
 Alpha  occ. eigenvalues --   -0.84879  -0.83871  -0.83751  -0.82911  -0.82817
 Alpha  occ. eigenvalues --   -0.82558  -0.82530  -0.81453  -0.81439  -0.80491
 Alpha  occ. eigenvalues --   -0.80298  -0.78717  -0.78494  -0.77139  -0.77017
 Alpha  occ. eigenvalues --   -0.76836  -0.76769  -0.75816  -0.75701  -0.74822
 Alpha  occ. eigenvalues --   -0.74674  -0.72686  -0.72551  -0.71584  -0.71447
 Alpha  occ. eigenvalues --   -0.69857  -0.69642  -0.68786  -0.68702  -0.67549
 Alpha  occ. eigenvalues --   -0.67457  -0.67135  -0.67083  -0.65190  -0.65142
 Alpha  occ. eigenvalues --   -0.64753  -0.64631  -0.64522  -0.64516  -0.64197
 Alpha  occ. eigenvalues --   -0.64074  -0.62152  -0.62121  -0.60371  -0.60210
 Alpha  occ. eigenvalues --   -0.59714  -0.59669  -0.58895  -0.58849  -0.58406
 Alpha  occ. eigenvalues --   -0.58277  -0.57447  -0.57372  -0.57212  -0.57094
 Alpha  occ. eigenvalues --   -0.56217  -0.56056  -0.55830  -0.55736  -0.55436
 Alpha  occ. eigenvalues --   -0.55313  -0.55244  -0.55105  -0.54404  -0.54345
 Alpha  occ. eigenvalues --   -0.53803  -0.53796  -0.53217  -0.53131  -0.53090
 Alpha  occ. eigenvalues --   -0.53007  -0.52797  -0.52762  -0.52684  -0.52556
 Alpha  occ. eigenvalues --   -0.52381  -0.52282  -0.51801  -0.51686  -0.51536
 Alpha  occ. eigenvalues --   -0.51524  -0.51093  -0.51040  -0.50520  -0.50366
 Alpha  occ. eigenvalues --   -0.49975  -0.49863  -0.49847  -0.49743  -0.49428
 Alpha  occ. eigenvalues --   -0.49364  -0.49110  -0.49059  -0.49001  -0.48954
 Alpha  occ. eigenvalues --   -0.48479  -0.48408  -0.48391  -0.48344  -0.48241
 Alpha  occ. eigenvalues --   -0.48192  -0.47610  -0.47464  -0.47212  -0.46990
 Alpha  occ. eigenvalues --   -0.46715  -0.46577  -0.46463  -0.46436  -0.46272
 Alpha  occ. eigenvalues --   -0.46132  -0.46057  -0.45933  -0.45695  -0.45654
 Alpha  occ. eigenvalues --   -0.45133  -0.45081  -0.44462  -0.44437  -0.44379
 Alpha  occ. eigenvalues --   -0.44331  -0.44072  -0.44004  -0.43990  -0.43947
 Alpha  occ. eigenvalues --   -0.43910  -0.43788  -0.43405  -0.43366  -0.43305
 Alpha  occ. eigenvalues --   -0.43247  -0.42932  -0.42780  -0.42733  -0.42621
 Alpha  occ. eigenvalues --   -0.42496  -0.42431  -0.41931  -0.41840  -0.41603
 Alpha  occ. eigenvalues --   -0.41501  -0.41448  -0.41340  -0.41054  -0.40857
 Alpha  occ. eigenvalues --   -0.40794  -0.40760  -0.40609  -0.40586  -0.40500
 Alpha  occ. eigenvalues --   -0.40368  -0.40147  -0.40121  -0.39398  -0.39312
 Alpha  occ. eigenvalues --   -0.38404  -0.38232  -0.37657  -0.37540  -0.37249
 Alpha  occ. eigenvalues --   -0.37169  -0.37139  -0.37070  -0.36609  -0.36561
 Alpha  occ. eigenvalues --   -0.36079  -0.36065  -0.34195  -0.34110  -0.33691
 Alpha  occ. eigenvalues --   -0.33573  -0.33085  -0.33033  -0.31284  -0.31154
 Alpha  occ. eigenvalues --   -0.30944  -0.30834  -0.29886  -0.29721  -0.29365
 Alpha  occ. eigenvalues --   -0.29219  -0.29185  -0.29040  -0.23990  -0.23895
 Alpha  occ. eigenvalues --   -0.21042  -0.20977
 Alpha virt. eigenvalues --   -0.08686  -0.08644  -0.01669  -0.01550   0.00023
 Alpha virt. eigenvalues --    0.00108   0.02311   0.02391   0.03209   0.03355
 Alpha virt. eigenvalues --    0.04804   0.04851   0.05292   0.05346   0.06270

 Mulliken charges:
               1
     1  Mg   0.838754
     2  C   -0.002411
     3  C   -0.094297
     4  C   -0.046087
     5  C   -0.064213
     6  N   -0.256682
     7  C   -0.052405
     8  C   -0.013967
     9  C   -0.086951
    10  C    0.046203
    11  C    0.104885
    12  C    0.053516
    13  C   -0.071627
    14  H    0.036309
    15  N   -0.433040
    16  C    0.168182
    17  C   -0.177456
    18  C   -0.004288
    19  C    0.148565
    20  C    0.110284
    21  C    0.012026
    22  O   -0.249985
    23  C    0.062612
    24  N   -0.341112
    25  C    0.041068
    26  C   -0.028063
    27  C   -0.024003
    28  C    0.074914
    29  C    0.076235
    30  C    0.035215
    31  C   -0.004421
    32  N   -0.310709
    33  C    0.080727
    34  C   -0.169225
    35  C    0.008888
    36  C    0.083453
    37  C    0.127064
    38  C    0.047161
    39  O   -0.187285
    40  C   -0.005707
    41  C    0.212768
    42  O   -0.254912
    43  O   -0.305399
    44  C    0.157160
    45  H   -0.017926
    46  H   -0.017201
    47  H   -0.041537
    48  H    0.001040
    49  H   -0.004392
    50  H    0.025515
    51  H    0.016323
    52  H    0.016354
    53  H    0.010708
    54  H    0.045210
    55  H    0.017764
    56  H    0.017256
    57  H    0.005652
    58  H    0.026557
    59  H    0.038932
    60  H    0.037266
    61  H    0.035317
    62  H    0.031150
    63  H    0.016163
    64  H    0.009460
    65  H    0.022938
    66  H    0.012583
    67  H    0.004654
    68  H    0.006073
    69  H    0.004844
    70  H    0.008437
    71  H    0.017357
    72  H    0.029415
    73  H    0.048711
    74  H    0.008866
    75  H    0.045876
    76  H    0.034855
    77  H    0.042798
    78  H    0.045549
    79  H    0.055689
    80  Mg   0.837517
    81  C   -0.016725
    82  C   -0.087966
    83  C   -0.045657
    84  C   -0.064971
    85  N   -0.254429
    86  C   -0.049824
    87  C   -0.014984
    88  C   -0.090499
    89  C    0.045529
    90  C    0.114422
    91  C    0.062613
    92  C   -0.077603
    93  H    0.034726
    94  N   -0.423393
    95  C    0.162615
    96  C   -0.175038
    97  C   -0.008115
    98  C    0.151883
    99  C    0.099542
   100  C    0.015322
   101  O   -0.253548
   102  C    0.061309
   103  N   -0.350046
   104  C    0.037311
   105  C   -0.019721
   106  C   -0.034829
   107  C    0.089134
   108  C    0.073739
   109  C    0.034764
   110  C   -0.007612
   111  N   -0.324324
   112  C    0.078661
   113  C   -0.163050
   114  C    0.003232
   115  C    0.095991
   116  C    0.131683
   117  C    0.043471
   118  O   -0.184540
   119  C    0.000516
   120  C    0.211540
   121  O   -0.251374
   122  O   -0.305372
   123  C    0.152120
   124  H   -0.020303
   125  H   -0.015911
   126  H   -0.040402
   127  H   -0.000567
   128  H   -0.004752
   129  H    0.022695
   130  H    0.014250
   131  H    0.015382
   132  H    0.013784
   133  H    0.037879
   134  H    0.020479
   135  H    0.019220
   136  H    0.008344
   137  H    0.025612
   138  H    0.039394
   139  H    0.037996
   140  H    0.036039
   141  H    0.033754
   142  H    0.014140
   143  H    0.012393
   144  H    0.024818
   145  H    0.011605
   146  H    0.005651
   147  H    0.005979
   148  H    0.003592
   149  H    0.010788
   150  H    0.017790
   151  H    0.030270
   152  H    0.046788
   153  H    0.007657
   154  H    0.048903
   155  H    0.036280
   156  H    0.044177
   157  H    0.048731
   158  H    0.053524
 Sum of Mulliken charges =  -0.00000

 Dipole moment (field-independent basis, Debye):
    X=              0.9008    Y=             -0.9534    Z=              8.1388  Tot=              8.2438
 Quadrupole moment (field-independent basis, Debye-Ang):
   XX=           -487.8401   YY=           -524.0160   ZZ=           -471.5911
   XY=            -19.3033   XZ=             -3.8397   YZ=             59.1236

 Normal termination of Gaussian 16 at Sat Sep 11 13:29:59 2021.
