 Gaussian 16, Revision A.03,
 Gaussian 16:  ES64L-G16RevA.03 25-Dec-2016

 -----------------------------------
 #p cam-b3lyp/Def2SVP td=(nstates=5)
 -----------------------------------

 --------------------------------
 TDDFT excited states in gaussian
 --------------------------------
 Symbolic Z-matrix:
 Charge =  0 Multiplicity = 1

                         Standard orientation:
 ---------------------------------------------------------------------
 Center     Atomic      Atomic             Coordinates (Angstroms)
 Number     Number       Type             X           Y           Z
 ---------------------------------------------------------------------
      1         12           0        3.851545    0.492355    1.509255
      2          6           0        4.814251   -2.440897   -0.302219
      3          6           0        5.666868    2.299414   -0.745119
      4          6           0        3.392905    3.037790    3.344203
      5          6           0        3.090666   -1.595008    4.194332
      6          7           0        5.043300   -0.108346   -0.256962
      7          6           0        5.282960   -1.258441   -0.879068
      8          6           0        6.015049   -1.082213   -2.243019
      9          6           0        6.705924    0.329904   -1.977287
     10          6           0        5.729198    0.890298   -0.958519
     11          6           0        8.082901    0.222330   -1.330089
     12          6           0        5.018076   -1.014430   -3.448499
     13          6           0        5.654718   -1.170998   -4.832525
     14          1           0        4.914411   -1.875714   -5.868222
     15          7           0        4.017955    2.416886    1.095324
     16          6           0        4.790668    2.974247    0.132231
     17          6           0        4.568249    4.433233    0.224810
     18          6           0        3.750386    4.692485    1.442177
     19          6           0        3.709269    3.378429    2.031197
     20          6           0        5.065106    5.407865   -0.798408
     21          6           0        3.116683    5.930477    1.993472
     22          8           0        2.646956    5.982972    3.181401
     23          6           0        3.139900    7.122363    1.126344
     24          7           0        3.526328    0.726018    3.557980
     25          6           0        3.299424    1.933172    4.087390
     26          6           0        2.817210    1.826367    5.503724
     27          6           0        2.527871    0.276485    5.756508
     28          6           0        2.998796   -0.277566    4.389201
     29          6           0        3.779798    2.347914    6.579560
     30          6           0        1.111388   -0.101870    6.257349
     31          6           0        0.093082    0.175000    5.174069
     32          7           0        3.758353   -1.648974    1.851408
     33          6           0        3.440460   -2.297701    3.053394
     34          6           0        3.614626   -3.743623    2.823083
     35          6           0        4.040480   -3.835043    1.499401
     36          6           0        4.152091   -2.527373    0.946379
     37          6           0        3.439925   -4.769104    3.793807
     38          6           0        4.450857   -4.731813    0.431106
     39          8           0        4.467801   -5.954749    0.284026
     40          6           0        5.085071   -3.858833   -0.740007
     41          6           0        4.475596   -4.323614   -2.034545
     42          8           0        3.264289   -4.141447   -2.273119
     43          8           0        5.451696   -4.690961   -2.878835
     44          6           0        4.916241   -5.135111   -4.193435
     45          1           0        6.391808    2.942063   -1.248512
     46          1           0        3.119952    3.882010    3.980777
     47          1           0        2.790652   -2.312444    4.960316
     48          1           0        6.775258   -1.835253   -2.451437
     49          1           0        6.718348    0.951706   -2.872234
     50          1           0        8.307549   -0.803888   -1.039691
     51          1           0        8.042673    0.866477   -0.451482
     52          1           0        8.849812    0.647195   -1.978251
     53          1           0        4.629324    0.000034   -3.536794
     54          1           0        4.221886   -1.750608   -3.332532
     55          1           0        6.672600   -1.555483   -4.761840
     56          1           0        5.769558   -0.179141   -5.269825
     57          1           0        5.771981    4.942820   -1.484416
     58          1           0        5.654004    6.155081   -0.266829
     59          1           0        4.248604    5.894731   -1.331904
     60          1           0        4.173642    7.375010    0.889496
     61          1           0        2.563702    7.885380    1.648504
     62          1           0        2.658940    6.878875    0.178536
     63          1           0        1.895981    2.389679    5.646704
     64          1           0        3.196870   -0.147610    6.505680
     65          1           0        3.348936    3.122724    7.214172
     66          1           0        4.679982    2.706439    6.081143
     67          1           0        4.187460    1.581664    7.238415
     68          1           0        0.838073    0.507830    7.117879
     69          1           0        1.023877   -1.148020    6.550884
     70          1           0       -0.114469    1.236935    5.300748
     71          1           0       -0.805985   -0.420550    5.335960
     72          1           0        0.522660    0.043166    4.180807
     73          1           0        2.893313   -5.570145    3.296296
     74          1           0        2.898171   -4.401527    4.665009
     75          1           0        4.478042   -5.012338    4.019654
     76          1           0        6.160942   -4.028300   -0.709932
     77          1           0        5.298153   -6.140244   -4.372552
     78          1           0        5.177696   -4.358849   -4.912784
     79          1           0        3.841159   -5.311916   -4.241172
     80         12           0       -3.530790    0.426176   -1.401051
     81          6           0       -5.928039   -1.648237    0.280950
     82          6           0       -5.829842    2.941805   -1.257700
     83          6           0       -1.625773    2.139676   -3.272474
     84          6           0       -1.920071   -2.494317   -2.411999
     85          7           0       -5.578687    0.513478   -0.569927
     86          6           0       -6.361709   -0.318275    0.100455
     87          6           0       -7.648426    0.332282    0.675494
     88          6           0       -7.769721    1.567191   -0.343903
     89          6           0       -6.298428    1.713575   -0.726692
     90          6           0       -8.559211    1.235866   -1.599402
     91          6           0       -7.460334    0.823964    2.153622
     92          6           0       -8.757114    1.186647    2.880660
     93          1           0       -8.857664    0.900457    4.309103
     94          7           0       -3.478611    2.381804   -1.734726
     95          6           0       -4.497821    3.256868   -1.605241
     96          6           0       -3.952896    4.568659   -1.987900
     97          6           0       -2.574249    4.369236   -2.511612
     98          6           0       -2.512418    2.921815   -2.546752
     99          6           0       -4.696080    5.854180   -1.767576
    100          6           0       -1.495262    5.323364   -2.925891
    101          8           0       -0.462075    4.930823   -3.574951
    102          6           0       -1.728435    6.744743   -2.631292
    103          7           0       -2.118919   -0.097988   -2.834301
    104          6           0       -1.391912    0.841310   -3.464461
    105          6           0       -0.256289    0.220964   -4.242879
    106          6           0       -0.226666   -1.317475   -3.807081
    107          6           0       -1.460790   -1.341340   -2.878771
    108          6           0       -0.362600    0.316587   -5.764703
    109          6           0        1.119242   -1.868659   -3.261720
    110          6           0        1.440687   -1.223384   -1.932928
    111          7           0       -3.729932   -1.684272   -0.983425
    112          6           0       -2.968320   -2.738309   -1.533926
    113          6           0       -3.549310   -4.001767   -1.035382
    114          6           0       -4.631400   -3.592650   -0.241532
    115          6           0       -4.730955   -2.175185   -0.261326
    116          6           0       -3.102031   -5.311452   -1.368208
    117          6           0       -5.718546   -4.038060    0.600146
    118          8           0       -6.078526   -5.124361    1.051925
    119          6           0       -6.683429   -2.805034    0.874104
    120          6           0       -6.980203   -2.766028    2.348186
    121          8           0       -6.075726   -2.532096    3.169039
    122          8           0       -8.313020   -2.794789    2.530229
    123          6           0       -8.657599   -2.746820    3.976183
    124          1           0       -6.556621    3.726812   -1.468547
    125          1           0       -0.876057    2.687413   -3.848148
    126          1           0       -1.415437   -3.443874   -2.602693
    127          1           0       -8.535618   -0.286766    0.616869
    128          1           0       -8.123352    2.462587    0.160640
    129          1           0       -8.808709    0.186588   -1.653254
    130          1           0       -7.923841    1.516757   -2.429128
    131          1           0       -9.444274    1.874878   -1.667761
    132          1           0       -6.969107    1.805472    2.144716
    133          1           0       -6.913442    0.102179    2.728569
    134          1           0       -9.643701    0.816927    2.351304
    135          1           0       -8.870459    2.273373    2.866785
    136          1           0       -5.749183    5.672610   -1.519774
    137          1           0       -4.729472    6.373460   -2.731476
    138          1           0       -4.210167    6.501260   -1.034196
    139          1           0       -2.645493    7.068636   -3.117658
    140          1           0       -0.809177    7.257754   -2.920521
    141          1           0       -1.887474    6.857038   -1.553007
    142          1           0        0.689014    0.679175   -3.979179
    143          1           0       -0.455424   -1.984556   -4.651187
    144          1           0        0.507472    0.814741   -6.232570
    145          1           0       -1.277538    0.838947   -6.010801
    146          1           0       -0.493690   -0.633876   -6.279118
    147          1           0        1.936890   -1.609120   -3.938648
    148          1           0        1.128440   -2.947133   -3.144212
    149          1           0        1.904447   -0.276227   -2.224315
    150          1           0        2.131256   -1.842297   -1.363619
    151          1           0        0.525031   -0.985482   -1.379197
    152          1           0       -3.095550   -5.881317   -0.448579
    153          1           0       -2.117273   -5.289805   -1.830343
    154          1           0       -3.880784   -5.609729   -2.075203
    155          1           0       -7.584828   -2.955854    0.278870
    156          1           0       -9.286447   -3.618094    4.183845
    157          1           0       -9.107032   -1.749902    4.143288
    158          1           0       -7.853497   -2.891859    4.688116
 ---------------------------------------------------------------------

 SCF Done:  E(RCAM-B3LYP) =  -4069.81726131     A.U. after   19 cycles

 Excitation energies and oscillator strengths:

 Excited State   1:      Singlet-A      1.6321 eV  759.65 nm  f=0.0036  <S**2>=0.000
     309 -> 315       -0.11151
     310 -> 316        0.11880
     311 -> 313       -0.46803
     312 -> 314        0.50447
 This state for optimization and/or second-order correction.
 Total Energy, E(TD-HF/TD-DFT) =  -4069.75728169
 Copying the excited state density for this state as the 1-particle RhoCI density.

 Excited State   2:      Singlet-A      1.7081 eV  725.86 nm  f=0.6777  <S**2>=0.000
     309 -> 315        0.13434
     310 -> 316        0.12317
     311 -> 313        0.50140
     312 -> 314        0.46511

 Excited State   3:      Singlet-A      2.1777 eV  569.33 nm  f=0.0502  <S**2>=0.000
     309 -> 313        0.25599
     310 -> 314        0.59281
     311 -> 315       -0.10415
     312 -> 316       -0.24397

 Excited State   4:      Singlet-A      2.1968 eV  564.38 nm  f=0.1332  <S**2>=0.000
     309 -> 313        0.58741
     310 -> 314       -0.25099
     311 -> 315       -0.25861
     312 -> 316        0.11403

 Excited State   5:      Singlet-A      2.2842 eV  542.79 nm  f=0.0000  <S**2>=0.000
     312 -> 313        0.70642

 The electronic state is 1-A.
 Alpha  occ. eigenvalues --  -46.87699 -46.87274 -19.26856 -19.26148 -19.19853
 Alpha  occ. eigenvalues --  -19.18945 -19.18731 -19.18526 -19.18242 -19.17749
 Alpha  occ. eigenvalues --  -14.42391 -14.42128 -14.41375 -14.40916 -14.39319
 Alpha  occ. eigenvalues --  -14.38985 -14.38525 -14.38211 -10.39754 -10.38864
 Alpha  occ. eigenvalues --  -10.35361 -10.35214 -10.34488 -10.33925 -10.32139
 Alpha  occ. eigenvalues --  -10.31594 -10.31398 -10.30926 -10.30906 -10.30714
 Alpha  occ. eigenvalues --  -10.30525 -10.30448 -10.30078 -10.29999 -10.29952
 Alpha  occ. eigenvalues --  -10.29858 -10.29647 -10.29568 -10.29426 -10.29142
 Alpha  occ. eigenvalues --  -10.29063 -10.29019 -10.28867 -10.28784 -10.28467
 Alpha  occ. eigenvalues --  -10.28451 -10.28342 -10.28158 -10.28075 -10.27851
 Alpha  occ. eigenvalues --  -10.27719 -10.27659 -10.27646 -10.27504 -10.27432
 Alpha  occ. eigenvalues --  -10.27390 -10.27326 -10.27319 -10.27296 -10.27259
 Alpha  occ. eigenvalues --  -10.27194 -10.27125 -10.27113 -10.26979 -10.26784
 Alpha  occ. eigenvalues --  -10.26764 -10.26670 -10.26464 -10.26343 -10.26283
 Alpha  occ. eigenvalues --  -10.26253 -10.25913 -10.25908 -10.25762 -10.25705
 Alpha  occ. eigenvalues --  -10.25396 -10.25328 -10.25326 -10.25018 -10.24794
 Alpha  occ. eigenvalues --  -10.24732 -10.24586 -10.24523 -10.24325 -10.24300
 Alpha  occ. eigenvalues --  -10.23254  -3.16437  -3.16025  -1.91317  -1.90907
 Alpha  occ. eigenvalues --   -1.90906  -1.90749  -1.90494  -1.90332  -1.17230
 Alpha  occ. eigenvalues --   -1.16438  -1.08752  -1.08362  -1.07378  -1.07133
 Alpha  occ. eigenvalues --   -1.06793  -1.06727  -1.04542  -1.04137  -1.03690
 Alpha  occ. eigenvalues --   -1.03270  -1.03161  -1.02615  -1.02344  -1.01710
 Alpha  occ. eigenvalues --   -0.92028  -0.91634  -0.89414  -0.89250  -0.88945
 Alpha  occ. eigenvalues --   -0.88784  -0.88169  -0.87795  -0.87641  -0.87532
 Alpha  occ. eigenvalues --   -0.87385  -0.87285  -0.87156  -0.86827  -0.85044
 Alpha  occ. eigenvalues --   -0.84683  -0.83843  -0.83211  -0.82854  -0.82692
 Alpha  occ. eigenvalues --   -0.82612  -0.82223  -0.81745  -0.81250  -0.80626
 Alpha  occ. eigenvalues --   -0.80098  -0.78698  -0.78285  -0.77179  -0.77008
 Alpha  occ. eigenvalues --   -0.76784  -0.76430  -0.75978  -0.75498  -0.74828
 Alpha  occ. eigenvalues --   -0.74294  -0.72705  -0.72273  -0.71660  -0.71208
 Alpha  occ. eigenvalues --   -0.69724  -0.68913  -0.68900  -0.68456  -0.67642
 Alpha  occ. eigenvalues --   -0.67283  -0.67244  -0.66939  -0.65369  -0.64959
 Alpha  occ. eigenvalues --   -0.64928  -0.64629  -0.64378  -0.64261  -0.64168
 Alpha  occ. eigenvalues --   -0.63518  -0.62510  -0.61903  -0.60339  -0.59981
 Alpha  occ. eigenvalues --   -0.59823  -0.59474  -0.58983  -0.58588  -0.58528
 Alpha  occ. eigenvalues --   -0.58029  -0.57848  -0.57256  -0.57249  -0.56802
 Alpha  occ. eigenvalues --   -0.56421  -0.56133  -0.55839  -0.55634  -0.55520
 Alpha  occ. eigenvalues --   -0.55382  -0.55178  -0.54813  -0.54646  -0.54012
 Alpha  occ. eigenvalues --   -0.53952  -0.53620  -0.53296  -0.53242  -0.53124
 Alpha  occ. eigenvalues --   -0.52912  -0.52748  -0.52683  -0.52542  -0.52444
 Alpha  occ. eigenvalues --   -0.52234  -0.51874  -0.51714  -0.51487  -0.51382
 Alpha  occ. eigenvalues --   -0.51291  -0.51188  -0.50702  -0.50410  -0.50218
 Alpha  occ. eigenvalues --   -0.49991  -0.49817  -0.49679  -0.49633  -0.49312
 Alpha  occ. eigenvalues --   -0.49228  -0.49172  -0.49001  -0.48908  -0.48779
 Alpha  occ. eigenvalues --   -0.48589  -0.48438  -0.48349  -0.48257  -0.48103
 Alpha  occ. eigenvalues --   -0.47876  -0.47678  -0.47250  -0.47210  -0.46783
 Alpha  occ. eigenvalues --   -0.46750  -0.46630  -0.46356  -0.46316  -0.46166
 Alpha  occ. eigenvalues --   -0.46113  -0.45937  -0.45808  -0.45642  -0.45453
 Alpha  occ. eigenvalues --   -0.45115  -0.44728  -0.44621  -0.44467  -0.44242
 Alpha  occ. eigenvalues --   -0.44183  -0.44078  -0.44052  -0.43983  -0.43849
 Alpha  occ. eigenvalues --   -0.43667  -0.43652  -0.43490  -0.43393  -0.43143
 Alpha  occ. eigenvalues --   -0.43063  -0.42996  -0.42916  -0.42629  -0.42520
 Alpha  occ. eigenvalues --   -0.42516  -0.42004  -0.41949  -0.41711  -0.41556
 Alpha  occ. eigenvalues --   -0.41359  -0.41289  -0.41125  -0.40901  -0.40867
 Alpha  occ. eigenvalues --   -0.40783  -0.40636  -0.40514  -0.40454  -0.40356
 Alpha  occ. eigenvalues --   -0.40298  -0.39993  -0.39633  -0.39234  -0.38510
 Alpha  occ. eigenvalues --   -0.38372  -0.37882  -0.37727  -0.37354  -0.37344
 Alpha  occ. eigenvalues --   -0.37231  -0.37132  -0.36881  -0.36626  -0.36456
 Alpha  occ. eigenvalues --   -0.36233  -0.35671  -0.34463  -0.34195  -0.33856
 Alpha  occ. eigenvalues --   -0.33611  -0.33146  -0.32775  -0.31265  -0.31087
 Alpha  occ. eigenvalues --   -0.30995  -0.30589  -0.30121  -0.29650  -0.29365
 Alpha  occ. eigenvalues --   -0.29254  -0.28995  -0.28847  -0.24047  -0.23641
 Alpha  occ. eigenvalues --   -0.21060  -0.20718
 Alpha virt. eigenvalues --   -0.08713  -0.08424  -0.01689  -0.01292  -0.00011
 Alpha virt. eigenvalues --    0.00247   0.02202   0.02568   0.02684   0.04422
 Alpha virt. eigenvalues --    0.04514   0.04686   0.05091   0.05403   0.05857

 Mulliken charges:
               1
     1  Mg   0.835285
     2  C   -0.008592
     3  C   -0.092708
     4  C   -0.045065
     5  C   -0.062103
     6  N   -0.255837
     7  C   -0.055437
     8  C   -0.008190
     9  C   -0.087128
    10  C    0.047497
    11  C    0.104866
    12  C    0.030201
    13  C   -0.070925
    14  H    0.034410
    15  N   -0.432922
    16  C    0.170262
    17  C   -0.174111
    18  C   -0.002805
    19  C    0.149057
    20  C    0.109408
    21  C    0.012773
    22  O   -0.250205
    23  C    0.060849
    24  N   -0.340307
    25  C    0.041238
    26  C   -0.028131
    27  C   -0.024064
    28  C    0.074600
    29  C    0.076271
    30  C    0.034849
    31  C   -0.005493
    32  N   -0.310306
    33  C    0.081239
    34  C   -0.168644
    35  C    0.003785
    36  C    0.083915
    37  C    0.127131
    38  C    0.048038
    39  O   -0.188353
    40  C   -0.009837
    41  C    0.221751
    42  O   -0.256138
    43  O   -0.302699
    44  C    0.156010
    45  H   -0.017690
    46  H   -0.016787
    47  H   -0.040204
    48  H   -0.000683
    49  H   -0.003427
    50  H    0.025322
    51  H    0.017432
    52  H    0.016883
    53  H    0.016446
    54  H    0.054644
    55  H    0.018865
    56  H    0.020007
    57  H    0.005919
    58  H    0.025737
    59  H    0.045859
    60  H    0.037388
    61  H    0.033983
    62  H    0.035286
    63  H    0.016839
    64  H    0.009230
    65  H    0.023033
    66  H    0.012106
    67  H    0.004893
    68  H    0.005910
    69  H    0.006097
    70  H    0.007153
    71  H    0.024507
    72  H    0.028333
    73  H    0.047901
    74  H    0.010929
    75  H    0.045479
    76  H    0.035735
    77  H    0.045491
    78  H    0.048209
    79  H    0.052540
    80  Mg   0.836365
    81  C   -0.018155
    82  C   -0.088557
    83  C   -0.046509
    84  C   -0.063306
    85  N   -0.254727
    86  C   -0.049787
    87  C   -0.015123
    88  C   -0.090319
    89  C    0.045330
    90  C    0.114670
    91  C    0.062645
    92  C   -0.077337
    93  H    0.033624
    94  N   -0.423173
    95  C    0.162427
    96  C   -0.175329
    97  C   -0.008768
    98  C    0.151881
    99  C    0.099436
   100  C    0.014059
   101  O   -0.256784
   102  C    0.061472
   103  N   -0.350709
   104  C    0.038058
   105  C   -0.018243
   106  C   -0.031859
   107  C    0.090033
   108  C    0.075470
   109  C    0.034148
   110  C   -0.043075
   111  N   -0.324442
   112  C    0.079009
   113  C   -0.160836
   114  C    0.001417
   115  C    0.096773
   116  C    0.130126
   117  C    0.042240
   118  O   -0.188474
   119  C    0.001010
   120  C    0.211240
   121  O   -0.251888
   122  O   -0.305534
   123  C    0.152378
   124  H   -0.021034
   125  H   -0.017844
   126  H   -0.033125
   127  H   -0.001258
   128  H   -0.005078
   129  H    0.021980
   130  H    0.014344
   131  H    0.015290
   132  H    0.014125
   133  H    0.037123
   134  H    0.020541
   135  H    0.019399
   136  H    0.008298
   137  H    0.024537
   138  H    0.039012
   139  H    0.038700
   140  H    0.031651
   141  H    0.034665
   142  H    0.011888
   143  H    0.008677
   144  H    0.020698
   145  H    0.009791
   146  H    0.004577
   147  H   -0.001363
   148  H    0.022396
   149  H    0.006386
   150  H    0.054975
   151  H    0.020163
   152  H    0.046217
   153  H    0.015456
   154  H    0.045294
   155  H    0.034320
   156  H    0.043486
   157  H    0.049264
   158  H    0.052774
 Sum of Mulliken charges =  -0.00000

 Dipole moment (field-independent basis, Debye):
    X=              1.2105    Y=              6.4102    Z=             -2.4503  Tot=              6.9685
 Quadrupole moment (field-independent basis, Debye-Ang):
   XX=           -453.4576   YY=           -537.9337   ZZ=           -486.1993
   XY=            -21.2802   XZ=            -16.6326   YZ=              3.3426

 Normal termination of Gaussian 16 at Wed Sep  8 16:22:46 2021.
