 Gaussian 16, Revision A.03,
 Gaussian 16:  ES64L-G16RevA.03 25-Dec-2016

 -----------------------------------
 #p cam-b3lyp/Def2SVP td=(nstates=5)
 -----------------------------------

 --------------------------------
 TDDFT excited states in gaussian
 --------------------------------
 Symbolic Z-matrix:
 Charge =  0 Multiplicity = 1

                         Standard orientation:
 ---------------------------------------------------------------------
 Center     Atomic      Atomic             Coordinates (Angstroms)
 Number     Number       Type             X           Y           Z
 ---------------------------------------------------------------------
      1         12           0        6.829080    0.279772    0.096180
      2          6           0        6.813945   -3.175946   -0.836557
      3          6           0        7.676001    0.993579   -3.131244
      4          6           0        7.292487    3.284863    0.996903
      5          6           0        7.103437   -0.767825    3.408722
      6          7           0        7.170516   -1.013306   -1.667911
      7          6           0        7.074361   -2.317442   -1.906978
      8          6           0        7.201595   -2.679795   -3.416907
      9          6           0        8.017961   -1.403724   -3.914088
     10          6           0        7.568692   -0.403508   -2.863541
     11          6           0        9.530765   -1.572318   -3.816597
     12          6           0        5.808042   -2.779506   -4.123870
     13          6           0        5.821588   -3.442759   -5.504184
     14          1           0        4.688211   -4.266796   -5.896315
     15          7           0        6.920368    1.938273   -0.973348
     16          6           0        7.267730    2.042051   -2.278666
     17          6           0        7.182817    3.480719   -2.609885
     18          6           0        6.942160    4.225872   -1.343029
     19          6           0        7.069806    3.168353   -0.373113
     20          6           0        7.277111    4.010152   -4.007941
     21          6           0        6.654775    5.664878   -1.051820
     22          8           0        6.708660    6.143059    0.132669
     23          6           0        6.391673    6.530780   -2.215449
     24          7           0        7.372679    1.149520    1.914331
     25          6           0        7.446194    2.478218    2.049017
     26          6           0        7.572125    2.874811    3.490126
     27          6           0        7.324236    1.544607    4.337982
     28          6           0        7.171213    0.543228    3.166617
     29          6           0        8.914539    3.497297    3.898104
     30          6           0        6.212225    1.594601    5.415642
     31          6           0        4.860134    1.730501    4.751956
     32          7           0        6.763648   -1.616633    1.149942
     33          6           0        6.923026   -1.821327    2.528120
     34          6           0        6.908964   -3.278497    2.752894
     35          6           0        6.758024   -3.824273    1.479634
     36          6           0        6.708934   -2.775384    0.517493
     37          6           0        7.084809   -3.930250    4.005384
     38          6           0        6.651532   -5.050389    0.705584
     39          8           0        6.539878   -6.245052    0.984526
     40          6           0        6.805872   -4.684415   -0.836515
     41          6           0        5.700679   -5.381687   -1.581947
     42          8           0        4.508349   -5.055837   -1.410084
     43          8           0        6.230549   -6.150122   -2.545942
     44          6           0        5.185981   -6.847439   -3.342673
     45          1           0        8.170169    1.318743   -4.048854
     46          1           0        7.347150    4.311885    1.363886
     47          1           0        7.099206   -1.165985    4.425040
     48          1           0        7.769853   -3.587655   -3.620121
     49          1           0        7.702203   -1.079540   -4.905513
     50          1           0        9.796383   -2.494405   -3.299758
     51          1           0        9.884625   -0.706498   -3.256570
     52          1           0        9.992716   -1.501248   -4.801649
     53          1           0        5.473572   -1.779976   -4.401594
     54          1           0        5.087130   -3.291027   -3.485153
     55          1           0        6.758279   -3.971416   -5.683182
     56          1           0        5.804708   -2.657891   -6.260424
     57          1           0        7.619684    3.245164   -4.703629
     58          1           0        8.070942    4.756823   -4.012784
     59          1           0        6.343007    4.464546   -4.338558
     60          1           0        7.253888    6.509303   -2.882287
     61          1           0        6.118730    7.504463   -1.810118
     62          1           0        5.556147    6.117636   -2.781272
     63          1           0        6.819901    3.615235    3.759123
     64          1           0        8.214257    1.238535    4.888306
     65          1           0        8.820381    4.487653    4.344237
     66          1           0        9.555000    3.524589    3.016993
     67          1           0        9.510505    2.891888    4.580542
     68          1           0        6.344045    2.465833    6.056363
     69          1           0        6.192977    0.712259    6.055449
     70          1           0        4.780589    2.803150    4.578961
     71          1           0        4.071624    1.383329    5.420488
     72          1           0        4.843836    1.241251    3.777864
     73          1           0        6.340371   -4.725483    4.042599
     74          1           0        6.962423   -3.233952    4.834718
     75          1           0        8.110477   -4.285208    3.906066
     76          1           0        7.791013   -5.033418   -1.144439
     77          1           0        5.406696   -7.913978   -3.297786
     78          1           0        5.177100   -6.373455   -4.324338
     79          1           0        4.175254   -6.829055   -2.933488
     80         12           0       -6.385258    1.039058    0.385057
     81          6           0       -8.429199   -1.903090    0.172624
     82          6           0       -7.681108    1.975340   -2.628043
     83          6           0       -4.274233    3.407048    0.324982
     84          6           0       -4.451155   -0.643817    2.745747
     85          7           0       -7.857926    0.076741   -0.955637
     86          6           0       -8.613953   -1.009533   -0.902954
     87          6           0       -9.681060   -1.105568   -2.026167
     88          6           0       -8.966808   -0.168356   -3.117196
     89          6           0       -8.140464    0.710811   -2.180768
     90          6           0       -8.013512   -0.923974   -4.028017
     91          6           0      -11.067884   -0.519105   -1.584811
     92          6           0      -12.234782   -0.857816   -2.515078
     93          1           0      -13.551170   -1.086197   -1.925646
     94          7           0       -6.362120    2.712171   -0.682063
     95          6           0       -6.960479    2.926310   -1.872603
     96          6           0       -6.626348    4.308947   -2.247889
     97          6           0       -5.646320    4.838987   -1.261320
     98          6           0       -5.367643    3.640095   -0.496415
     99          6           0       -7.280408    5.021130   -3.396122
    100          6           0       -5.048013    6.196820   -1.050305
    101          8           0       -4.037334    6.375387   -0.282536
    102          6           0       -5.621181    7.295851   -1.840945
    103          7           0       -4.498459    1.267627    1.227720
    104          6           0       -3.815323    2.417743    1.091799
    105          6           0       -2.614637    2.450456    2.007039
    106          6           0       -2.770148    1.179601    2.965330
    107          6           0       -4.042873    0.554917    2.352680
    108          6           0       -1.251207    2.403858    1.317637
    109          6           0       -2.739668    1.444157    4.495613
    110          6           0       -3.966905    2.224093    4.909087
    111          7           0       -6.511584   -0.838809    1.446055
    112          6           0       -5.580597   -1.360243    2.370966
    113          6           0       -6.042022   -2.715289    2.736184
    114          6           0       -7.206216   -2.898603    1.974911
    115          6           0       -7.441843   -1.747578    1.175460
    116          6           0       -5.378908   -3.608753    3.623938
    117          6           0       -8.283537   -3.808297    1.657870
    118          8           0       -8.654951   -4.898942    2.089490
    119          6           0       -9.053612   -3.254654    0.382398
    120          6           0      -10.528842   -3.307689    0.671217
    121          8           0      -11.024573   -2.594964    1.561653
    122          8           0      -11.140530   -4.023671   -0.289807
    123          6           0      -12.607045   -4.095523   -0.053193
    124          1           0       -7.851130    2.250499   -3.669318
    125          1           0       -3.573167    4.239006    0.424133
    126          1           0       -3.956922   -1.194481    3.548980
    127          1           0       -9.827798   -2.100346   -2.429485
    128          1           0       -9.693569    0.430464   -3.659965
    129          1           0       -7.883827   -1.949041   -3.714079
    130          1           0       -7.073202   -0.390813   -3.976978
    131          1           0       -8.346303   -0.849258   -5.067254
    132          1           0      -11.047625    0.572406   -1.698579
    133          1           0      -11.306307   -0.817829   -0.582543
    134          1           0      -11.982754   -1.662709   -3.216196
    135          1           0      -12.429053    0.005260   -3.156466
    136          1           0       -7.835595    4.325369   -4.037290
    137          1           0       -6.476843    5.399155   -4.037411
    138          1           0       -7.899554    5.860831   -3.073300
    139          1           0       -5.527269    7.066264   -2.899679
    140          1           0       -5.123978    8.200932   -1.486668
    141          1           0       -6.693874    7.358719   -1.626475
    142          1           0       -2.613922    3.348803    2.612062
    143          1           0       -1.958759    0.452755    2.813073
    144          1           0       -0.602216    3.262016    1.575423
    145          1           0       -1.410719    2.355363    0.248645
    146          1           0       -0.669267    1.503155    1.505479
    147          1           0       -1.876859    2.062162    4.755988
    148          1           0       -2.677891    0.538289    5.089409
    149          1           0       -3.688055    3.258627    4.687558
    150          1           0       -4.167922    2.087976    5.969797
    151          1           0       -4.825536    1.971389    4.276202
    152          1           0       -6.142491   -4.046008    4.253436
    153          1           0       -4.622608   -3.094907    4.213647
    154          1           0       -4.936783   -4.304708    2.905992
    155          1           0       -8.779416   -3.884480   -0.464782
    156          1           0      -12.875286   -5.156275   -0.029727
    157          1           0      -13.068216   -3.476759   -0.845788
    158          1           0      -12.976252   -3.762655    0.909790
 ---------------------------------------------------------------------

 SCF Done:  E(RCAM-B3LYP) =  -4069.81175420     A.U. after   19 cycles

 Excitation energies and oscillator strengths:

 Excited State   1:      Singlet-A      1.6650 eV  744.63 nm  f=0.0088  <S**2>=0.000
     309 -> 315       -0.10833
     310 -> 316       -0.13273
     311 -> 313       -0.43282
     312 -> 314        0.53305
 This state for optimization and/or second-order correction.
 Total Energy, E(TD-HF/TD-DFT) =  -4069.75056484
 Copying the excited state density for this state as the 1-particle RhoCI density.

 Excited State   2:      Singlet-A      1.6897 eV  733.78 nm  f=0.7333  <S**2>=0.000
     309 -> 315        0.13833
     310 -> 316       -0.11170
     311 -> 313        0.53185
     312 -> 314        0.43190

 Excited State   3:      Singlet-A      2.1849 eV  567.45 nm  f=0.0774  <S**2>=0.000
     309 -> 313       -0.13801
     310 -> 314        0.62793
     312 -> 316        0.26604

 Excited State   4:      Singlet-A      2.1938 eV  565.17 nm  f=0.1189  <S**2>=0.000
     309 -> 313        0.62567
     310 -> 314        0.13658
     311 -> 315       -0.27252

 Excited State   5:      Singlet-A      2.6503 eV  467.80 nm  f=0.0000  <S**2>=0.000
     312 -> 313        0.70693

 The electronic state is 1-A.
 Alpha  occ. eigenvalues --  -46.87832 -46.87545 -19.26306 -19.26262 -19.19069
 Alpha  occ. eigenvalues --  -19.19047 -19.18814 -19.18623 -19.18194 -19.17937
 Alpha  occ. eigenvalues --  -14.42483 -14.42386 -14.41486 -14.41237 -14.39433
 Alpha  occ. eigenvalues --  -14.39240 -14.38623 -14.38482 -10.39106 -10.38997
 Alpha  occ. eigenvalues --  -10.35445 -10.35303 -10.34415 -10.34114 -10.31695
 Alpha  occ. eigenvalues --  -10.31679 -10.31440 -10.31196 -10.30935 -10.30923
 Alpha  occ. eigenvalues --  -10.30604 -10.30539 -10.30278 -10.30243 -10.30240
 Alpha  occ. eigenvalues --  -10.30019 -10.29959 -10.29764 -10.29659 -10.29323
 Alpha  occ. eigenvalues --  -10.29287 -10.29282 -10.28777 -10.28630 -10.28588
 Alpha  occ. eigenvalues --  -10.28568 -10.28393 -10.28296 -10.28145 -10.28049
 Alpha  occ. eigenvalues --  -10.27885 -10.27820 -10.27759 -10.27608 -10.27560
 Alpha  occ. eigenvalues --  -10.27550 -10.27494 -10.27490 -10.27434 -10.27392
 Alpha  occ. eigenvalues --  -10.27371 -10.27369 -10.27358 -10.27230 -10.27184
 Alpha  occ. eigenvalues --  -10.26943 -10.26735 -10.26614 -10.26382 -10.26352
 Alpha  occ. eigenvalues --  -10.26260 -10.26259 -10.26057 -10.26009 -10.25938
 Alpha  occ. eigenvalues --  -10.25877 -10.25806 -10.25683 -10.25464 -10.25227
 Alpha  occ. eigenvalues --  -10.24861 -10.24819 -10.24802 -10.24754 -10.24618
 Alpha  occ. eigenvalues --  -10.24571  -3.16576  -3.16295  -1.91458  -1.91177
 Alpha  occ. eigenvalues --   -1.91044  -1.90886  -1.90765  -1.90602  -1.16656
 Alpha  occ. eigenvalues --   -1.16555  -1.08652  -1.08544  -1.07213  -1.06877
 Alpha  occ. eigenvalues --   -1.06853  -1.06669  -1.04613  -1.04385  -1.03794
 Alpha  occ. eigenvalues --   -1.03548  -1.03266  -1.02918  -1.02445  -1.01993
 Alpha  occ. eigenvalues --   -0.92002  -0.91874  -0.89566  -0.89370  -0.89218
 Alpha  occ. eigenvalues --   -0.89057  -0.88331  -0.88090  -0.87901  -0.87705
 Alpha  occ. eigenvalues --   -0.87662  -0.87571  -0.87288  -0.87025  -0.85010
 Alpha  occ. eigenvalues --   -0.84902  -0.83987  -0.83748  -0.82979  -0.82838
 Alpha  occ. eigenvalues --   -0.82672  -0.82557  -0.81613  -0.81492  -0.80622
 Alpha  occ. eigenvalues --   -0.80338  -0.78819  -0.78528  -0.77255  -0.77038
 Alpha  occ. eigenvalues --   -0.76967  -0.76792  -0.75952  -0.75738  -0.74935
 Alpha  occ. eigenvalues --   -0.74673  -0.72807  -0.72579  -0.71703  -0.71464
 Alpha  occ. eigenvalues --   -0.69969  -0.69630  -0.68900  -0.68728  -0.67667
 Alpha  occ. eigenvalues --   -0.67491  -0.67242  -0.67111  -0.65317  -0.65173
 Alpha  occ. eigenvalues --   -0.64886  -0.64657  -0.64654  -0.64548  -0.64312
 Alpha  occ. eigenvalues --   -0.64079  -0.62326  -0.62175  -0.60464  -0.60233
 Alpha  occ. eigenvalues --   -0.59833  -0.59695  -0.59020  -0.58876  -0.58535
 Alpha  occ. eigenvalues --   -0.58312  -0.57612  -0.57446  -0.57340  -0.57120
 Alpha  occ. eigenvalues --   -0.56336  -0.56092  -0.56003  -0.55791  -0.55538
 Alpha  occ. eigenvalues --   -0.55380  -0.55354  -0.55124  -0.54562  -0.54372
 Alpha  occ. eigenvalues --   -0.53924  -0.53819  -0.53325  -0.53241  -0.53118
 Alpha  occ. eigenvalues --   -0.53042  -0.52946  -0.52801  -0.52769  -0.52585
 Alpha  occ. eigenvalues --   -0.52502  -0.52280  -0.51947  -0.51739  -0.51638
 Alpha  occ. eigenvalues --   -0.51568  -0.51231  -0.51088  -0.50578  -0.50390
 Alpha  occ. eigenvalues --   -0.50076  -0.49934  -0.49882  -0.49744  -0.49534
 Alpha  occ. eigenvalues --   -0.49393  -0.49238  -0.49122  -0.49101  -0.48998
 Alpha  occ. eigenvalues --   -0.48621  -0.48493  -0.48456  -0.48453  -0.48245
 Alpha  occ. eigenvalues --   -0.48243  -0.47722  -0.47493  -0.47321  -0.47009
 Alpha  occ. eigenvalues --   -0.46835  -0.46594  -0.46582  -0.46458  -0.46393
 Alpha  occ. eigenvalues --   -0.46196  -0.46155  -0.45958  -0.45851  -0.45703
 Alpha  occ. eigenvalues --   -0.45240  -0.45080  -0.44607  -0.44531  -0.44411
 Alpha  occ. eigenvalues --   -0.44368  -0.44183  -0.44115  -0.44038  -0.44026
 Alpha  occ. eigenvalues --   -0.43967  -0.43842  -0.43524  -0.43448  -0.43418
 Alpha  occ. eigenvalues --   -0.43277  -0.43059  -0.42831  -0.42786  -0.42736
 Alpha  occ. eigenvalues --   -0.42698  -0.42434  -0.42057  -0.41853  -0.41734
 Alpha  occ. eigenvalues --   -0.41564  -0.41557  -0.41358  -0.41170  -0.40907
 Alpha  occ. eigenvalues --   -0.40878  -0.40829  -0.40633  -0.40614  -0.40601
 Alpha  occ. eigenvalues --   -0.40369  -0.40260  -0.40145  -0.39510  -0.39298
 Alpha  occ. eigenvalues --   -0.38512  -0.38223  -0.37779  -0.37562  -0.37361
 Alpha  occ. eigenvalues --   -0.37293  -0.37145  -0.37097  -0.36744  -0.36671
 Alpha  occ. eigenvalues --   -0.36227  -0.36101  -0.34320  -0.34137  -0.33799
 Alpha  occ. eigenvalues --   -0.33766  -0.33219  -0.33059  -0.31345  -0.31181
 Alpha  occ. eigenvalues --   -0.31065  -0.30860  -0.30054  -0.29841  -0.29473
 Alpha  occ. eigenvalues --   -0.29352  -0.29220  -0.29092  -0.24114  -0.23919
 Alpha  occ. eigenvalues --   -0.21160  -0.21001
 Alpha virt. eigenvalues --   -0.08802  -0.08678  -0.01781  -0.01568  -0.00074
 Alpha virt. eigenvalues --    0.00070   0.02172   0.02326   0.03053   0.03331
 Alpha virt. eigenvalues --    0.04685   0.04836   0.05072   0.05261   0.06147

 Mulliken charges:
               1
     1  Mg   0.838164
     2  C   -0.003011
     3  C   -0.094042
     4  C   -0.045892
     5  C   -0.064205
     6  N   -0.256781
     7  C   -0.052561
     8  C   -0.013968
     9  C   -0.087023
    10  C    0.046353
    11  C    0.104787
    12  C    0.053461
    13  C   -0.071797
    14  H    0.036094
    15  N   -0.433249
    16  C    0.168495
    17  C   -0.176985
    18  C   -0.003750
    19  C    0.148710
    20  C    0.110173
    21  C    0.012663
    22  O   -0.249329
    23  C    0.062304
    24  N   -0.341045
    25  C    0.041105
    26  C   -0.028248
    27  C   -0.023934
    28  C    0.074550
    29  C    0.076106
    30  C    0.035229
    31  C   -0.004580
    32  N   -0.310389
    33  C    0.080031
    34  C   -0.170048
    35  C    0.008388
    36  C    0.082661
    37  C    0.127370
    38  C    0.045994
    39  O   -0.188302
    40  C   -0.005264
    41  C    0.212962
    42  O   -0.257332
    43  O   -0.304754
    44  C    0.157623
    45  H   -0.017484
    46  H   -0.016615
    47  H   -0.041646
    48  H    0.001015
    49  H   -0.004010
    50  H    0.025548
    51  H    0.016489
    52  H    0.016729
    53  H    0.011158
    54  H    0.044034
    55  H    0.017961
    56  H    0.017911
    57  H    0.005797
    58  H    0.026962
    59  H    0.039886
    60  H    0.037128
    61  H    0.036286
    62  H    0.031969
    63  H    0.016576
    64  H    0.009645
    65  H    0.023433
    66  H    0.012693
    67  H    0.004825
    68  H    0.006634
    69  H    0.004718
    70  H    0.009046
    71  H    0.016897
    72  H    0.028638
    73  H    0.047452
    74  H    0.008888
    75  H    0.046181
    76  H    0.035264
    77  H    0.043140
    78  H    0.046359
    79  H    0.053756
    80  Mg   0.837842
    81  C   -0.016922
    82  C   -0.088048
    83  C   -0.045656
    84  C   -0.063972
    85  N   -0.254535
    86  C   -0.049757
    87  C   -0.015114
    88  C   -0.090506
    89  C    0.045770
    90  C    0.114453
    91  C    0.062585
    92  C   -0.077737
    93  H    0.034664
    94  N   -0.423387
    95  C    0.162834
    96  C   -0.175059
    97  C   -0.008039
    98  C    0.152031
    99  C    0.099573
   100  C    0.015248
   101  O   -0.253185
   102  C    0.061267
   103  N   -0.349977
   104  C    0.037584
   105  C   -0.019960
   106  C   -0.035060
   107  C    0.088984
   108  C    0.073177
   109  C    0.034633
   110  C   -0.007623
   111  N   -0.324206
   112  C    0.078471
   113  C   -0.162606
   114  C    0.002313
   115  C    0.096306
   116  C    0.131545
   117  C    0.042603
   118  O   -0.187758
   119  C    0.000850
   120  C    0.211192
   121  O   -0.251137
   122  O   -0.305594
   123  C    0.152093
   124  H   -0.020178
   125  H   -0.015583
   126  H   -0.039693
   127  H   -0.000715
   128  H   -0.004652
   129  H    0.022631
   130  H    0.014466
   131  H    0.015797
   132  H    0.013842
   133  H    0.037669
   134  H    0.020708
   135  H    0.019399
   136  H    0.008489
   137  H    0.025502
   138  H    0.039472
   139  H    0.037797
   140  H    0.036154
   141  H    0.033828
   142  H    0.014218
   143  H    0.013995
   144  H    0.025478
   145  H    0.011285
   146  H    0.006916
   147  H    0.006106
   148  H    0.003824
   149  H    0.010823
   150  H    0.017573
   151  H    0.029999
   152  H    0.045743
   153  H    0.008820
   154  H    0.048310
   155  H    0.035146
   156  H    0.043842
   157  H    0.049326
   158  H    0.053491
 Sum of Mulliken charges =  -0.00000

 Dipole moment (field-independent basis, Debye):
    X=              2.2178    Y=              4.1418    Z=             -7.3833  Tot=              8.7513
 Quadrupole moment (field-independent basis, Debye-Ang):
   XX=           -475.3641   YY=           -561.9562   ZZ=           -452.5107
   XY=            -15.6713   XZ=             29.1550   YZ=              4.8937

 Normal termination of Gaussian 16 at Sat Sep 11 16:24:24 2021.
