 Gaussian 16, Revision A.03,
 Gaussian 16:  ES64L-G16RevA.03 25-Dec-2016

 -----------------------------------
 #p cam-b3lyp/Def2SVP td=(nstates=5)
 -----------------------------------

 --------------------------------
 TDDFT excited states in gaussian
 --------------------------------
 Symbolic Z-matrix:
 Charge =  0 Multiplicity = 1

                         Standard orientation:
 ---------------------------------------------------------------------
 Center     Atomic      Atomic             Coordinates (Angstroms)
 Number     Number       Type             X           Y           Z
 ---------------------------------------------------------------------
      1         12           0        8.106583   -0.571799    0.524216
      2          6           0        8.382704    2.432546   -1.401889
      3          6           0        8.803599    1.310065    3.283893
      4          6           0        8.316953   -3.269991    2.177131
      5          6           0        8.558362   -2.341149   -2.444110
      6          7           0        8.519879    1.587860    0.780540
      7          6           0        8.536884    2.641678   -0.029614
      8          6           0        8.658585    3.999254    0.725071
      9          6           0        9.342620    3.480059    2.068399
     10          6           0        8.830700    2.050427    2.064811
     11          6           0       10.866461    3.456281    2.006379
     12          6           0        7.262569    4.649761    1.007403
     13          6           0        7.301745    6.117233    1.443689
     14          1           0        6.238605    7.007533    1.002728
     15          7           0        8.019576   -0.891256    2.471837
     16          6           0        8.323124   -0.006661    3.451957
     17          6           0        8.099278   -0.719539    4.728036
     18          6           0        7.823697   -2.147952    4.408999
     19          6           0        8.071438   -2.165843    2.989956
     20          6           0        8.109803   -0.040091    6.062948
     21          6           0        7.413899   -3.314405    5.251368
     22          8           0        7.453781   -4.515614    4.815387
     23          6           0        7.043886   -3.018831    6.647351
     24          7           0        8.614267   -2.525978   -0.005951
     25          6           0        8.569864   -3.517798    0.890323
     26          6           0        8.695348   -4.857944    0.228356
     27          6           0        8.590992   -4.586918   -1.341806
     28          6           0        8.500382   -3.041284   -1.308981
     29          6           0        9.985341   -5.634061    0.527643
     30          6           0        7.506490   -5.372964   -2.120527
     31          6           0        6.131387   -4.913931   -1.689854
     32          7           0        8.240595   -0.082610   -1.586182
     33          6           0        8.452541   -0.975281   -2.646791
     34          6           0        8.576863   -0.166828   -3.873582
     35          6           0        8.444284    1.149595   -3.436205
     36          6           0        8.275729    1.164156   -2.022108
     37          6           0        8.842746   -0.667889   -5.178449
     38          6           0        8.430445    2.548708   -3.831362
     39          8           0        8.435073    3.145514   -4.908996
     40          6           0        8.512010    3.441844   -2.515505
     41          6           0        7.456505    4.508362   -2.623939
     42          8           0        6.244158    4.213453   -2.599257
     43          8           0        8.029738    5.715305   -2.500515
     44          6           0        7.033301    6.817352   -2.569508
     45          1           0        9.242886    1.752610    4.180064
     46          1           0        8.287090   -4.231625    2.693663
     47          1           0        8.615949   -2.828915   -3.418902
     48          1           0        9.301852    4.733209    0.239333
     49          1           0        8.973836    4.012411    2.944939
     50          1           0       11.227838    3.678201    1.002347
     51          1           0       11.153986    2.446505    2.299937
     52          1           0       11.295115    4.120204    2.757537
     53          1           0        6.831609    4.201502    1.902611
     54          1           0        6.607509    4.548471    0.141399
     55          1           0        8.277882    6.563940    1.252587
     56          1           0        7.194471    6.154215    2.527812
     57          1           0        8.503007    0.973368    5.993410
     58          1           0        8.831982   -0.569617    6.684053
     59          1           0        7.130193   -0.059020    6.540795
     60          1           0        7.887439   -2.546153    7.150881
     61          1           0        6.693700   -3.959346    7.071202
     62          1           0        6.235487   -2.287102    6.651001
     63          1           0        7.885836   -5.520918    0.530981
     64          1           0        9.518734   -4.828386   -1.861095
     65          1           0        9.812648   -6.623597    0.951555
     66          1           0       10.598305   -5.025571    1.191952
     67          1           0       10.650918   -5.760880   -0.325786
     68          1           0        7.574503   -6.436825   -1.895758
     69          1           0        7.583746   -5.256802   -3.201632
     70          1           0        5.950187   -5.499642   -0.789331
     71          1           0        5.394817   -5.144410   -2.460278
     72          1           0        6.135221   -3.863061   -1.399781
     73          1           0        8.174976   -0.132002   -5.852894
     74          1           0        8.678359   -1.743932   -5.230517
     75          1           0        9.893651   -0.400276   -5.287257
     76          1           0        9.516782    3.862010   -2.483625
     77          1           0        7.351264    7.488061   -3.367809
     78          1           0        6.956628    7.229239   -1.563091
     79          1           0        6.035705    6.544264   -2.915289
     80         12           0       -7.736602   -0.757408   -0.369935
     81          6           0      -10.230609    1.640868    0.582571
     82          6           0       -5.808334    1.870131   -1.376132
     83          6           0       -5.713976   -2.852558   -1.629601
     84          6           0      -10.252331   -3.169210   -0.363123
     85          7           0       -8.084046    1.426866   -0.347766
     86          6           0       -9.043548    2.225717    0.094428
     87          6           0       -8.680191    3.734819    0.083139
     88          6           0       -7.549654    3.701420   -1.056878
     89          6           0       -7.087602    2.254100   -0.900580
     90          6           0       -8.105030    3.876565   -2.460528
     91          6           0       -8.096704    4.219434    1.456710
     92          6           0       -8.009255    5.738650    1.618196
     93          1           0       -8.250371    6.313241    2.938868
     94          7           0       -5.836524   -0.547481   -0.903033
     95          6           0       -5.212515    0.595200   -1.258245
     96          6           0       -3.828301    0.214579   -1.579555
     97          6           0       -3.729700   -1.269921   -1.543882
     98          6           0       -5.124971   -1.622774   -1.374156
     99          6           0       -2.738217    1.222234   -1.802648
    100          6           0       -2.572828   -2.215849   -1.658097
    101          8           0       -2.746190   -3.472939   -1.838442
    102          6           0       -1.231054   -1.615016   -1.646171
    103          7           0       -7.984619   -2.679244   -1.123181
    104          6           0       -6.931605   -3.391144   -1.561676
    105          6           0       -7.308632   -4.834433   -1.796533
    106          6           0       -8.779929   -4.998058   -1.191476
    107          6           0       -9.045689   -3.535230   -0.773254
    108          6           0       -7.304020   -5.294469   -3.254176
    109          6           0       -8.985898   -6.117925   -0.134998
    110          6           0       -8.228880   -5.780323    1.129253
    111          7           0       -9.817272   -0.832980    0.207266
    112          6           0      -10.691899   -1.936694    0.102793
    113          6           0      -12.032449   -1.470177    0.512322
    114          6           0      -11.848010   -0.110884    0.806961
    115          6           0      -10.492809    0.249474    0.576593
    116          6           0      -13.218313   -2.257318    0.528062
    117          6           0      -12.493909    1.103598    1.250289
    118          8           0      -13.613665    1.387175    1.673919
    119          6           0      -11.503224    2.321843    1.003695
    120          6           0      -11.470885    3.154987    2.255633
    121          8           0      -11.002311    2.692489    3.310696
    122          8           0      -11.795383    4.424199    1.948788
    123          6           0      -11.766432    5.291721    3.156428
    124          1           0       -5.219528    2.601956   -1.929881
    125          1           0       -5.034347   -3.641145   -1.960840
    126          1           0      -11.068820   -3.883972   -0.240122
    127          1           0       -9.487294    4.394190   -0.212811
    128          1           0       -6.738143    4.387506   -0.828620
    129          1           0       -9.184874    3.876362   -2.469469
    130          1           0       -7.721767    3.043157   -3.034638
    131          1           0       -7.688346    4.776841   -2.921172
    132          1           0       -7.030253    3.963887    1.502874
    133          1           0       -8.649725    3.800331    2.274729
    134          1           0       -8.593536    6.268483    0.856068
    135          1           0       -6.978653    6.048924    1.429490
    136          1           0       -3.144731    2.233238   -1.929189
    137          1           0       -2.281370    0.990027   -2.770756
    138          1           0       -1.966995    1.186412   -1.030252
    139          1           0       -1.145812   -0.905461   -2.465747
    140          1           0       -0.534437   -2.455610   -1.647243
    141          1           0       -1.112687   -1.041699   -0.719941
    142          1           0       -6.636065   -5.500429   -1.270018
    143          1           0       -9.516583   -5.240689   -1.971420
    144          1           0       -6.640609   -6.160959   -3.436304
    145          1           0       -7.015112   -4.457158   -3.875447
    146          1           0       -8.280135   -5.556456   -3.658855
    147          1           0       -8.575370   -7.062726   -0.499655
    148          1           0      -10.027873   -6.293200    0.111115
    149          1           0       -7.214014   -6.124472    0.908547
    150          1           0       -8.649286   -6.311409    1.980866
    151          1           0       -8.183114   -4.695916    1.282882
    152          1           0      -13.732388   -2.027397    1.451839
    153          1           0      -12.991983   -3.318783    0.451694
    154          1           0      -13.715978   -1.878176   -0.368520
    155          1           0      -11.880745    2.883080    0.148085
    156          1           0      -12.748680    5.768490    3.230938
    157          1           0      -10.892268    5.956900    3.025538
    158          1           0      -11.693971    4.804644    4.121807
 ---------------------------------------------------------------------

 SCF Done:  E(RCAM-B3LYP) =  -4069.81202814     A.U. after   19 cycles

 Excitation energies and oscillator strengths:

 Excited State   1:      Singlet-A      1.6731 eV  741.07 nm  f=0.2876  <S**2>=0.000
     310 -> 316        0.14578
     311 -> 313        0.37068
     312 -> 314        0.57741
 This state for optimization and/or second-order correction.
 Total Energy, E(TD-HF/TD-DFT) =  -4069.75054467
 Copying the excited state density for this state as the 1-particle RhoCI density.

 Excited State   2:      Singlet-A      1.6823 eV  736.98 nm  f=0.4945  <S**2>=0.000
     309 -> 315        0.14841
     311 -> 313        0.57689
     312 -> 314       -0.37050

 Excited State   3:      Singlet-A      2.1870 eV  566.92 nm  f=0.0529  <S**2>=0.000
     309 -> 313       -0.15758
     310 -> 314        0.62288
     312 -> 316       -0.26528

 Excited State   4:      Singlet-A      2.1937 eV  565.19 nm  f=0.1397  <S**2>=0.000
     309 -> 313        0.62109
     310 -> 314        0.15657
     311 -> 315       -0.27046

 Excited State   5:      Singlet-A      2.7438 eV  451.88 nm  f=0.0000  <S**2>=0.000
     312 -> 313        0.70701

 The electronic state is 1-A.
 Alpha  occ. eigenvalues --  -46.87886 -46.87569 -19.26442 -19.26298 -19.19184
 Alpha  occ. eigenvalues --  -19.19104 -19.18873 -19.18581 -19.18275 -19.17970
 Alpha  occ. eigenvalues --  -14.42541 -14.42407 -14.41530 -14.41270 -14.39489
 Alpha  occ. eigenvalues --  -14.39256 -14.38679 -14.38510 -10.39236 -10.39032
 Alpha  occ. eigenvalues --  -10.35504 -10.35253 -10.34498 -10.34149 -10.31850
 Alpha  occ. eigenvalues --  -10.31716 -10.31502 -10.31223 -10.31003 -10.30926
 Alpha  occ. eigenvalues --  -10.30662 -10.30592 -10.30307 -10.30275 -10.30269
 Alpha  occ. eigenvalues --  -10.30043 -10.29998 -10.29813 -10.29714 -10.29334
 Alpha  occ. eigenvalues --  -10.29333 -10.29297 -10.28862 -10.28685 -10.28639
 Alpha  occ. eigenvalues --  -10.28601 -10.28457 -10.28308 -10.28218 -10.28054
 Alpha  occ. eigenvalues --  -10.27903 -10.27880 -10.27814 -10.27666 -10.27572
 Alpha  occ. eigenvalues --  -10.27551 -10.27544 -10.27498 -10.27494 -10.27440
 Alpha  occ. eigenvalues --  -10.27394 -10.27356 -10.27298 -10.27277 -10.27275
 Alpha  occ. eigenvalues --  -10.26976 -10.26847 -10.26627 -10.26452 -10.26324
 Alpha  occ. eigenvalues --  -10.26221 -10.26203 -10.26096 -10.26070 -10.25936
 Alpha  occ. eigenvalues --  -10.25926 -10.25844 -10.25777 -10.25472 -10.25322
 Alpha  occ. eigenvalues --  -10.24924 -10.24866 -10.24779 -10.24695 -10.24666
 Alpha  occ. eigenvalues --  -10.24599  -3.16630  -3.16319  -1.91512  -1.91202
 Alpha  occ. eigenvalues --   -1.91098  -1.90940  -1.90790  -1.90627  -1.16791
 Alpha  occ. eigenvalues --   -1.16591  -1.08738  -1.08581  -1.07272  -1.06888
 Alpha  occ. eigenvalues --   -1.06833  -1.06803  -1.04674  -1.04404  -1.03843
 Alpha  occ. eigenvalues --   -1.03571  -1.03319  -1.02947  -1.02496  -1.02019
 Alpha  occ. eigenvalues --   -0.92070  -0.91900  -0.89583  -0.89410  -0.89294
 Alpha  occ. eigenvalues --   -0.89069  -0.88346  -0.88139  -0.87958  -0.87763
 Alpha  occ. eigenvalues --   -0.87707  -0.87594  -0.87347  -0.86983  -0.85084
 Alpha  occ. eigenvalues --   -0.84914  -0.83993  -0.83798  -0.83025  -0.82799
 Alpha  occ. eigenvalues --   -0.82743  -0.82550  -0.81701  -0.81523  -0.80693
 Alpha  occ. eigenvalues --   -0.80355  -0.78876  -0.78518  -0.77301  -0.77052
 Alpha  occ. eigenvalues --   -0.77035  -0.76823  -0.76026  -0.75752  -0.74965
 Alpha  occ. eigenvalues --   -0.74720  -0.72857  -0.72607  -0.71757  -0.71494
 Alpha  occ. eigenvalues --   -0.69951  -0.69681  -0.68969  -0.68737  -0.67729
 Alpha  occ. eigenvalues --   -0.67509  -0.67323  -0.67103  -0.65391  -0.65190
 Alpha  occ. eigenvalues --   -0.64950  -0.64713  -0.64685  -0.64572  -0.64335
 Alpha  occ. eigenvalues --   -0.64122  -0.62417  -0.62208  -0.60513  -0.60221
 Alpha  occ. eigenvalues --   -0.59904  -0.59709  -0.59074  -0.58906  -0.58593
 Alpha  occ. eigenvalues --   -0.58338  -0.57701  -0.57480  -0.57387  -0.57141
 Alpha  occ. eigenvalues --   -0.56399  -0.56107  -0.56106  -0.55812  -0.55602
 Alpha  occ. eigenvalues --   -0.55420  -0.55344  -0.55172  -0.54617  -0.54416
 Alpha  occ. eigenvalues --   -0.54002  -0.53830  -0.53378  -0.53316  -0.53132
 Alpha  occ. eigenvalues --   -0.53043  -0.53019  -0.52835  -0.52819  -0.52529
 Alpha  occ. eigenvalues --   -0.52479  -0.52326  -0.52003  -0.51805  -0.51719
 Alpha  occ. eigenvalues --   -0.51559  -0.51287  -0.51119  -0.50633  -0.50324
 Alpha  occ. eigenvalues --   -0.50088  -0.49992  -0.49872  -0.49772  -0.49605
 Alpha  occ. eigenvalues --   -0.49377  -0.49308  -0.49195  -0.49102  -0.49021
 Alpha  occ. eigenvalues --   -0.48697  -0.48534  -0.48519  -0.48475  -0.48296
 Alpha  occ. eigenvalues --   -0.48214  -0.47779  -0.47494  -0.47377  -0.47007
 Alpha  occ. eigenvalues --   -0.46878  -0.46661  -0.46623  -0.46465  -0.46443
 Alpha  occ. eigenvalues --   -0.46249  -0.46174  -0.46004  -0.45928  -0.45749
 Alpha  occ. eigenvalues --   -0.45262  -0.45125  -0.44678  -0.44583  -0.44432
 Alpha  occ. eigenvalues --   -0.44386  -0.44222  -0.44178  -0.44109  -0.44039
 Alpha  occ. eigenvalues --   -0.43985  -0.43820  -0.43605  -0.43484  -0.43472
 Alpha  occ. eigenvalues --   -0.43301  -0.43114  -0.42860  -0.42830  -0.42819
 Alpha  occ. eigenvalues --   -0.42715  -0.42463  -0.42084  -0.41887  -0.41794
 Alpha  occ. eigenvalues --   -0.41632  -0.41584  -0.41377  -0.41227  -0.40958
 Alpha  occ. eigenvalues --   -0.40902  -0.40894  -0.40634  -0.40631  -0.40588
 Alpha  occ. eigenvalues --   -0.40414  -0.40352  -0.40141  -0.39479  -0.39350
 Alpha  occ. eigenvalues --   -0.38534  -0.38271  -0.37865  -0.37579  -0.37389
 Alpha  occ. eigenvalues --   -0.37369  -0.37183  -0.37112  -0.36842  -0.36710
 Alpha  occ. eigenvalues --   -0.36291  -0.36140  -0.34375  -0.34165  -0.33921
 Alpha  occ. eigenvalues --   -0.33799  -0.33277  -0.33085  -0.31403  -0.31144
 Alpha  occ. eigenvalues --   -0.31122  -0.30880  -0.30137  -0.29877  -0.29532
 Alpha  occ. eigenvalues --   -0.29412  -0.29220  -0.29117  -0.24169  -0.23946
 Alpha  occ. eigenvalues --   -0.21212  -0.21023
 Alpha virt. eigenvalues --   -0.08859  -0.08693  -0.01831  -0.01590  -0.00138
 Alpha virt. eigenvalues --    0.00085   0.02108   0.02295   0.02998   0.03304
 Alpha virt. eigenvalues --    0.04619   0.04812   0.04949   0.05227   0.06051

 Mulliken charges:
               1
     1  Mg   0.837966
     2  C   -0.003455
     3  C   -0.094273
     4  C   -0.045620
     5  C   -0.063731
     6  N   -0.256810
     7  C   -0.052688
     8  C   -0.013951
     9  C   -0.086968
    10  C    0.046182
    11  C    0.104756
    12  C    0.053519
    13  C   -0.071623
    14  H    0.035244
    15  N   -0.433224
    16  C    0.168384
    17  C   -0.177129
    18  C   -0.003822
    19  C    0.148673
    20  C    0.110140
    21  C    0.012445
    22  O   -0.249114
    23  C    0.062424
    24  N   -0.341130
    25  C    0.041284
    26  C   -0.028264
    27  C   -0.024044
    28  C    0.074807
    29  C    0.076085
    30  C    0.035033
    31  C   -0.004624
    32  N   -0.310354
    33  C    0.080099
    34  C   -0.169844
    35  C    0.008210
    36  C    0.082599
    37  C    0.127376
    38  C    0.045750
    39  O   -0.188759
    40  C   -0.005187
    41  C    0.212998
    42  O   -0.258204
    43  O   -0.304472
    44  C    0.157897
    45  H   -0.017441
    46  H   -0.016389
    47  H   -0.041220
    48  H    0.000972
    49  H   -0.004062
    50  H    0.025530
    51  H    0.016667
    52  H    0.016820
    53  H    0.011006
    54  H    0.043319
    55  H    0.018236
    56  H    0.018159
    57  H    0.005854
    58  H    0.027139
    59  H    0.039673
    60  H    0.037401
    61  H    0.036156
    62  H    0.031467
    63  H    0.017031
    64  H    0.009567
    65  H    0.023581
    66  H    0.012476
    67  H    0.004891
    68  H    0.006858
    69  H    0.004779
    70  H    0.009353
    71  H    0.019046
    72  H    0.028039
    73  H    0.047231
    74  H    0.009395
    75  H    0.046146
    76  H    0.035338
    77  H    0.043123
    78  H    0.046469
    79  H    0.052805
    80  Mg   0.837489
    81  C   -0.016897
    82  C   -0.087700
    83  C   -0.045490
    84  C   -0.064918
    85  N   -0.254545
    86  C   -0.050069
    87  C   -0.015059
    88  C   -0.090499
    89  C    0.045672
    90  C    0.114330
    91  C    0.062538
    92  C   -0.077726
    93  H    0.034330
    94  N   -0.423566
    95  C    0.162838
    96  C   -0.174311
    97  C   -0.007615
    98  C    0.152140
    99  C    0.099173
   100  C    0.015537
   101  O   -0.253498
   102  C    0.061345
   103  N   -0.350004
   104  C    0.037595
   105  C   -0.019848
   106  C   -0.034710
   107  C    0.088725
   108  C    0.073673
   109  C    0.034793
   110  C   -0.007638
   111  N   -0.323999
   112  C    0.078163
   113  C   -0.163399
   114  C    0.002099
   115  C    0.095997
   116  C    0.131544
   117  C    0.042175
   118  O   -0.188349
   119  C    0.000962
   120  C    0.211222
   121  O   -0.251193
   122  O   -0.305597
   123  C    0.152126
   124  H   -0.019047
   125  H   -0.015540
   126  H   -0.040735
   127  H   -0.000807
   128  H   -0.004211
   129  H    0.022301
   130  H    0.014645
   131  H    0.016449
   132  H    0.013917
   133  H    0.037493
   134  H    0.020791
   135  H    0.019632
   136  H    0.009048
   137  H    0.027707
   138  H    0.040712
   139  H    0.039838
   140  H    0.036438
   141  H    0.033902
   142  H    0.014350
   143  H    0.012253
   144  H    0.025041
   145  H    0.011814
   146  H    0.005543
   147  H    0.006098
   148  H    0.003479
   149  H    0.010941
   150  H    0.017698
   151  H    0.030161
   152  H    0.045714
   153  H    0.008323
   154  H    0.046740
   155  H    0.034903
   156  H    0.043740
   157  H    0.049440
   158  H    0.053391
 Sum of Mulliken charges =  -0.00000

 Dipole moment (field-independent basis, Debye):
    X=              4.9774    Y=              2.8878    Z=              1.6382  Tot=              5.9831
 Quadrupole moment (field-independent basis, Debye-Ang):
   XX=           -548.9720   YY=           -468.9992   ZZ=           -517.6297
   XY=             13.9383   XZ=             63.4443   YZ=             31.9824

 Normal termination of Gaussian 16 at Sat Sep 11 19:01:34 2021.
