 Gaussian 16, Revision A.03,
 Gaussian 16:  ES64L-G16RevA.03 25-Dec-2016

 -----------------------------------
 #p cam-b3lyp/Def2SVP td=(nstates=5)
 -----------------------------------

 --------------------------------
 TDDFT excited states in gaussian
 --------------------------------
 Symbolic Z-matrix:
 Charge =  0 Multiplicity = 1

                         Standard orientation:
 ---------------------------------------------------------------------
 Center     Atomic      Atomic             Coordinates (Angstroms)
 Number     Number       Type             X           Y           Z
 ---------------------------------------------------------------------
      1         12           0       -3.200857   -2.195444    0.234466
      2          6           0       -5.399106    0.612219   -0.076900
      3          6           0       -3.899371   -2.914982   -3.027038
      4          6           0       -1.630510   -4.924360    0.613476
      5          6           0       -3.572519   -1.915946    3.688364
      6          7           0       -4.498701   -1.201368   -1.258203
      7          6           0       -5.241017   -0.098631   -1.268682
      8          6           0       -5.774737    0.273419   -2.684342
      9          6           0       -5.720923   -1.169309   -3.360832
     10          6           0       -4.616311   -1.789243   -2.523312
     11          6           0       -6.997938   -1.980768   -3.167777
     12          6           0       -4.839889    1.288387   -3.424362
     13          6           0       -5.446506    1.950700   -4.664810
     14          1           0       -5.106535    3.335157   -4.956434
     15          7           0       -2.428869   -3.425993   -1.104426
     16          6           0       -2.826306   -3.575791   -2.390851
     17          6           0       -1.942299   -4.608456   -2.972930
     18          6           0       -1.124090   -5.182086   -1.868585
     19          6           0       -1.721317   -4.543972   -0.723374
     20          6           0       -1.898185   -4.923927   -4.436583
     21          6           0        0.008341   -6.159477   -1.847635
     22          8           0        0.422708   -6.697251   -0.764273
     23          6           0        0.569231   -6.543178   -3.155770
     24          7           0       -2.845664   -3.410731    1.894149
     25          6           0       -2.085709   -4.507065    1.796651
     26          6           0       -1.740334   -5.054143    3.149929
     27          6           0       -2.223577   -3.958451    4.206190
     28          6           0       -2.872533   -2.953088    3.223149
     29          6           0       -2.363549   -6.411995    3.501857
     30          6           0       -1.164977   -3.432123    5.207571
     31          6           0       -0.114950   -2.631233    4.470606
     32          7           0       -4.138406   -0.793565    1.600770
     33          6           0       -4.189686   -0.885396    2.999202
     34          6           0       -5.022202    0.234514    3.475422
     35          6           0       -5.413563    0.894664    2.312287
     36          6           0       -4.882187    0.214016    1.179746
     37          6           0       -5.373072    0.495111    4.829459
     38          6           0       -6.177358    2.002421    1.761517
     39          8           0       -6.767625    2.971745    2.240569
     40          6           0       -6.299294    1.793429    0.187579
     41          6           0       -5.955822    3.100960   -0.472495
     42          8           0       -4.797799    3.562394   -0.413940
     43          8           0       -6.972147    3.480877   -1.261982
     44          6           0       -6.683711    4.756794   -1.969790
     45          1           0       -4.223769   -3.370969   -3.964472
     46          1           0       -1.003814   -5.799674    0.796546
     47          1           0       -3.663151   -1.715880    4.757575
     48          1           0       -6.796256    0.653807   -2.699443
     49          1           0       -5.419557   -1.117306   -4.406870
     50          1           0       -7.687058   -1.482888   -2.485758
     51          1           0       -6.675797   -2.936193   -2.753191
     52          1           0       -7.459348   -2.211275   -4.128373
     53          1           0       -4.015895    0.745953   -3.887892
     54          1           0       -4.489058    2.060402   -2.738624
     55          1           0       -6.526401    1.805706   -4.706201
     56          1           0       -5.069686    1.433183   -5.547070
     57          1           0       -2.726786   -4.461134   -4.971173
     58          1           0       -2.074403   -5.994713   -4.536954
     59          1           0       -0.937824   -4.665954   -4.883225
     60          1           0       -0.217055   -6.983517   -3.769290
     61          1           0        1.426979   -7.179317   -2.940259
     62          1           0        0.897077   -5.643318   -3.677036
     63          1           0       -0.665367   -5.197939    3.250897
     64          1           0       -3.028719   -4.329349    4.840899
     65          1           0       -1.630540   -7.175827    3.762556
     66          1           0       -2.976782   -6.729908    2.659142
     67          1           0       -3.098454   -6.382998    4.305903
     68          1           0       -0.653437   -4.263935    5.690646
     69          1           0       -1.588614   -2.803393    5.990821
     70          1           0        0.567495   -3.399394    4.108625
     71          1           0        0.392071   -1.949036    5.153796
     72          1           0       -0.535442   -2.131382    3.597782
     73          1           0       -5.260251    1.569732    4.972397
     74          1           0       -4.739791   -0.064644    5.517378
     75          1           0       -6.407156    0.150994    4.839912
     76          1           0       -7.327757    1.492833   -0.009977
     77          1           0       -7.491815    5.447456   -1.728565
     78          1           0       -6.532246    4.501829   -3.018816
     79          1           0       -5.819340    5.319697   -1.615752
     80         12           0        3.334826    2.314603   -0.021748
     81          6           0        5.143640   -0.707064   -0.712255
     82          6           0        3.120658    1.269316    3.218019
     83          6           0        1.359084    4.736397    0.524861
     84          6           0        2.705979    2.555228   -3.441152
     85          7           0        4.076512    0.497933    0.998972
     86          6           0        4.804251   -0.551599    0.647918
     87          6           0        5.258117   -1.445096    1.833341
     88          6           0        4.107024   -1.055022    2.882963
     89          6           0        3.764389    0.339538    2.362898
     90          6           0        2.866997   -1.925859    2.767450
     91          6           0        6.680039   -1.052086    2.367855
     92          6           0        7.315769   -2.072422    3.314698
     93          1           0        8.762227   -2.265511    3.260354
     94          7           0        2.793048    3.169943    1.685137
     95          6           0        2.789675    2.607637    2.911950
     96          6           0        2.287024    3.643328    3.827843
     97          6           0        1.838536    4.808347    3.017728
     98          6           0        1.962919    4.263272    1.680751
     99          6           0        2.339380    3.503605    5.321551
    100          6           0        1.362707    6.181003    3.385995
    101          8           0        0.798090    6.950101    2.530118
    102          6           0        1.492665    6.562523    4.799878
    103          7           0        2.019224    3.364100   -1.242443
    104          6           0        1.317731    4.407810   -0.766512
    105          6           0        0.653053    5.173954   -1.885270
    106          6           0        1.253978    4.567458   -3.237535
    107          6           0        2.133877    3.446066   -2.642855
    108          6           0       -0.873016    5.098641   -1.928092
    109          6           0        1.904529    5.569531   -4.230176
    110          6           0        3.166267    6.145820   -3.629101
    111          7           0        3.971434    1.262321   -1.798109
    112          6           0        3.566625    1.510935   -3.127926
    113          6           0        4.177842    0.463897   -3.972054
    114          6           0        4.882729   -0.341057   -3.064476
    115          6           0        4.705642    0.156608   -1.745206
    116          6           0        4.005578    0.323058   -5.377964
    117          6           0        5.727651   -1.504787   -2.921231
    118          8           0        6.281223   -2.277806   -3.702098
    119          6           0        5.830918   -1.867326   -1.377115
    120          6           0        7.280289   -2.103372   -1.051346
    121          8           0        8.103282   -1.173603   -1.120840
    122          8           0        7.415779   -3.325548   -0.505175
    123          6           0        8.834495   -3.601698   -0.154742
    124          1           0        2.799570    0.931544    4.203774
    125          1           0        0.755036    5.638861    0.643917
    126          1           0        2.637913    2.617776   -4.529329
    127          1           0        5.234771   -2.509860    1.634571
    128          1           0        4.498233   -0.998915    3.895462
    129          1           0        2.918269   -2.589071    1.916771
    130          1           0        2.035361   -1.241248    2.663858
    131          1           0        2.697569   -2.466507    3.703034
    132          1           0        6.582566   -0.197862    3.050163
    133          1           0        7.349409   -0.847320    1.555061
    134          1           0        6.797754   -3.038787    3.287312
    135          1           0        7.179957   -1.724530    4.341609
    136          1           0        2.566940    2.473232    5.621448
    137          1           0        1.324262    3.677204    5.694719
    138          1           0        3.015404    4.223089    5.788456
    139          1           0        0.940992    5.856910    5.416499
    140          1           0        1.183119    7.608249    4.850021
    141          1           0        2.545904    6.477431    5.089814
    142          1           0        0.899698    6.227271   -1.832470
    143          1           0        0.479474    4.072274   -3.841498
    144          1           0       -1.360204    6.091299   -1.891352
    145          1           0       -1.207456    4.480246   -1.105730
    146          1           0       -1.285702    4.578610   -2.790912
    147          1           0        1.233618    6.412927   -4.411062
    148          1           0        2.138609    5.131590   -5.194743
    149          1           0        2.790907    6.957386   -2.998596
    150          1           0        3.824112    6.523911   -4.409056
    151          1           0        3.657248    5.418295   -2.972369
    152          1           0        4.981218    0.103430   -5.790731
    153          1           0        3.579946    1.222288   -5.818423
    154          1           0        3.307257   -0.517694   -5.405645
    155          1           0        5.223177   -2.757081   -1.208157
    156          1           0        9.112444   -4.532946   -0.657925
    157          1           0        8.875982   -3.594660    0.950688
    158          1           0        9.586732   -2.921876   -0.537409
 ---------------------------------------------------------------------

 SCF Done:  E(RCAM-B3LYP) =  -4069.81147198     A.U. after   19 cycles

 Excitation energies and oscillator strengths:

 Excited State   1:      Singlet-A      1.6389 eV  756.51 nm  f=0.0132  <S**2>=0.000
     309 -> 315        0.11038
     310 -> 316        0.12265
     311 -> 313        0.46086
     312 -> 314        0.51117
 This state for optimization and/or second-order correction.
 Total Energy, E(TD-HF/TD-DFT) =  -4069.75124376
 Copying the excited state density for this state as the 1-particle RhoCI density.

 Excited State   2:      Singlet-A      1.7101 eV  725.00 nm  f=0.6641  <S**2>=0.000
     309 -> 315        0.13631
     310 -> 316       -0.12254
     311 -> 313        0.50780
     312 -> 314       -0.45777

 Excited State   3:      Singlet-A      2.1786 eV  569.10 nm  f=0.0143  <S**2>=0.000
     309 -> 313        0.33519
     310 -> 314        0.55301
     311 -> 315       -0.13683
     312 -> 316       -0.22692

 Excited State   4:      Singlet-A      2.1995 eV  563.70 nm  f=0.1542  <S**2>=0.000
     309 -> 313        0.54588
     310 -> 314       -0.32929
     311 -> 315       -0.24300
     312 -> 316        0.14805

 Excited State   5:      Singlet-A      2.2316 eV  555.59 nm  f=0.0000  <S**2>=0.000
     312 -> 313        0.70700

 The electronic state is 1-A.
 Alpha  occ. eigenvalues --  -46.87933 -46.87380 -19.26400 -19.26142 -19.19164
 Alpha  occ. eigenvalues --  -19.18954 -19.18864 -19.18382 -19.18265 -19.17838
 Alpha  occ. eigenvalues --  -14.42586 -14.42214 -14.41612 -14.41058 -14.39526
 Alpha  occ. eigenvalues --  -14.39066 -14.38719 -14.38336 -10.39211 -10.38878
 Alpha  occ. eigenvalues --  -10.35486 -10.35057 -10.34489 -10.34016 -10.31782
 Alpha  occ. eigenvalues --  -10.31574 -10.31544 -10.31067 -10.31028 -10.30724
 Alpha  occ. eigenvalues --  -10.30704 -10.30647 -10.30375 -10.30130 -10.30118
 Alpha  occ. eigenvalues --  -10.30101 -10.29818 -10.29750 -10.29572 -10.29376
 Alpha  occ. eigenvalues --  -10.29152 -10.29140 -10.28887 -10.28715 -10.28478
 Alpha  occ. eigenvalues --  -10.28459 -10.28437 -10.28245 -10.28124 -10.27906
 Alpha  occ. eigenvalues --  -10.27859 -10.27849 -10.27778 -10.27742 -10.27705
 Alpha  occ. eigenvalues --  -10.27687 -10.27536 -10.27514 -10.27404 -10.27273
 Alpha  occ. eigenvalues --  -10.27236 -10.27202 -10.27198 -10.27171 -10.26904
 Alpha  occ. eigenvalues --  -10.26877 -10.26807 -10.26585 -10.26460 -10.26345
 Alpha  occ. eigenvalues --  -10.26321 -10.26192 -10.26099 -10.25996 -10.25889
 Alpha  occ. eigenvalues --  -10.25760 -10.25667 -10.25648 -10.25629 -10.25255
 Alpha  occ. eigenvalues --  -10.24946 -10.24942 -10.24622 -10.24598 -10.24501
 Alpha  occ. eigenvalues --  -10.24350  -3.16676  -3.16130  -1.91557  -1.91144
 Alpha  occ. eigenvalues --   -1.91013  -1.90986  -1.90601  -1.90438  -1.16750
 Alpha  occ. eigenvalues --   -1.16436  -1.08722  -1.08455  -1.07263  -1.06768
 Alpha  occ. eigenvalues --   -1.06739  -1.06623  -1.04714  -1.04216  -1.03914
 Alpha  occ. eigenvalues --   -1.03374  -1.03368  -1.02746  -1.02551  -1.01823
 Alpha  occ. eigenvalues --   -0.92101  -0.91722  -0.89765  -0.89327  -0.89200
 Alpha  occ. eigenvalues --   -0.88875  -0.88517  -0.88002  -0.87866  -0.87818
 Alpha  occ. eigenvalues --   -0.87587  -0.87398  -0.87341  -0.86847  -0.85125
 Alpha  occ. eigenvalues --   -0.84726  -0.84215  -0.83511  -0.83062  -0.82752
 Alpha  occ. eigenvalues --   -0.82613  -0.82370  -0.81719  -0.81362  -0.80720
 Alpha  occ. eigenvalues --   -0.80182  -0.78894  -0.78382  -0.77413  -0.77106
 Alpha  occ. eigenvalues --   -0.76875  -0.76605  -0.76057  -0.75586  -0.75095
 Alpha  occ. eigenvalues --   -0.74377  -0.72927  -0.72437  -0.71821  -0.71247
 Alpha  occ. eigenvalues --   -0.70242  -0.69429  -0.69006  -0.68552  -0.67765
 Alpha  occ. eigenvalues --   -0.67338  -0.67317  -0.66941  -0.65438  -0.65021
 Alpha  occ. eigenvalues --   -0.65002  -0.64795  -0.64507  -0.64479  -0.64376
 Alpha  occ. eigenvalues --   -0.63885  -0.62439  -0.62033  -0.60554  -0.60036
 Alpha  occ. eigenvalues --   -0.59935  -0.59529  -0.59143  -0.58699  -0.58651
 Alpha  occ. eigenvalues --   -0.58145  -0.57710  -0.57471  -0.57326  -0.56931
 Alpha  occ. eigenvalues --   -0.56429  -0.56105  -0.55965  -0.55650  -0.55641
 Alpha  occ. eigenvalues --   -0.55552  -0.55193  -0.54939  -0.54733  -0.54180
 Alpha  occ. eigenvalues --   -0.54035  -0.53661  -0.53456  -0.53310  -0.53092
 Alpha  occ. eigenvalues --   -0.52959  -0.52884  -0.52838  -0.52735  -0.52635
 Alpha  occ. eigenvalues --   -0.52382  -0.52130  -0.52053  -0.51731  -0.51725
 Alpha  occ. eigenvalues --   -0.51403  -0.51362  -0.50956  -0.50629  -0.50268
 Alpha  occ. eigenvalues --   -0.50185  -0.50004  -0.49699  -0.49612  -0.49479
 Alpha  occ. eigenvalues --   -0.49328  -0.49223  -0.49210  -0.48956  -0.48840
 Alpha  occ. eigenvalues --   -0.48748  -0.48640  -0.48514  -0.48307  -0.48060
 Alpha  occ. eigenvalues --   -0.47984  -0.47832  -0.47418  -0.47313  -0.46992
 Alpha  occ. eigenvalues --   -0.46807  -0.46688  -0.46532  -0.46429  -0.46327
 Alpha  occ. eigenvalues --   -0.46255  -0.46001  -0.45962  -0.45785  -0.45586
 Alpha  occ. eigenvalues --   -0.45395  -0.44773  -0.44725  -0.44641  -0.44373
 Alpha  occ. eigenvalues --   -0.44260  -0.44214  -0.44165  -0.44103  -0.43851
 Alpha  occ. eigenvalues --   -0.43779  -0.43676  -0.43636  -0.43538  -0.43310
 Alpha  occ. eigenvalues --   -0.43197  -0.43097  -0.42960  -0.42810  -0.42697
 Alpha  occ. eigenvalues --   -0.42615  -0.42249  -0.42222  -0.41844  -0.41698
 Alpha  occ. eigenvalues --   -0.41674  -0.41396  -0.41293  -0.41195  -0.41065
 Alpha  occ. eigenvalues --   -0.40892  -0.40782  -0.40697  -0.40475  -0.40399
 Alpha  occ. eigenvalues --   -0.40368  -0.40154  -0.39967  -0.39615  -0.39116
 Alpha  occ. eigenvalues --   -0.38694  -0.37978  -0.37905  -0.37531  -0.37398
 Alpha  occ. eigenvalues --   -0.37371  -0.36964  -0.36925  -0.36864  -0.36522
 Alpha  occ. eigenvalues --   -0.36361  -0.35887  -0.34427  -0.33973  -0.33899
 Alpha  occ. eigenvalues --   -0.33639  -0.33327  -0.32897  -0.31403  -0.31172
 Alpha  occ. eigenvalues --   -0.30936  -0.30673  -0.30127  -0.29747  -0.29550
 Alpha  occ. eigenvalues --   -0.29436  -0.29059  -0.28963  -0.24223  -0.23752
 Alpha  occ. eigenvalues --   -0.21267  -0.20833
 Alpha virt. eigenvalues --   -0.08896  -0.08517  -0.01893  -0.01379  -0.00143
 Alpha virt. eigenvalues --    0.00259   0.02071   0.02358   0.02581   0.03614
 Alpha virt. eigenvalues --    0.04556   0.04942   0.05025   0.05385   0.05923

 Mulliken charges:
               1
     1  Mg   0.838975
     2  C   -0.002761
     3  C   -0.093636
     4  C   -0.047012
     5  C   -0.064681
     6  N   -0.256554
     7  C   -0.052851
     8  C   -0.013969
     9  C   -0.087074
    10  C    0.046332
    11  C    0.104702
    12  C    0.052810
    13  C   -0.071574
    14  H    0.034706
    15  N   -0.433448
    16  C    0.168923
    17  C   -0.176277
    18  C   -0.003139
    19  C    0.148991
    20  C    0.109992
    21  C    0.012532
    22  O   -0.250388
    23  C    0.062009
    24  N   -0.340926
    25  C    0.041551
    26  C   -0.029311
    27  C   -0.024523
    28  C    0.073680
    29  C    0.076225
    30  C    0.047359
    31  C   -0.031037
    32  N   -0.310547
    33  C    0.080015
    34  C   -0.170138
    35  C    0.008834
    36  C    0.083157
    37  C    0.127317
    38  C    0.046678
    39  O   -0.187784
    40  C   -0.005819
    41  C    0.213708
    42  O   -0.256742
    43  O   -0.304674
    44  C    0.157103
    45  H   -0.016992
    46  H   -0.017175
    47  H   -0.042649
    48  H    0.001248
    49  H   -0.003827
    50  H    0.025643
    51  H    0.016626
    52  H    0.017084
    53  H    0.011121
    54  H    0.043745
    55  H    0.018664
    56  H    0.018216
    57  H    0.005779
    58  H    0.027423
    59  H    0.041445
    60  H    0.037064
    61  H    0.037482
    62  H    0.034320
    63  H    0.016074
    64  H    0.010094
    65  H    0.023071
    66  H    0.013505
    67  H    0.004995
    68  H    0.004969
    69  H    0.002799
    70  H    0.020438
    71  H    0.015159
    72  H    0.036433
    73  H    0.047602
    74  H    0.007716
    75  H    0.046298
    76  H    0.035429
    77  H    0.043701
    78  H    0.045945
    79  H    0.054269
    80  Mg   0.836665
    81  C   -0.017233
    82  C   -0.088663
    83  C   -0.041874
    84  C   -0.065545
    85  N   -0.255064
    86  C   -0.050005
    87  C   -0.015007
    88  C   -0.091311
    89  C    0.045909
    90  C    0.105956
    91  C    0.063004
    92  C   -0.077525
    93  H    0.033897
    94  N   -0.424160
    95  C    0.164089
    96  C   -0.173926
    97  C   -0.005533
    98  C    0.152045
    99  C    0.099273
   100  C    0.016871
   101  O   -0.251000
   102  C    0.061124
   103  N   -0.350270
   104  C    0.039136
   105  C   -0.021160
   106  C   -0.033267
   107  C    0.088559
   108  C    0.071718
   109  C    0.034892
   110  C   -0.007339
   111  N   -0.323739
   112  C    0.078000
   113  C   -0.164741
   114  C    0.001267
   115  C    0.095839
   116  C    0.131940
   117  C    0.040721
   118  O   -0.190151
   119  C    0.001171
   120  C    0.210878
   121  O   -0.251511
   122  O   -0.305086
   123  C    0.152409
   124  H   -0.020598
   125  H   -0.012614
   126  H   -0.042387
   127  H    0.000294
   128  H   -0.006088
   129  H    0.024665
   130  H    0.018870
   131  H    0.019183
   132  H    0.013430
   133  H    0.037293
   134  H    0.021093
   135  H    0.018863
   136  H    0.007291
   137  H    0.027006
   138  H    0.039388
   139  H    0.038842
   140  H    0.036535
   141  H    0.032638
   142  H    0.013016
   143  H    0.010444
   144  H    0.023196
   145  H    0.027450
   146  H    0.003140
   147  H    0.005512
   148  H    0.001723
   149  H    0.011124
   150  H    0.016639
   151  H    0.030135
   152  H    0.045292
   153  H    0.007873
   154  H    0.043203
   155  H    0.035934
   156  H    0.043453
   157  H    0.049500
   158  H    0.052965
 Sum of Mulliken charges =  -0.00000

 Dipole moment (field-independent basis, Debye):
    X=             -3.1343    Y=             -3.1094    Z=              0.4519  Tot=              4.4381
 Quadrupole moment (field-independent basis, Debye-Ang):
   XX=           -537.0540   YY=           -531.9357   ZZ=           -451.7314
   XY=             20.6234   XZ=             58.4943   YZ=            -21.7256

 Normal termination of Gaussian 16 at Fri Sep  3 14:05:52 2021.
