 Gaussian 16, Revision A.03,
 Gaussian 16:  ES64L-G16RevA.03 25-Dec-2016

 -----------------------------------
 #p cam-b3lyp/Def2SVP td=(nstates=5)
 -----------------------------------

 --------------------------------
 TDDFT excited states in gaussian
 --------------------------------
 Symbolic Z-matrix:
 Charge =  0 Multiplicity = 1

                         Standard orientation:
 ---------------------------------------------------------------------
 Center     Atomic      Atomic             Coordinates (Angstroms)
 Number     Number       Type             X           Y           Z
 ---------------------------------------------------------------------
      1         12           0       -6.446869   -0.810558    0.031851
      2          6           0       -6.726942    2.024991    2.198284
      3          6           0       -7.369698    1.243924   -2.531459
      4          6           0       -6.648271   -3.382263   -1.812707
      5          6           0       -6.662612   -2.817082    2.873149
      6          7           0       -6.955411    1.343007   -0.032860
      7          6           0       -6.966370    2.330786    0.856715
      8          6           0       -7.181869    3.735297    0.217745
      9          6           0       -7.920733    3.291020   -1.123410
     10          6           0       -7.355720    1.888029   -1.258680
     11          6           0       -9.436626    3.198525   -0.981935
     12          6           0       -5.829685    4.463473   -0.087360
     13          6           0       -5.948981    5.956823   -0.405209
     14          1           0       -4.897019    6.855103    0.046251
     15          7           0       -6.458249   -0.977641   -1.936602
     16          6           0       -6.850046   -0.034908   -2.827127
     17          6           0       -6.672001   -0.639038   -4.165039
     18          6           0       -6.324965   -2.074650   -3.973525
     19          6           0       -6.491112   -2.210374   -2.548971
     20          6           0       -6.783783    0.138518   -5.440446
     21          6           0       -5.919688   -3.155675   -4.924979
     22          8           0       -5.889355   -4.387067   -4.582446
     23          6           0       -5.640751   -2.739914   -6.311478
     24          7           0       -6.849438   -2.818902    0.434502
     25          6           0       -6.818365   -3.737240   -0.537441
     26          6           0       -6.855386   -5.127764    0.023820
     27          6           0       -6.672625   -4.972290    1.602483
     28          6           0       -6.642550   -3.426170    1.685430
     29          6           0       -8.129972   -5.932564   -0.265557
     30          6           0       -5.516818   -5.768735    2.258382
     31          6           0       -4.186654   -5.220959    1.791796
     32          7           0       -6.479589   -0.488687    2.178097
     33          6           0       -6.597227   -1.467249    3.175721
     34          6           0       -6.682385   -0.759983    4.466686
     35          6           0       -6.624672    0.590195    4.126781
     36          6           0       -6.537121    0.718895    2.711131
     37          6           0       -6.854819   -1.369176    5.740885
     38          6           0       -6.641416    1.954699    4.628482
     39          8           0       -6.607596    2.467447    5.748053
     40          6           0       -6.831077    2.940709    3.392504
     41          6           0       -5.812225    4.039408    3.527072
     42          8           0       -4.592934    3.798482    3.414605
     43          8           0       -6.436770    5.227046    3.528968
     44          6           0       -5.480426    6.361643    3.630203
     45          1           0       -7.875444    1.734200   -3.365600
     46          1           0       -6.611346   -4.299902   -2.403479
     47          1           0       -6.646425   -3.379267    3.808638
     48          1           0       -7.823905    4.402640    0.792956
     49          1           0       -7.622570    3.903274   -1.974272
     50          1           0       -9.748713    3.328363    0.054243
     51          1           0       -9.701908    2.202685   -1.337492
     52          1           0       -9.931928    3.898811   -1.655028
     53          1           0       -5.433453    4.102832   -1.036570
     54          1           0       -5.123283    4.324531    0.731797
     55          1           0       -6.928930    6.346309   -0.127883
     56          1           0       -5.904735    6.080289   -1.487336
     57          1           0       -7.210473    1.126358   -5.271171
     58          1           0       -7.519420   -0.372356   -6.061376
     59          1           0       -5.832785    0.197066   -5.970074
     60          1           0       -6.528735   -2.266366   -6.730746
     61          1           0       -5.279798   -3.630059   -6.825489
     62          1           0       -4.862113   -1.976651   -6.301358
     63          1           0       -6.039808   -5.731267   -0.372467
     64          1           0       -7.559680   -5.291211    2.150294
     65          1           0       -7.944250   -6.879007   -0.773945
     66          1           0       -8.802142   -5.301835   -0.846641
     67          1           0       -8.740888   -6.151546    0.609798
     68          1           0       -5.557156   -6.814433    1.955338
     69          1           0       -5.537079   -5.738143    3.347834
     70          1           0       -4.034704   -5.728638    0.839953
     71          1           0       -3.399455   -5.477935    2.501368
     72          1           0       -4.246653   -4.152231    1.585140
     73          1           0       -6.170684   -0.858293    6.418327
     74          1           0       -6.647162   -2.438200    5.700046
     75          1           0       -7.907247   -1.155023    5.926330
     76          1           0       -7.851216    3.319438    3.447312
     77          1           0       -5.777824    6.955990    4.494229
     78          1           0       -5.476493    6.851433    2.656296
     79          1           0       -4.455238    6.105362    3.899738
     80         12           0        6.774476   -0.463137    0.066572
     81          6           0        5.351510    1.843616   -2.285679
     82          6           0        8.827705    2.066000    1.077686
     83          6           0        8.350304   -2.580075    1.828040
     84          6           0        5.450031   -3.039968   -1.870306
     85          7           0        6.968913    1.638720   -0.594214
     86          6           0        6.332685    2.421033   -1.453022
     87          6           0        6.716357    3.922368   -1.361625
     88          6           0        8.175084    3.758561   -0.710349
     89          6           0        7.976347    2.421861    0.001273
     90          6           0        9.279068    3.591371   -1.741180
     91          6           0        5.754326    4.728919   -0.420355
     92          6           0        5.878723    6.250537   -0.525036
     93          1           0        4.671766    7.059313   -0.378039
     94          7           0        8.003552   -0.195794    1.601647
     95          6           0        8.741135    0.901560    1.871983
     96          6           0        9.491117    0.590054    3.098629
     97          6           0        9.261293   -0.840483    3.438426
     98          6           0        8.530194   -1.275887    2.265389
     99          6           0       10.260408    1.625064    3.866986
    100          6           0        9.648035   -1.681072    4.617433
    101          8           0        9.550164   -2.958852    4.594468
    102          6           0       10.232156   -0.971607    5.765017
    103          7           0        7.067855   -2.512929   -0.119554
    104          6           0        7.749265   -3.201275    0.813058
    105          6           0        7.595947   -4.690133    0.612622
    106          6           0        6.468271   -4.858797   -0.508739
    107          6           0        6.217306   -3.371509   -0.840973
    108          6           0        8.858024   -5.436736    0.181173
    109          6           0        5.248932   -5.752385   -0.151824
    110          6           0        4.428406   -5.095793    0.934924
    111          7           0        5.458919   -0.606849   -1.641256
    112          6           0        5.054344   -1.783094   -2.309732
    113          6           0        4.253515   -1.365860   -3.478933
    114          6           0        4.267119    0.035952   -3.422102
    115          6           0        5.039904    0.462623   -2.308432
    116          6           0        3.672872   -2.237116   -4.443232
    117          6           0        3.812315    1.251955   -4.057075
    118          8           0        3.052090    1.513765   -4.988333
    119          6           0        4.599224    2.478385   -3.422228
    120          6           0        3.597831    3.549804   -3.087873
    121          8           0        2.734927    3.357654   -2.213177
    122          8           0        3.957447    4.694522   -3.696690
    123          6           0        3.000720    5.790068   -3.386384
    124          1           0        9.668945    2.719060    1.311588
    125          1           0        8.782323   -3.354973    2.465510
    126          1           0        4.920439   -3.785269   -2.467585
    127          1           0        6.789932    4.431282   -2.315233
    128          1           0        8.377097    4.547437    0.009520
    129          1           0        8.884557    3.491602   -2.741450
    130          1           0        9.815589    2.696199   -1.455061
    131          1           0        9.997560    4.412106   -1.660535
    132          1           0        6.069514    4.585854    0.621245
    133          1           0        4.734070    4.438020   -0.578732
    134          1           0        6.441245    6.557857   -1.415026
    135          1           0        6.484480    6.607545    0.311397
    136          1           0       10.383877    2.547655    3.286489
    137          1           0       11.279401    1.241754    3.987806
    138          1           0        9.836072    1.818223    4.854556
    139          1           0       11.125195   -0.440290    5.444642
    140          1           0       10.360422   -1.728008    6.541738
    141          1           0        9.519723   -0.212354    6.106463
    142          1           0        7.260339   -5.170443    1.523545
    143          1           0        6.868517   -5.321752   -1.422699
    144          1           0        9.135366   -6.258470    0.868125
    145          1           0        9.665807   -4.721840    0.097768
    146          1           0        8.822782   -5.863323   -0.819806
    147          1           0        5.586544   -6.710728    0.250353
    148          1           0        4.607721   -5.967080   -1.000201
    149          1           0        4.954413   -5.384558    1.849815
    150          1           0        3.409230   -5.476938    0.928580
    151          1           0        4.475912   -4.003321    0.858220
    152          1           0        2.672725   -1.870278   -4.632008
    153          1           0        3.659798   -3.266770   -4.091931
    154          1           0        4.366874   -2.096360   -5.276189
    155          1           0        5.329266    2.815880   -4.158929
    156          1           0        2.641458    6.181077   -4.343314
    157          1           0        3.551208    6.490649   -2.730719
    158          1           0        2.068238    5.519731   -2.904885
 ---------------------------------------------------------------------

 SCF Done:  E(RCAM-B3LYP) =  -4069.81177855     A.U. after   19 cycles

 Excitation energies and oscillator strengths:

 Excited State   1:      Singlet-A      1.6667 eV  743.89 nm  f=0.1008  <S**2>=0.000
     309 -> 315        0.13493
     310 -> 316        0.10596
     311 -> 313        0.54040
     312 -> 314        0.42351
 This state for optimization and/or second-order correction.
 Total Energy, E(TD-HF/TD-DFT) =  -4069.75052816
 Copying the excited state density for this state as the 1-particle RhoCI density.

 Excited State   2:      Singlet-A      1.6884 eV  734.33 nm  f=0.6568  <S**2>=0.000
     309 -> 315       -0.10908
     310 -> 316        0.13981
     311 -> 313       -0.42269
     312 -> 314        0.53929

 Excited State   3:      Singlet-A      2.1847 eV  567.52 nm  f=0.0384  <S**2>=0.000
     309 -> 313        0.60761
     310 -> 314       -0.21132
     311 -> 315       -0.25679

 Excited State   4:      Singlet-A      2.1934 eV  565.27 nm  f=0.1497  <S**2>=0.000
     309 -> 313        0.20965
     310 -> 314        0.60504
     312 -> 316       -0.26338

 Excited State   5:      Singlet-A      2.6443 eV  468.88 nm  f=0.0000  <S**2>=0.000
     312 -> 313        0.70693

 The electronic state is 1-A.
 Alpha  occ. eigenvalues --  -46.87583 -46.87508 -19.26324 -19.26041 -19.19112
 Alpha  occ. eigenvalues --  -19.18753 -19.18638 -19.18531 -19.18016 -19.17914
 Alpha  occ. eigenvalues --  -14.42423 -14.42166 -14.41287 -14.41177 -14.39276
 Alpha  occ. eigenvalues --  -14.39113 -14.38526 -14.38305 -10.39044 -10.38815
 Alpha  occ. eigenvalues --  -10.35315 -10.35162 -10.34192 -10.34133 -10.31757
 Alpha  occ. eigenvalues --  -10.31462 -10.31242 -10.31130 -10.30951 -10.30620
 Alpha  occ. eigenvalues --  -10.30327 -10.30292 -10.30292 -10.30234 -10.30065
 Alpha  occ. eigenvalues --  -10.29937 -10.29826 -10.29665 -10.29362 -10.29354
 Alpha  occ. eigenvalues --  -10.29331 -10.28971 -10.28652 -10.28585 -10.28466
 Alpha  occ. eigenvalues --  -10.28335 -10.28261 -10.28080 -10.28077 -10.27936
 Alpha  occ. eigenvalues --  -10.27845 -10.27598 -10.27517 -10.27447 -10.27445
 Alpha  occ. eigenvalues --  -10.27414 -10.27395 -10.27389 -10.27307 -10.27299
 Alpha  occ. eigenvalues --  -10.27276 -10.27228 -10.27161 -10.27126 -10.27006
 Alpha  occ. eigenvalues --  -10.26899 -10.26608 -10.26384 -10.26331 -10.26093
 Alpha  occ. eigenvalues --  -10.26056 -10.25993 -10.25980 -10.25977 -10.25861
 Alpha  occ. eigenvalues --  -10.25801 -10.25752 -10.25613 -10.25340 -10.25237
 Alpha  occ. eigenvalues --  -10.24809 -10.24635 -10.24619 -10.24559 -10.24519
 Alpha  occ. eigenvalues --  -10.24478  -3.16332  -3.16249  -1.91214  -1.91130
 Alpha  occ. eigenvalues --   -1.90803  -1.90718  -1.90640  -1.90560  -1.16614
 Alpha  occ. eigenvalues --   -1.16385  -1.08625  -1.08374  -1.06933  -1.06902
 Alpha  occ. eigenvalues --   -1.06890  -1.06379  -1.04423  -1.04298  -1.03590
 Alpha  occ. eigenvalues --   -1.03486  -1.02966  -1.02954  -1.02134  -1.02040
 Alpha  occ. eigenvalues --   -0.91925  -0.91700  -0.89422  -0.89272  -0.89084
 Alpha  occ. eigenvalues --   -0.88910  -0.88149  -0.88044  -0.87732  -0.87613
 Alpha  occ. eigenvalues --   -0.87608  -0.87395  -0.87045  -0.86978  -0.84931
 Alpha  occ. eigenvalues --   -0.84705  -0.83806  -0.83704  -0.82856  -0.82684
 Alpha  occ. eigenvalues --   -0.82586  -0.82375  -0.81549  -0.81331  -0.80383
 Alpha  occ. eigenvalues --   -0.80327  -0.78565  -0.78513  -0.77076  -0.76957
 Alpha  occ. eigenvalues --   -0.76840  -0.76677  -0.75784  -0.75663  -0.74740
 Alpha  occ. eigenvalues --   -0.74660  -0.72632  -0.72508  -0.71518  -0.71413
 Alpha  occ. eigenvalues --   -0.69681  -0.69678  -0.68761  -0.68599  -0.67536
 Alpha  occ. eigenvalues --   -0.67370  -0.67125  -0.66929  -0.65207  -0.65011
 Alpha  occ. eigenvalues --   -0.64706  -0.64593  -0.64590  -0.64361  -0.64134
 Alpha  occ. eigenvalues --   -0.64019  -0.62232  -0.62047  -0.60267  -0.60162
 Alpha  occ. eigenvalues --   -0.59729  -0.59527  -0.58927  -0.58723  -0.58363
 Alpha  occ. eigenvalues --   -0.58238  -0.57506  -0.57324  -0.57170  -0.57050
 Alpha  occ. eigenvalues --   -0.56141  -0.56040  -0.55840  -0.55724  -0.55391
 Alpha  occ. eigenvalues --   -0.55246  -0.55188  -0.55100  -0.54431  -0.54282
 Alpha  occ. eigenvalues --   -0.53845  -0.53616  -0.53161  -0.53079  -0.53031
 Alpha  occ. eigenvalues --   -0.52941  -0.52839  -0.52650  -0.52594  -0.52465
 Alpha  occ. eigenvalues --   -0.52323  -0.52210  -0.51830  -0.51666  -0.51590
 Alpha  occ. eigenvalues --   -0.51331  -0.51144  -0.50939  -0.50397  -0.50268
 Alpha  occ. eigenvalues --   -0.49910  -0.49798  -0.49788  -0.49635  -0.49418
 Alpha  occ. eigenvalues --   -0.49238  -0.49141  -0.49050  -0.48944  -0.48835
 Alpha  occ. eigenvalues --   -0.48504  -0.48339  -0.48318  -0.48270  -0.48217
 Alpha  occ. eigenvalues --   -0.48168  -0.47530  -0.47427  -0.47052  -0.47029
 Alpha  occ. eigenvalues --   -0.46641  -0.46537  -0.46486  -0.46279  -0.46204
 Alpha  occ. eigenvalues --   -0.46093  -0.46025  -0.45911  -0.45773  -0.45574
 Alpha  occ. eigenvalues --   -0.45143  -0.44962  -0.44459  -0.44409  -0.44323
 Alpha  occ. eigenvalues --   -0.44233  -0.44070  -0.44009  -0.43886  -0.43875
 Alpha  occ. eigenvalues --   -0.43826  -0.43747  -0.43507  -0.43323  -0.43243
 Alpha  occ. eigenvalues --   -0.43120  -0.42886  -0.42845  -0.42767  -0.42479
 Alpha  occ. eigenvalues --   -0.42452  -0.42418  -0.41891  -0.41761  -0.41613
 Alpha  occ. eigenvalues --   -0.41442  -0.41389  -0.41263  -0.40927  -0.40880
 Alpha  occ. eigenvalues --   -0.40649  -0.40625  -0.40606  -0.40535  -0.40424
 Alpha  occ. eigenvalues --   -0.40328  -0.40151  -0.39936  -0.39346  -0.39214
 Alpha  occ. eigenvalues --   -0.38279  -0.38225  -0.37583  -0.37466  -0.37195
 Alpha  occ. eigenvalues --   -0.37129  -0.37066  -0.36980  -0.36726  -0.36462
 Alpha  occ. eigenvalues --   -0.36153  -0.35936  -0.34183  -0.34010  -0.33808
 Alpha  occ. eigenvalues --   -0.33500  -0.33105  -0.32911  -0.31197  -0.31063
 Alpha  occ. eigenvalues --   -0.30903  -0.30762  -0.29921  -0.29774  -0.29256
 Alpha  occ. eigenvalues --   -0.29163  -0.29146  -0.29045  -0.23964  -0.23802
 Alpha  occ. eigenvalues --   -0.21045  -0.20851
 Alpha virt. eigenvalues --   -0.08722  -0.08494  -0.01610  -0.01473   0.00042
 Alpha virt. eigenvalues --    0.00228   0.02264   0.02464   0.03350   0.03497
 Alpha virt. eigenvalues --    0.04799   0.04992   0.05209   0.05361   0.06247

 Mulliken charges:
               1
     1  Mg   0.840543
     2  C   -0.002401
     3  C   -0.093301
     4  C   -0.046063
     5  C   -0.064256
     6  N   -0.256734
     7  C   -0.052178
     8  C   -0.014332
     9  C   -0.087182
    10  C    0.046875
    11  C    0.104931
    12  C    0.053268
    13  C   -0.071416
    14  H    0.035481
    15  N   -0.433103
    16  C    0.169252
    17  C   -0.176325
    18  C   -0.003632
    19  C    0.149093
    20  C    0.110111
    21  C    0.012688
    22  O   -0.250427
    23  C    0.061969
    24  N   -0.341168
    25  C    0.041343
    26  C   -0.028070
    27  C   -0.023812
    28  C    0.074780
    29  C    0.076386
    30  C    0.035287
    31  C   -0.004452
    32  N   -0.310355
    33  C    0.080390
    34  C   -0.170042
    35  C    0.008067
    36  C    0.083241
    37  C    0.127371
    38  C    0.046038
    39  O   -0.189328
    40  C   -0.005421
    41  C    0.212520
    42  O   -0.256067
    43  O   -0.305063
    44  C    0.157951
    45  H   -0.017861
    46  H   -0.017356
    47  H   -0.042155
    48  H    0.000275
    49  H   -0.003813
    50  H    0.025111
    51  H    0.016227
    52  H    0.016212
    53  H    0.013028
    54  H    0.045020
    55  H    0.016970
    56  H    0.018005
    57  H    0.005761
    58  H    0.026117
    59  H    0.041631
    60  H    0.036867
    61  H    0.035104
    62  H    0.033749
    63  H    0.016176
    64  H    0.008953
    65  H    0.022678
    66  H    0.012493
    67  H    0.004324
    68  H    0.005592
    69  H    0.004410
    70  H    0.008262
    71  H    0.017564
    72  H    0.030134
    73  H    0.047203
    74  H    0.008717
    75  H    0.045431
    76  H    0.034577
    77  H    0.042080
    78  H    0.046294
    79  H    0.053759
    80  Mg   0.838781
    81  C   -0.016573
    82  C   -0.087708
    83  C   -0.045449
    84  C   -0.064872
    85  N   -0.254595
    86  C   -0.049659
    87  C   -0.015277
    88  C   -0.090536
    89  C    0.045974
    90  C    0.114434
    91  C    0.062452
    92  C   -0.077866
    93  H    0.034925
    94  N   -0.423468
    95  C    0.163244
    96  C   -0.174525
    97  C   -0.007672
    98  C    0.152294
    99  C    0.099389
   100  C    0.015794
   101  O   -0.253198
   102  C    0.061063
   103  N   -0.350093
   104  C    0.037592
   105  C   -0.019802
   106  C   -0.034840
   107  C    0.088966
   108  C    0.073724
   109  C    0.034726
   110  C   -0.007698
   111  N   -0.324099
   112  C    0.078580
   113  C   -0.163005
   114  C    0.001847
   115  C    0.096615
   116  C    0.131480
   117  C    0.042474
   118  O   -0.189230
   119  C    0.000914
   120  C    0.210620
   121  O   -0.249963
   122  O   -0.305826
   123  C    0.152280
   124  H   -0.019786
   125  H   -0.015602
   126  H   -0.040429
   127  H   -0.001074
   128  H   -0.004254
   129  H    0.022208
   130  H    0.014370
   131  H    0.016104
   132  H    0.014515
   133  H    0.038279
   134  H    0.020258
   135  H    0.019698
   136  H    0.008713
   137  H    0.025982
   138  H    0.040194
   139  H    0.038076
   140  H    0.036418
   141  H    0.034341
   142  H    0.014499
   143  H    0.012220
   144  H    0.025056
   145  H    0.011510
   146  H    0.005517
   147  H    0.006015
   148  H    0.003767
   149  H    0.010845
   150  H    0.018085
   151  H    0.030556
   152  H    0.045570
   153  H    0.008954
   154  H    0.046473
   155  H    0.034591
   156  H    0.042769
   157  H    0.049704
   158  H    0.053643
 Sum of Mulliken charges =  -0.00000

 Dipole moment (field-independent basis, Debye):
    X=              1.8293    Y=              2.9816    Z=             -2.5931  Tot=              4.3544
 Quadrupole moment (field-independent basis, Debye-Ang):
   XX=           -449.9959   YY=           -462.7048   ZZ=           -535.2693
   XY=             20.9783   XZ=             26.1783   YZ=            -15.1158

 Normal termination of Gaussian 16 at Sat Sep 11 08:32:51 2021.
