 Gaussian 16, Revision A.03,
 Gaussian 16:  ES64L-G16RevA.03 25-Dec-2016

 -----------------------------------
 #p cam-b3lyp/Def2SVP td=(nstates=5)
 -----------------------------------

 --------------------------------
 TDDFT excited states in gaussian
 --------------------------------
 Symbolic Z-matrix:
 Charge =  0 Multiplicity = 1

                         Standard orientation:
 ---------------------------------------------------------------------
 Center     Atomic      Atomic             Coordinates (Angstroms)
 Number     Number       Type             X           Y           Z
 ---------------------------------------------------------------------
      1         12           0       -7.578246    0.726380   -0.241329
      2          6           0       -7.926662   -2.362743    1.532969
      3          6           0       -8.476863    2.312588    2.643024
      4          6           0       -7.719708    3.426514   -1.898402
      5          6           0       -7.823411   -1.111312   -3.192336
      6          7           0       -8.108187   -0.037399    1.767762
      7          6           0       -8.145373   -1.239620    2.333847
      8          6           0       -8.364230   -1.190039    3.875605
      9          6           0       -9.074386    0.233357    3.983400
     10          6           0       -8.492323    0.889698    2.743907
     11          6           0      -10.591500    0.169821    3.839075
     12          6           0       -7.014565   -1.218451    4.668907
     13          6           0       -7.143890   -1.501238    6.168460
     14          1           0       -6.109642   -2.286742    6.824709
     15          7           0       -7.552822    2.605769    0.367032
     16          6           0       -7.938602    3.069636    1.579998
     17          6           0       -7.730422    4.533151    1.541736
     18          6           0       -7.371763    4.905369    0.144986
     19          6           0       -7.561806    3.648213   -0.532377
     20          6           0       -7.827656    5.410009    2.752280
     21          6           0       -6.938260    6.192655   -0.481992
     22          8           0       -6.901075    6.353084   -1.749847
     23          6           0       -6.639075    7.303995    0.439124
     24          7           0       -7.966764    1.141094   -2.249986
     25          6           0       -7.908733    2.391940   -2.720091
     26          6           0       -7.941107    2.413748   -4.219563
     27          6           0       -7.788125    0.894639   -4.687171
     28          6           0       -7.775801    0.218917   -3.293787
     29          6           0       -9.201800    3.018213   -4.853033
     30          6           0       -6.635861    0.574749   -5.672248
     31          6           0       -5.303439    0.765486   -4.982778
     32          7           0       -7.652554   -1.375923   -0.775974
     33          6           0       -7.777630   -1.914200   -2.064884
     34          6           0       -7.893193   -3.376278   -1.913092
     35          6           0       -7.843648   -3.586926   -0.536496
     36          6           0       -7.732269   -2.333648    0.130723
     37          6           0       -8.081864   -4.311390   -2.968745
     38          6           0       -7.883677   -4.577364    0.527125
     39          8           0       -7.875190   -5.808577    0.566302
     40          6           0       -8.061670   -3.815967    1.914359
     41          6           0       -7.056992   -4.386291    2.878030
     42          8           0       -5.833424   -4.214318    2.702893
     43          8           0       -7.693933   -4.835089    3.970471
     44          6           0       -6.751534   -5.387307    4.979973
     45          1           0       -8.972810    2.902005    3.416694
     46          1           0       -7.662618    4.325618   -2.515484
     47          1           0       -7.817966   -1.756275   -4.072930
     48          1           0       -9.023391   -1.965488    4.266257
     49          1           0       -8.767581    0.774487    4.878258
     50          1           0      -10.923333   -0.829176    3.556562
     51          1           0      -10.839918    0.888580    3.057943
     52          1           0      -11.082082    0.529259    4.744012
     53          1           0       -6.597725   -0.211977    4.705184
     54          1           0       -6.321435   -1.934201    4.225512
     55          1           0       -8.132665   -1.887598    6.417377
     56          1           0       -7.081689   -0.552478    6.701549
     57          1           0       -8.267662    4.880234    3.596245
     58          1           0       -8.546706    6.195244    2.519723
     59          1           0       -6.868048    5.856052    3.014065
     60          1           0       -7.524388    7.525301    1.035608
     61          1           0       -6.259683    8.115057   -0.181432
     62          1           0       -5.868815    6.983183    1.141070
     63          1           0       -7.112299    2.995996   -4.620175
     64          1           0       -8.681386    0.531341   -5.195868
     65          1           0       -8.997109    3.849482   -5.528161
     66          1           0       -9.870118    3.323397   -4.048356
     67          1           0       -9.825865    2.308642   -5.395682
     68          1           0       -6.659792    1.259800   -6.519053
     69          1           0       -6.675834   -0.440906   -6.066074
     70          1           0       -5.129234    1.836324   -5.081727
     71          1           0       -4.526336    0.194795   -5.492321
     72          1           0       -5.370991    0.543401   -3.917602
     73          1           0       -7.415310   -5.147662   -2.758214
     74          1           0       -7.862276   -3.864080   -3.937919
     75          1           0       -9.139621   -4.543684   -2.846090
     76          1           0       -9.086551   -3.992228    2.239433
     77          1           0       -7.070504   -6.407775    5.192429
     78          1           0       -6.735418   -4.679312    5.808760
     79          1           0       -5.728667   -5.557530    4.642176
     80         12           0        8.274573    0.214579    0.171340
     81          6           0        5.886726   -1.818854   -1.572906
     82          6           0        6.439228    2.926413   -0.783709
     83          6           0       10.591941    2.059221    1.309114
     84          6           0       10.480196   -2.478731    0.007030
     85          7           0        6.421685    0.401374   -1.022044
     86          6           0        5.569289   -0.444582   -1.580732
     87          6           0        4.266326    0.211542   -2.111141
     88          6           0        4.817749    1.704965   -2.322083
     89          6           0        5.942699    1.698337   -1.289069
     90          6           0        5.430476    1.932066   -3.694065
     91          6           0        3.104945    0.171632   -1.056808
     92          6           0        1.720445    0.513396   -1.611880
     93          1           0        0.559832   -0.184416   -1.065530
     94          7           0        8.256882    2.133323    0.678001
     95          6           0        7.428993    3.090885    0.210097
     96          6           0        7.836275    4.336558    0.878373
     97          6           0        9.077561    4.068428    1.654275
     98          6           0        9.375042    2.719013    1.217631
     99          6           0        7.026677    5.598825    0.810154
    100          6           0        9.873193    4.894982    2.618623
    101          8           0       11.049177    4.548071    2.992183
    102          6           0        9.273263    6.169255    3.040283
    103          7           0       10.319187   -0.076349    0.410614
    104          6           0       11.089839    0.867256    0.979507
    105          6           0       12.465245    0.330284    1.296223
    106          6           0       12.380090   -1.246260    1.041547
    107          6           0       10.931880   -1.339349    0.512932
    108          6           0       13.613601    0.916825    0.475479
    109          6           0       12.799262   -2.172508    2.215872
    110          6           0       11.809425   -2.046173    3.351498
    111          7           0        8.165767   -1.848564   -0.460854
    112          6           0        9.214175   -2.794531   -0.469260
    113          6           0        8.685234   -4.025107   -1.092413
    114          6           0        7.362126   -3.699498   -1.426840
    115          6           0        7.092139   -2.353987   -1.057787
    116          6           0        9.420219   -5.221568   -1.325683
    117          6           0        6.135717   -4.184670   -2.017799
    118          8           0        5.742052   -5.274957   -2.430153
    119          6           0        5.164781   -2.948510   -2.253561
    120          6           0        3.802782   -3.322354   -1.736153
    121          8           0        3.621221   -3.524223   -0.522518
    122          8           0        2.899475   -3.167763   -2.721288
    123          6           0        1.531357   -3.515863   -2.253421
    124          1           0        6.066832    3.854644   -1.217967
    125          1           0       11.394992    2.616580    1.796908
    126          1           0       11.075377   -3.394385    0.007830
    127          1           0        3.906644   -0.188308   -3.051629
    128          1           0        4.065047    2.444449   -2.061385
    129          1           0        5.500829    1.015446   -4.260628
    130          1           0        6.415746    2.340984   -3.512185
    131          1           0        4.876579    2.707749   -4.230576
    132          1           0        3.234164    1.001516   -0.350175
    133          1           0        3.071389   -0.779911   -0.562776
    134          1           0        1.699598    0.493833   -2.708302
    135          1           0        1.491251    1.551177   -1.357928
    136          1           0        6.254955    5.540216    0.032717
    137          1           0        7.699291    6.391901    0.465950
    138          1           0        6.609609    5.884569    1.778180
    139          1           0        9.088339    6.788286    2.165596
    140          1           0        9.948286    6.573862    3.796922
    141          1           0        8.296589    5.963477    3.492376
    142          1           0       12.719089    0.505322    2.334502
    143          1           0       13.036401   -1.561873    0.217243
    144          1           0       14.406680    1.372523    1.097925
    145          1           0       13.204501    1.644971   -0.212251
    146          1           0       14.106214    0.215887   -0.196249
    147          1           0       13.769172   -1.864153    2.613796
    148          1           0       12.884236   -3.216525    1.933385
    149          1           0       12.155797   -1.154586    3.882726
    150          1           0       11.845868   -2.925750    3.991062
    151          1           0       10.802274   -1.834498    2.974015
    152          1           0        8.776005   -6.043066   -1.041715
    153          1           0       10.351191   -5.232426   -0.762709
    154          1           0        9.592374   -5.137975   -2.402084
    155          1           0        5.153117   -2.740630   -3.324183
    156          1           0        1.145767   -4.280821   -2.934498
    157          1           0        0.979036   -2.558524   -2.206588
    158          1           0        1.441332   -4.018825   -1.297717
 ---------------------------------------------------------------------

 SCF Done:  E(RCAM-B3LYP) =  -4069.81175719     A.U. after   19 cycles

 Excitation energies and oscillator strengths:

 Excited State   1:      Singlet-A      1.6691 eV  742.82 nm  f=0.0143  <S**2>=0.000
     309 -> 315       -0.10668
     310 -> 316        0.13493
     311 -> 313       -0.42426
     312 -> 314        0.53960
 This state for optimization and/or second-order correction.
 Total Energy, E(TD-HF/TD-DFT) =  -4069.75041879
 Copying the excited state density for this state as the 1-particle RhoCI density.

 Excited State   2:      Singlet-A      1.6858 eV  735.46 nm  f=0.7391  <S**2>=0.000
     309 -> 315        0.13897
     310 -> 316        0.10874
     311 -> 313        0.53869
     312 -> 314        0.42365

 Excited State   3:      Singlet-A      2.1853 eV  567.35 nm  f=0.0979  <S**2>=0.000
     310 -> 314        0.63822
     312 -> 316       -0.27059

 Excited State   4:      Singlet-A      2.1923 eV  565.55 nm  f=0.1032  <S**2>=0.000
     309 -> 313        0.63628
     311 -> 315       -0.27611

 Excited State   5:      Singlet-A      2.7431 eV  451.99 nm  f=0.0000  <S**2>=0.000
     312 -> 313        0.70696

 The electronic state is 1-A.
 Alpha  occ. eigenvalues --  -46.87892 -46.87567 -19.26287 -19.26114 -19.19036
 Alpha  occ. eigenvalues --  -19.18948 -19.18933 -19.18645 -19.18230 -19.17930
 Alpha  occ. eigenvalues --  -14.42536 -14.42400 -14.41545 -14.41268 -14.39499
 Alpha  occ. eigenvalues --  -14.39261 -14.38679 -14.38504 -10.39100 -10.38886
 Alpha  occ. eigenvalues --  -10.35567 -10.35324 -10.34448 -10.34103 -10.31652
 Alpha  occ. eigenvalues --  -10.31482 -10.31450 -10.31203 -10.30989 -10.30920
 Alpha  occ. eigenvalues --  -10.30655 -10.30603 -10.30311 -10.30305 -10.30261
 Alpha  occ. eigenvalues --  -10.30061 -10.30017 -10.29804 -10.29724 -10.29352
 Alpha  occ. eigenvalues --  -10.29351 -10.29309 -10.28800 -10.28586 -10.28548
 Alpha  occ. eigenvalues --  -10.28452 -10.28450 -10.28306 -10.28174 -10.28023
 Alpha  occ. eigenvalues --  -10.27907 -10.27880 -10.27813 -10.27680 -10.27616
 Alpha  occ. eigenvalues --  -10.27576 -10.27575 -10.27562 -10.27485 -10.27449
 Alpha  occ. eigenvalues --  -10.27397 -10.27380 -10.27377 -10.27306 -10.27209
 Alpha  occ. eigenvalues --  -10.26908 -10.26739 -10.26542 -10.26526 -10.26366
 Alpha  occ. eigenvalues --  -10.26322 -10.26286 -10.26116 -10.26075 -10.25921
 Alpha  occ. eigenvalues --  -10.25917 -10.25847 -10.25761 -10.25537 -10.25337
 Alpha  occ. eigenvalues --  -10.24917 -10.24884 -10.24862 -10.24775 -10.24668
 Alpha  occ. eigenvalues --  -10.24600  -3.16635  -3.16317  -1.91517  -1.91199
 Alpha  occ. eigenvalues --   -1.91103  -1.90945  -1.90788  -1.90625  -1.16639
 Alpha  occ. eigenvalues --   -1.16414  -1.08683  -1.08528  -1.07336  -1.06899
 Alpha  occ. eigenvalues --   -1.06733  -1.06658  -1.04665  -1.04395  -1.03854
 Alpha  occ. eigenvalues --   -1.03569  -1.03328  -1.02948  -1.02504  -1.02018
 Alpha  occ. eigenvalues --   -0.92048  -0.91876  -0.89627  -0.89408  -0.89246
 Alpha  occ. eigenvalues --   -0.89029  -0.88393  -0.88140  -0.87952  -0.87754
 Alpha  occ. eigenvalues --   -0.87698  -0.87582  -0.87375  -0.87042  -0.85047
 Alpha  occ. eigenvalues --   -0.84879  -0.84045  -0.83791  -0.83081  -0.82860
 Alpha  occ. eigenvalues --   -0.82720  -0.82537  -0.81635  -0.81436  -0.80668
 Alpha  occ. eigenvalues --   -0.80310  -0.78890  -0.78549  -0.77305  -0.77040
 Alpha  occ. eigenvalues --   -0.76994  -0.76764  -0.75981  -0.75704  -0.74990
 Alpha  occ. eigenvalues --   -0.74707  -0.72862  -0.72605  -0.71752  -0.71477
 Alpha  occ. eigenvalues --   -0.70029  -0.69682  -0.68944  -0.68710  -0.67727
 Alpha  occ. eigenvalues --   -0.67497  -0.67285  -0.67076  -0.65350  -0.65144
 Alpha  occ. eigenvalues --   -0.64931  -0.64694  -0.64663  -0.64519  -0.64370
 Alpha  occ. eigenvalues --   -0.64112  -0.62342  -0.62109  -0.60544  -0.60259
 Alpha  occ. eigenvalues --   -0.59873  -0.59683  -0.59071  -0.58890  -0.58585
 Alpha  occ. eigenvalues --   -0.58316  -0.57640  -0.57408  -0.57395  -0.57139
 Alpha  occ. eigenvalues --   -0.56393  -0.56105  -0.56011  -0.55715  -0.55608
 Alpha  occ. eigenvalues --   -0.55424  -0.55335  -0.55134  -0.54592  -0.54354
 Alpha  occ. eigenvalues --   -0.53953  -0.53786  -0.53391  -0.53296  -0.53130
 Alpha  occ. eigenvalues --   -0.53023  -0.52983  -0.52845  -0.52766  -0.52580
 Alpha  occ. eigenvalues --   -0.52560  -0.52323  -0.51992  -0.51786  -0.51681
 Alpha  occ. eigenvalues --   -0.51534  -0.51272  -0.51083  -0.50682  -0.50405
 Alpha  occ. eigenvalues --   -0.50141  -0.50012  -0.49885  -0.49788  -0.49591
 Alpha  occ. eigenvalues --   -0.49388  -0.49290  -0.49155  -0.49088  -0.48985
 Alpha  occ. eigenvalues --   -0.48655  -0.48563  -0.48525  -0.48427  -0.48289
 Alpha  occ. eigenvalues --   -0.48240  -0.47776  -0.47485  -0.47381  -0.47020
 Alpha  occ. eigenvalues --   -0.46885  -0.46615  -0.46607  -0.46448  -0.46430
 Alpha  occ. eigenvalues --   -0.46240  -0.46173  -0.45972  -0.45877  -0.45684
 Alpha  occ. eigenvalues --   -0.45302  -0.45122  -0.44644  -0.44602  -0.44391
 Alpha  occ. eigenvalues --   -0.44366  -0.44245  -0.44153  -0.44091  -0.44020
 Alpha  occ. eigenvalues --   -0.43980  -0.43829  -0.43549  -0.43466  -0.43395
 Alpha  occ. eigenvalues --   -0.43264  -0.43106  -0.42809  -0.42795  -0.42718
 Alpha  occ. eigenvalues --   -0.42696  -0.42473  -0.42104  -0.41862  -0.41782
 Alpha  occ. eigenvalues --   -0.41599  -0.41558  -0.41339  -0.41219  -0.40951
 Alpha  occ. eigenvalues --   -0.40926  -0.40888  -0.40666  -0.40630  -0.40590
 Alpha  occ. eigenvalues --   -0.40401  -0.40283  -0.40088  -0.39571  -0.39352
 Alpha  occ. eigenvalues --   -0.38568  -0.38262  -0.37803  -0.37510  -0.37419
 Alpha  occ. eigenvalues --   -0.37328  -0.37173  -0.37076  -0.36759  -0.36590
 Alpha  occ. eigenvalues --   -0.36256  -0.36090  -0.34374  -0.34154  -0.33802
 Alpha  occ. eigenvalues --   -0.33671  -0.33271  -0.33074  -0.31462  -0.31203
 Alpha  occ. eigenvalues --   -0.31122  -0.30874  -0.30087  -0.29830  -0.29545
 Alpha  occ. eigenvalues --   -0.29409  -0.29240  -0.29115  -0.24170  -0.23939
 Alpha  occ. eigenvalues --   -0.21219  -0.21024
 Alpha virt. eigenvalues --   -0.08866  -0.08699  -0.01846  -0.01594  -0.00153
 Alpha virt. eigenvalues --    0.00059   0.02119   0.02311   0.02987   0.03321
 Alpha virt. eigenvalues --    0.04645   0.04847   0.05073   0.05358   0.06138

 Mulliken charges:
               1
     1  Mg   0.838021
     2  C   -0.002818
     3  C   -0.093918
     4  C   -0.046249
     5  C   -0.064208
     6  N   -0.256801
     7  C   -0.052319
     8  C   -0.013973
     9  C   -0.086987
    10  C    0.046275
    11  C    0.104764
    12  C    0.053404
    13  C   -0.072131
    14  H    0.037095
    15  N   -0.433139
    16  C    0.168221
    17  C   -0.177136
    18  C   -0.004270
    19  C    0.148573
    20  C    0.110120
    21  C    0.011836
    22  O   -0.250003
    23  C    0.062656
    24  N   -0.341090
    25  C    0.041213
    26  C   -0.028146
    27  C   -0.023949
    28  C    0.074669
    29  C    0.076124
    30  C    0.035199
    31  C   -0.004466
    32  N   -0.310477
    33  C    0.080213
    34  C   -0.169944
    35  C    0.008579
    36  C    0.082739
    37  C    0.127309
    38  C    0.046189
    39  O   -0.187660
    40  C   -0.005319
    41  C    0.213061
    42  O   -0.256982
    43  O   -0.304879
    44  C    0.157356
    45  H   -0.017395
    46  H   -0.017090
    47  H   -0.041453
    48  H    0.001246
    49  H   -0.003858
    50  H    0.025625
    51  H    0.016347
    52  H    0.016873
    53  H    0.011019
    54  H    0.044364
    55  H    0.017939
    56  H    0.017904
    57  H    0.006143
    58  H    0.026909
    59  H    0.039251
    60  H    0.037698
    61  H    0.035238
    62  H    0.031055
    63  H    0.016024
    64  H    0.009780
    65  H    0.023096
    66  H    0.012765
    67  H    0.004973
    68  H    0.006427
    69  H    0.005030
    70  H    0.008318
    71  H    0.017557
    72  H    0.028695
    73  H    0.047782
    74  H    0.009006
    75  H    0.046372
    76  H    0.035413
    77  H    0.043318
    78  H    0.046451
    79  H    0.054423
    80  Mg   0.837723
    81  C   -0.016516
    82  C   -0.087779
    83  C   -0.045689
    84  C   -0.065132
    85  N   -0.254538
    86  C   -0.049750
    87  C   -0.014960
    88  C   -0.090473
    89  C    0.045747
    90  C    0.114410
    91  C    0.062600
    92  C   -0.078745
    93  H    0.037470
    94  N   -0.423426
    95  C    0.162793
    96  C   -0.174786
    97  C   -0.008031
    98  C    0.152050
    99  C    0.099430
   100  C    0.015388
   101  O   -0.253452
   102  C    0.061286
   103  N   -0.350111
   104  C    0.037447
   105  C   -0.019757
   106  C   -0.034800
   107  C    0.089018
   108  C    0.073745
   109  C    0.034783
   110  C   -0.007652
   111  N   -0.324174
   112  C    0.078605
   113  C   -0.163172
   114  C    0.002413
   115  C    0.096238
   116  C    0.131461
   117  C    0.042488
   118  O   -0.187281
   119  C    0.000958
   120  C    0.211416
   121  O   -0.250528
   122  O   -0.306209
   123  C    0.151400
   124  H   -0.019769
   125  H   -0.015856
   126  H   -0.040597
   127  H   -0.000560
   128  H   -0.004211
   129  H    0.022368
   130  H    0.014145
   131  H    0.016219
   132  H    0.013490
   133  H    0.038349
   134  H    0.020388
   135  H    0.019152
   136  H    0.008781
   137  H    0.025892
   138  H    0.039362
   139  H    0.038165
   140  H    0.036070
   141  H    0.033685
   142  H    0.014221
   143  H    0.012289
   144  H    0.024911
   145  H    0.011593
   146  H    0.005523
   147  H    0.006054
   148  H    0.003625
   149  H    0.010780
   150  H    0.017851
   151  H    0.030288
   152  H    0.046265
   153  H    0.008348
   154  H    0.046840
   155  H    0.034823
   156  H    0.044271
   157  H    0.049825
   158  H    0.055514
 Sum of Mulliken charges =  -0.00000

 Dipole moment (field-independent basis, Debye):
    X=             -2.9138    Y=              7.2582    Z=              1.2654  Tot=              7.9229
 Quadrupole moment (field-independent basis, Debye-Ang):
   XX=           -476.8404   YY=           -545.2791   ZZ=           -474.8469
   XY=            -22.7510   XZ=            -30.1952   YZ=              3.0602

 Normal termination of Gaussian 16 at Sun Sep 12 01:23:28 2021.
