 Gaussian 16, Revision A.03,
 Gaussian 16:  ES64L-G16RevA.03 25-Dec-2016

 -----------------------------------
 #p cam-b3lyp/Def2SVP td=(nstates=5)
 -----------------------------------

 --------------------------------
 TDDFT excited states in gaussian
 --------------------------------
 Symbolic Z-matrix:
 Charge =  0 Multiplicity = 1

                         Standard orientation:
 ---------------------------------------------------------------------
 Center     Atomic      Atomic             Coordinates (Angstroms)
 Number     Number       Type             X           Y           Z
 ---------------------------------------------------------------------
      1         12           0       -3.616894    0.992055   -1.153216
      2          6           0       -4.564899   -2.390979   -0.468687
      3          6           0       -5.465197    1.903383    1.566403
      4          6           0       -3.169105    4.015714   -1.997960
      5          6           0       -2.817246   -0.041332   -4.384057
      6          7           0       -4.815542   -0.186263    0.287428
      7          6           0       -5.048817   -1.481559    0.474406
      8          6           0       -5.792262   -1.789138    1.808594
      9          6           0       -6.494468   -0.376083    2.037022
     10          6           0       -5.515798    0.506316    1.282369
     11          6           0       -7.865711   -0.263628    1.378577
     12          6           0       -4.804613   -2.133114    2.973910
     13          6           0       -5.449631   -2.759526    4.213633
     14          1           0       -4.710152   -3.772330    4.951702
     15          7           0       -3.804348    2.656278   -0.105326
     16          6           0       -4.589133    2.844050    0.982857
     17          6           0       -4.379787    4.247481    1.399074
     18          6           0       -3.555717    4.914250    0.352928
     19          6           0       -3.498036    3.882690   -0.651032
     20          6           0       -4.893088    4.808246    2.689738
     21          6           0       -2.929758    6.270290    0.266551
     22          8           0       -2.452067    6.730552   -0.826401
     23          6           0       -2.970380    7.091718    1.489927
     24          7           0       -3.279252    1.917160   -2.993817
     25          6           0       -3.059931    3.234129   -3.074275
     26          6           0       -2.566623    3.623303   -4.436306
     27          6           0       -2.260923    2.256375   -5.202994
     28          6           0       -2.736379    1.263463   -4.113803
     29          6           0       -3.526358    4.476450   -5.277174
     30          6           0       -0.837401    2.082076   -5.789187
     31          6           0        0.170487    1.976567   -4.666632
     32          7           0       -3.501128   -0.900894   -2.208861
     33          6           0       -3.168564   -1.095330   -3.557294
     34          6           0       -3.330768   -2.533485   -3.839195
     35          6           0       -3.765195   -3.076646   -2.631679
     36          6           0       -3.893047   -2.039170   -1.664420
     37          6           0       -3.139498   -3.162088   -5.101220
     38          6           0       -4.174746   -4.288351   -1.940379
     39          8           0       -4.181240   -5.487501   -2.222320
     40          6           0       -4.825496   -3.874720   -0.547087
     41          6           0       -4.220946   -4.751913    0.515156
     42          8           0       -3.013142   -4.655038    0.813805
     43          8           0       -5.199559   -5.393086    1.172238
     44          6           0       -4.669361   -6.258266    2.259669
     45          1           0       -6.199728    2.329431    2.252615
     46          1           0       -2.899559    5.028927   -2.303218
     47          1           0       -2.505032   -0.450146   -5.346786
     48          1           0       -6.546827   -2.572785    1.738211
     49          1           0       -6.519135   -0.099539    3.090889
     50          1           0       -8.078618   -1.129111    0.751258
     51          1           0       -7.825263    0.643320    0.775003
     52          1           0       -8.641197   -0.092099    2.125555
     53          1           0       -4.426058   -1.208216    3.409020
     54          1           0       -4.000726   -2.779598    2.620144
     55          1           0       -6.463322   -3.102835    4.005114
     56          1           0       -5.576916   -1.978928    4.963743
     57          1           0       -5.600444    4.131395    3.167300
     58          1           0       -5.485171    5.688803    2.441210
     59          1           0       -4.085034    5.087481    3.366058
     60          1           0       -4.008118    7.241061    1.788834
     61          1           0       -2.397665    7.991309    1.267254
     62          1           0       -2.493939    6.540609    2.301242
     63          1           0       -1.649733    4.207319   -4.368010
     64          1           0       -2.920532    2.111103   -6.058847
     65          1           0       -3.098275    5.424808   -5.602852
     66          1           0       -4.433413    4.636251   -4.694933
     67          1           0       -3.922077    3.980488   -6.163089
     68          1           0       -0.563687    2.951951   -6.385294
     69          1           0       -0.737961    1.200941   -6.423194
     70          1           0        0.368944    3.018721   -4.418918
     71          1           0        1.076249    1.478583   -5.014220
     72          1           0       -0.264921    1.508903   -3.783345
     73          1           0       -2.588947   -4.081765   -4.903590
     74          1           0       -2.595011   -2.514227   -5.787816
     75          1           0       -4.173640   -3.319582   -5.407163
     76          1           0       -5.899483   -4.030408   -0.644217
     77          1           0       -5.043076   -7.266194    2.078972
     78          1           0       -4.943240   -5.777943    3.199183
     79          1           0       -3.593033   -6.433853    2.254484
     80         12           0        3.749495   -0.039233    1.638589
     81          6           0        4.718893   -0.710760   -1.750863
     82          6           0        2.349409   -3.149057    1.696726
     83          6           0        2.492817    0.687789    4.459865
     84          6           0        4.193686    3.347748    0.948082
     85          7           0        3.616794   -1.631015    0.108592
     86          6           0        4.075477   -1.797477   -1.122769
     87          6           0        3.901902   -3.233873   -1.685091
     88          6           0        2.669794   -3.703658   -0.768537
     89          6           0        2.906041   -2.800482    0.440231
     90          6           0        1.313355   -3.361849   -1.362333
     91          6           0        5.169544   -4.126919   -1.445170
     92          6           0        5.191898   -5.437333   -2.235135
     93          1           0        6.475196   -5.932924   -2.725046
     94          7           0        3.027928   -1.215738    3.064686
     95          6           0        2.520517   -2.457383    2.916007
     96          6           0        2.106963   -2.886715    4.260927
     97          6           0        2.260145   -1.733641    5.189196
     98          6           0        2.586985   -0.680179    4.249274
     99          6           0        1.699299   -4.296776    4.575506
    100          6           0        2.121260   -1.598381    6.675338
    101          8           0        2.065712   -0.451453    7.244807
    102          6           0        1.958366   -2.846609    7.434860
    103          7           0        3.189229    1.763155    2.510263
    104          6           0        2.718191    1.805440    3.768941
    105          6           0        2.643194    3.225943    4.275864
    106          6           0        3.392751    4.114251    3.177385
    107          6           0        3.707109    3.017400    2.136481
    108          6           0        1.235966    3.777928    4.502558
    109          6           0        4.555493    5.015806    3.675258
    110          6           0        5.711279    4.158531    4.138537
    111          7           0        4.519922    1.123802   -0.011214
    112          6           0        4.591026    2.531143   -0.102958
    113          6           0        5.080733    2.854876   -1.458609
    114          6           0        5.239921    1.604191   -2.074170
    115          6           0        4.855967    0.574579   -1.173064
    116          6           0        5.272656    4.164133   -1.983154
    117          6           0        5.635372    0.921310   -3.284949
    118          8           0        6.134400    1.268431   -4.354633
    119          6           0        5.195532   -0.601947   -3.172696
    120          6           0        6.363394   -1.454401   -3.587320
    121          8           0        7.406539   -1.469795   -2.910400
    122          8           0        5.980366   -2.271081   -4.585664
    123          6           0        7.101665   -3.144300   -5.023864
    124          1           0        1.683363   -4.010819    1.748011
    125          1           0        2.169082    0.989922    5.458556
    126          1           0        4.451871    4.376628    0.688469
    127          1           0        3.626181   -3.281722   -2.731733
    128          1           0        2.763000   -4.749372   -0.487185
    129          1           0        1.403810   -2.752315   -2.249137
    130          1           0        0.779754   -2.826385   -0.587995
    131          1           0        0.741104   -4.275717   -1.545906
    132          1           0        5.139113   -4.524501   -0.422553
    133          1           0        6.067753   -3.573234   -1.638230
    134          1           0        4.444253   -5.447706   -3.037562
    135          1           0        4.883394   -6.248273   -1.570888
    136          1           0        1.524747   -4.878366    3.661891
    137          1           0        0.716673   -4.245706    5.056871
    138          1           0        2.397722   -4.796629    5.250046
    139          1           0        1.076799   -3.373950    7.078189
    140          1           0        1.965062   -2.552040    8.486077
    141          1           0        2.817399   -3.495306    7.230211
    142          1           0        3.160597    3.326716    5.222031
    143          1           0        2.707453    4.823076    2.689773
    144          1           0        1.068313    4.134569    5.536374
    145          1           0        0.521490    3.007178    4.245634
    146          1           0        0.946633    4.591459    3.839488
    147          1           0        4.236702    5.601253    4.541155
    148          1           0        4.910462    5.715792    2.926247
    149          1           0        5.428399    3.895112    5.162098
    150          1           0        6.640205    4.724888    4.119109
    151          1           0        5.766831    3.227836    3.562015
    152          1           0        6.216756    4.152592   -2.511400
    153          1           0        5.266777    4.913329   -1.194211
    154          1           0        4.396537    4.244584   -2.632165
    155          1           0        4.333448   -0.742992   -3.825770
    156          1           0        7.225175   -2.989693   -6.100215
    157          1           0        6.834578   -4.164181   -4.688848
    158          1           0        8.094366   -2.905463   -4.660612
 ---------------------------------------------------------------------

 SCF Done:  E(RCAM-B3LYP) =  -4069.81347936     A.U. after   19 cycles

 Excitation energies and oscillator strengths:

 Excited State   1:      Singlet-A      1.6664 eV  744.03 nm  f=0.3108  <S**2>=0.000
     310 -> 316        0.13899
     311 -> 313        0.38861
     312 -> 314        0.56513
 This state for optimization and/or second-order correction.
 Total Energy, E(TD-HF/TD-DFT) =  -4069.75224062
 Copying the excited state density for this state as the 1-particle RhoCI density.

 Excited State   2:      Singlet-A      1.6750 eV  740.20 nm  f=0.3350  <S**2>=0.000
     309 -> 315        0.14333
     311 -> 313        0.56469
     312 -> 314       -0.38874

 Excited State   3:      Singlet-A      2.1839 eV  567.71 nm  f=0.1021  <S**2>=0.000
     310 -> 314        0.64007
     312 -> 316       -0.26801

 Excited State   4:      Singlet-A      2.1920 eV  565.63 nm  f=0.0953  <S**2>=0.000
     309 -> 313        0.63832
     311 -> 315       -0.27556

 Excited State   5:      Singlet-A      2.2127 eV  560.34 nm  f=0.0000  <S**2>=0.000
     312 -> 313        0.70701

 The electronic state is 1-A.
 Alpha  occ. eigenvalues --  -46.87961 -46.87372 -19.26715 -19.26140 -19.19499
 Alpha  occ. eigenvalues --  -19.18988 -19.18942 -19.18536 -19.18449 -19.17823
 Alpha  occ. eigenvalues --  -14.42618 -14.42156 -14.41597 -14.41089 -14.39568
 Alpha  occ. eigenvalues --  -14.39063 -14.38777 -14.38321 -10.39525 -10.38870
 Alpha  occ. eigenvalues --  -10.35619 -10.35217 -10.34674 -10.34000 -10.32130
 Alpha  occ. eigenvalues --  -10.31595 -10.31561 -10.31089 -10.30912 -10.30762
 Alpha  occ. eigenvalues --  -10.30688 -10.30674 -10.30325 -10.30149 -10.30076
 Alpha  occ. eigenvalues --  -10.30045 -10.29874 -10.29822 -10.29674 -10.29415
 Alpha  occ. eigenvalues --  -10.29140 -10.29138 -10.28947 -10.28772 -10.28562
 Alpha  occ. eigenvalues --  -10.28291 -10.28277 -10.28261 -10.28109 -10.27991
 Alpha  occ. eigenvalues --  -10.27890 -10.27767 -10.27713 -10.27615 -10.27601
 Alpha  occ. eigenvalues --  -10.27546 -10.27530 -10.27517 -10.27452 -10.27355
 Alpha  occ. eigenvalues --  -10.27268 -10.27242 -10.27205 -10.27190 -10.27109
 Alpha  occ. eigenvalues --  -10.26925 -10.26818 -10.26585 -10.26393 -10.26304
 Alpha  occ. eigenvalues --  -10.26275 -10.26165 -10.26140 -10.26067 -10.26001
 Alpha  occ. eigenvalues --  -10.25653 -10.25610 -10.25492 -10.25428 -10.25077
 Alpha  occ. eigenvalues --  -10.25050 -10.24947 -10.24600 -10.24597 -10.24597
 Alpha  occ. eigenvalues --  -10.24443  -3.16703  -3.16123  -1.91584  -1.91171
 Alpha  occ. eigenvalues --   -1.91014  -1.91006  -1.90593  -1.90431  -1.17067
 Alpha  occ. eigenvalues --   -1.16431  -1.08926  -1.08439  -1.07387  -1.07102
 Alpha  occ. eigenvalues --   -1.06796  -1.06727  -1.04758  -1.04156  -1.03917
 Alpha  occ. eigenvalues --   -1.03408  -1.03369  -1.02771  -1.02582  -1.01831
 Alpha  occ. eigenvalues --   -0.92192  -0.91702  -0.89629  -0.89371  -0.89271
 Alpha  occ. eigenvalues --   -0.88648  -0.88381  -0.88075  -0.88035  -0.87841
 Alpha  occ. eigenvalues --   -0.87518  -0.87443  -0.87339  -0.86857  -0.85171
 Alpha  occ. eigenvalues --   -0.84600  -0.84035  -0.83719  -0.83109  -0.82844
 Alpha  occ. eigenvalues --   -0.82728  -0.82297  -0.81861  -0.81333  -0.80812
 Alpha  occ. eigenvalues --   -0.80168  -0.78972  -0.78347  -0.77374  -0.77137
 Alpha  occ. eigenvalues --   -0.76855  -0.76553  -0.76138  -0.75433  -0.75021
 Alpha  occ. eigenvalues --   -0.74610  -0.72946  -0.72401  -0.71843  -0.71262
 Alpha  occ. eigenvalues --   -0.69947  -0.69578  -0.69061  -0.68453  -0.67835
 Alpha  occ. eigenvalues --   -0.67416  -0.67340  -0.66872  -0.65488  -0.65071
 Alpha  occ. eigenvalues --   -0.64905  -0.64803  -0.64485  -0.64380  -0.64342
 Alpha  occ. eigenvalues --   -0.63977  -0.62587  -0.62037  -0.60596  -0.60101
 Alpha  occ. eigenvalues --   -0.59990  -0.59379  -0.59169  -0.58710  -0.58699
 Alpha  occ. eigenvalues --   -0.58158  -0.57888  -0.57473  -0.57310  -0.57016
 Alpha  occ. eigenvalues --   -0.56526  -0.56281  -0.55911  -0.55720  -0.55621
 Alpha  occ. eigenvalues --   -0.55520  -0.55185  -0.55053  -0.54730  -0.54293
 Alpha  occ. eigenvalues --   -0.54089  -0.53475  -0.53453  -0.53432  -0.53164
 Alpha  occ. eigenvalues --   -0.52973  -0.52934  -0.52858  -0.52597  -0.52469
 Alpha  occ. eigenvalues --   -0.52330  -0.52225  -0.52139  -0.51825  -0.51632
 Alpha  occ. eigenvalues --   -0.51390  -0.51301  -0.50924  -0.50720  -0.50224
 Alpha  occ. eigenvalues --   -0.50138  -0.50059  -0.49748  -0.49719  -0.49578
 Alpha  occ. eigenvalues --   -0.49437  -0.49299  -0.49152  -0.48892  -0.48840
 Alpha  occ. eigenvalues --   -0.48665  -0.48659  -0.48589  -0.48247  -0.48178
 Alpha  occ. eigenvalues --   -0.48078  -0.47868  -0.47469  -0.47280  -0.46953
 Alpha  occ. eigenvalues --   -0.46852  -0.46758  -0.46548  -0.46408  -0.46343
 Alpha  occ. eigenvalues --   -0.46146  -0.46077  -0.45998  -0.45873  -0.45544
 Alpha  occ. eigenvalues --   -0.45311  -0.45036  -0.44820  -0.44663  -0.44342
 Alpha  occ. eigenvalues --   -0.44265  -0.44242  -0.44211  -0.44134  -0.43857
 Alpha  occ. eigenvalues --   -0.43766  -0.43733  -0.43640  -0.43543  -0.43297
 Alpha  occ. eigenvalues --   -0.43216  -0.43056  -0.43054  -0.42741  -0.42703
 Alpha  occ. eigenvalues --   -0.42628  -0.42339  -0.42136  -0.41894  -0.41716
 Alpha  occ. eigenvalues --   -0.41710  -0.41396  -0.41312  -0.41110  -0.41031
 Alpha  occ. eigenvalues --   -0.40988  -0.40664  -0.40648  -0.40485  -0.40430
 Alpha  occ. eigenvalues --   -0.40376  -0.40153  -0.39855  -0.39461  -0.39250
 Alpha  occ. eigenvalues --   -0.38570  -0.38139  -0.37956  -0.37472  -0.37439
 Alpha  occ. eigenvalues --   -0.37299  -0.37065  -0.37008  -0.36830  -0.36559
 Alpha  occ. eigenvalues --   -0.36388  -0.35965  -0.34470  -0.34199  -0.33963
 Alpha  occ. eigenvalues --   -0.33631  -0.33375  -0.32882  -0.31515  -0.31216
 Alpha  occ. eigenvalues --   -0.31094  -0.30678  -0.30314  -0.29730  -0.29638
 Alpha  occ. eigenvalues --   -0.29525  -0.29064  -0.28943  -0.24256  -0.23737
 Alpha  occ. eigenvalues --   -0.21298  -0.20818
 Alpha virt. eigenvalues --   -0.08955  -0.08506  -0.01909  -0.01410  -0.00246
 Alpha virt. eigenvalues --    0.00253   0.01973   0.02348   0.02580   0.03617
 Alpha virt. eigenvalues --    0.04537   0.04687   0.05134   0.05397   0.05930

 Mulliken charges:
               1
     1  Mg   0.839122
     2  C   -0.004185
     3  C   -0.093482
     4  C   -0.045320
     5  C   -0.063969
     6  N   -0.256987
     7  C   -0.052320
     8  C   -0.014280
     9  C   -0.087253
    10  C    0.046812
    11  C    0.104667
    12  C    0.053335
    13  C   -0.071332
    14  H    0.033411
    15  N   -0.433343
    16  C    0.169169
    17  C   -0.176714
    18  C   -0.003862
    19  C    0.149407
    20  C    0.110016
    21  C    0.012003
    22  O   -0.249038
    23  C    0.062262
    24  N   -0.341282
    25  C    0.041900
    26  C   -0.028378
    27  C   -0.024052
    28  C    0.075289
    29  C    0.076039
    30  C    0.034811
    31  C   -0.005480
    32  N   -0.310068
    33  C    0.079779
    34  C   -0.171293
    35  C    0.007290
    36  C    0.081987
    37  C    0.127727
    38  C    0.043640
    39  O   -0.190133
    40  C   -0.004705
    41  C    0.213690
    42  O   -0.262031
    43  O   -0.303438
    44  C    0.158472
    45  H   -0.017096
    46  H   -0.016262
    47  H   -0.041070
    48  H    0.000660
    49  H   -0.003291
    50  H    0.025423
    51  H    0.016780
    52  H    0.017179
    53  H    0.013333
    54  H    0.041611
    55  H    0.018213
    56  H    0.019722
    57  H    0.006584
    58  H    0.027229
    59  H    0.040287
    60  H    0.038070
    61  H    0.035658
    62  H    0.030935
    63  H    0.017304
    64  H    0.009659
    65  H    0.023877
    66  H    0.012224
    67  H    0.005205
    68  H    0.007981
    69  H    0.004847
    70  H    0.009043
    71  H    0.022153
    72  H    0.027434
    73  H    0.045297
    74  H    0.009887
    75  H    0.046574
    76  H    0.035887
    77  H    0.043717
    78  H    0.047410
    79  H    0.050010
    80  Mg   0.836445
    81  C   -0.016700
    82  C   -0.086165
    83  C   -0.046814
    84  C   -0.064669
    85  N   -0.255026
    86  C   -0.049373
    87  C   -0.015210
    88  C   -0.089882
    89  C    0.043175
    90  C    0.112552
    91  C    0.062425
    92  C   -0.077362
    93  H    0.032711
    94  N   -0.423800
    95  C    0.161695
    96  C   -0.172072
    97  C   -0.009423
    98  C    0.153013
    99  C    0.099330
   100  C    0.014824
   101  O   -0.254951
   102  C    0.061579
   103  N   -0.350389
   104  C    0.037584
   105  C   -0.019483
   106  C   -0.035104
   107  C    0.088605
   108  C    0.074341
   109  C    0.035019
   110  C   -0.007508
   111  N   -0.323999
   112  C    0.077686
   113  C   -0.163488
   114  C    0.001833
   115  C    0.095894
   116  C    0.131690
   117  C    0.041216
   118  O   -0.189792
   119  C    0.001105
   120  C    0.211358
   121  O   -0.251115
   122  O   -0.305783
   123  C    0.152203
   124  H   -0.008495
   125  H   -0.017549
   126  H   -0.040777
   127  H   -0.001519
   128  H   -0.003362
   129  H    0.017716
   130  H    0.021312
   131  H    0.027498
   132  H    0.013584
   133  H    0.036299
   134  H    0.021482
   135  H    0.020472
   136  H    0.012958
   137  H    0.025824
   138  H    0.038163
   139  H    0.037686
   140  H    0.034975
   141  H    0.034177
   142  H    0.013791
   143  H    0.012717
   144  H    0.023035
   145  H    0.011005
   146  H    0.003129
   147  H    0.004786
   148  H    0.003952
   149  H    0.010248
   150  H    0.017512
   151  H    0.030847
   152  H    0.045018
   153  H    0.008417
   154  H    0.046544
   155  H    0.033676
   156  H    0.042901
   157  H    0.050223
   158  H    0.053226
 Sum of Mulliken charges =  -0.00000

 Dipole moment (field-independent basis, Debye):
    X=             -6.0844    Y=             -0.4755    Z=              3.4381  Tot=              7.0048
 Quadrupole moment (field-independent basis, Debye-Ang):
   XX=           -519.3575   YY=           -497.4035   ZZ=           -503.4082
   XY=            -21.4744   XZ=             -9.6690   YZ=              0.6739

 Normal termination of Gaussian 16 at Fri Sep  3 18:30:34 2021.
