 Gaussian 16, Revision A.03,
 Gaussian 16:  ES64L-G16RevA.03 25-Dec-2016

 -----------------------------------
 #p cam-b3lyp/Def2SVP td=(nstates=5)
 -----------------------------------

 --------------------------------
 TDDFT excited states in gaussian
 --------------------------------
 Symbolic Z-matrix:
 Charge =  0 Multiplicity = 1

                         Standard orientation:
 ---------------------------------------------------------------------
 Center     Atomic      Atomic             Coordinates (Angstroms)
 Number     Number       Type             X           Y           Z
 ---------------------------------------------------------------------
      1         12           0        6.887303    0.332074    0.366465
      2          6           0        7.004909   -2.875570   -1.217644
      3          6           0        7.856197    1.675407   -2.616783
      4          6           0        7.230740    3.111855    1.853573
      5          6           0        7.043315   -1.335592    3.422641
      6          7           0        7.340222   -0.586543   -1.596097
      7          6           0        7.289312   -1.820634   -2.087626
      8          6           0        7.492437   -1.879727   -3.631200
      9          6           0        8.295752   -0.517203   -3.831731
     10          6           0        7.774311    0.251277   -2.630289
     11          6           0        9.806739   -0.675100   -3.695758
     12          6           0        6.134481   -1.864185   -4.410587
     13          6           0        6.226347   -2.245599   -5.890938
     14          1           0        5.133584   -2.997168   -6.489570
     15          7           0        6.981539    2.168439   -0.355845
     16          6           0        7.383132    2.530480   -1.597995
     17          6           0        7.274742    4.004398   -1.647961
     18          6           0        6.958884    4.484259   -0.273893
     19          6           0        7.071734    3.260499    0.477809
     20          6           0        7.416389    4.797517   -2.910755
     21          6           0        6.620889    5.833761    0.276321
     22          8           0        6.609893    6.072988    1.532197
     23          6           0        6.386372    6.904959   -0.708858
     24          7           0        7.327101    0.840467    2.342762
     25          6           0        7.359343    2.118576    2.735676
     26          6           0        7.411168    2.229074    4.230682
     27          6           0        7.161583    0.755102    4.791811
     28          6           0        7.086876   -0.001512    3.442654
     29          6           0        8.717342    2.783548    4.815900
     30          6           0        6.002291    0.574842    5.803723
     31          6           0        4.677588    0.813744    5.114387
     32          7           0        6.825894   -1.734080    1.028492
     33          6           0        6.929842   -2.200424    2.346972
     34          6           0        6.944563   -3.673489    2.284269
     35          6           0        6.864333   -3.963414    0.923625
     36          6           0        6.829823   -2.748261    0.181666
     37          6           0        7.082348   -4.553500    3.393787
     38          6           0        6.824571   -5.016988   -0.077503
     39          8           0        6.732482   -6.244864   -0.040994
     40          6           0        7.036862   -4.355074   -1.510203
     41          6           0        5.984430   -4.913031   -2.429104
     42          8           0        4.777468   -4.647768   -2.255197
     43          8           0        6.576407   -5.469650   -3.496943
     44          6           0        5.586779   -6.016602   -4.463190
     45          1           0        8.381467    2.181622   -3.429050
     46          1           0        7.241936    4.048543    2.414757
     47          1           0        7.004928   -1.924059    4.341165
     48          1           0        8.092971   -2.720565   -3.978728
     49          1           0        8.015440   -0.011723   -4.755656
     50          1           0       10.073724   -1.675399   -3.355109
     51          1           0       10.112518    0.071132   -2.962184
     52          1           0       10.309543   -0.405503   -4.624888
     53          1           0        5.786159   -0.835706   -4.505260
     54          1           0        5.399984   -2.502811   -3.918655
     55          1           0        7.183702   -2.712831   -6.123476
     56          1           0        6.221948   -1.328905   -6.480729
     57          1           0        7.809418    4.188756   -3.724071
     58          1           0        8.189578    5.544587   -2.732499
     59          1           0        6.486014    5.291206   -3.191832
     60          1           0        7.277363    7.028818   -1.324767
     61          1           0        6.070122    7.776147   -0.136262
     62          1           0        5.587809    6.595381   -1.383697
     63          1           0        6.628459    2.889682    4.601343
     64          1           0        8.034330    0.363316    5.314774
     65          1           0        8.577403    3.666265    5.440346
     66          1           0        9.395008    2.993088    3.988764
     67          1           0        9.298550    2.067338    5.396122
     68          1           0        6.082628    1.306788    6.606685
     69          1           0        5.978320   -0.415402    6.258798
     70          1           0        4.577305    1.897991    5.148818
     71          1           0        3.869909    0.329309    5.664104
     72          1           0        4.717156    0.523347    4.064345
     73          1           0        6.358352   -5.353637    3.240232
     74          1           0        6.905156   -4.034283    4.335393
     75          1           0        8.120449   -4.864348    3.277272
     76          1           0        8.043510   -4.620166   -1.831928
     77          1           0        5.833521   -7.067441   -4.615144
     78          1           0        5.608535   -5.360753   -5.333704
     79          1           0        4.558893   -6.095914   -4.107523
     80         12           0       -6.340930    0.790929    0.161958
     81          6           0       -8.882617   -1.742405    0.195427
     82          6           0       -8.337930    2.555583   -1.967033
     83          6           0       -3.940302    2.825309   -0.245102
     84          6           0       -4.115722   -1.622163    1.332899
     85          7           0       -8.331005    0.357957   -0.700823
     86          6           0       -9.227817   -0.607657   -0.567856
     87          6           0      -10.600177   -0.306171   -1.227625
     88          6           0      -10.111138    0.761960   -2.322533
     89          6           0       -8.866945    1.289341   -1.610827
     90          6           0       -9.678164    0.125441   -3.632773
     91          6           0      -11.620809    0.330346   -0.220064
     92          6           0      -13.070410    0.365411   -0.709138
     93          1           0      -14.139205    0.172732    0.267089
     94          7           0       -6.336619    2.649702   -0.533383
     95          6           0       -7.236356    3.207460   -1.370433
     96          6           0       -6.776069    4.586561   -1.594902
     97          6           0       -5.442753    4.746321   -0.953469
     98          6           0       -5.172958    3.377435   -0.561736
     99          6           0       -7.614631    5.621853   -2.286578
    100          6           0       -4.551549    5.932359   -0.740687
    101          8           0       -3.331202    5.800062   -0.371796
    102          6           0       -5.121650    7.247685   -1.066860
    103          7           0       -4.276684    0.580004    0.291381
    104          6           0       -3.461779    1.635635    0.119600
    105          6           0       -2.046578    1.304657    0.529553
    106          6           0       -2.128982   -0.124287    1.242924
    107          6           0       -3.629222   -0.425590    1.033391
    108          6           0       -1.021577    1.249432   -0.603010
    109          6           0       -1.547830   -0.228213    2.679630
    110          6           0       -2.391747    0.581473    3.637545
    111          7           0       -6.483205   -1.251047    0.853441
    112          6           0       -5.423977   -2.085105    1.273528
    113          6           0       -5.999698   -3.419348    1.539599
    114          6           0       -7.360692   -3.273951    1.231342
    115          6           0       -7.611510   -1.948604    0.784091
    116          6           0       -5.273929   -4.570165    1.957913
    117          6           0       -8.640259   -3.943247    1.172458
    118          8           0       -9.058643   -5.049100    1.512716
    119          6           0       -9.659082   -3.016828    0.378640
    120          6           0      -10.938161   -2.950722    1.167389
    121          8           0      -10.963549   -2.408023    2.286060
    122          8           0      -11.959690   -3.341808    0.383878
    123          6           0      -13.251535   -3.282829    1.118374
    124          1           0       -8.780997    3.084009   -2.811619
    125          1           0       -3.095063    3.517212   -0.263292
    126          1           0       -3.505621   -2.401588    1.794365
    127          1           0      -11.065033   -1.153765   -1.716770
    128          1           0      -10.841334    1.556413   -2.452975
    129          1           0       -9.659040   -0.952450   -3.570083
    130          1           0       -8.686903    0.510395   -3.833401
    131          1           0      -10.310718    0.480387   -4.451445
    132          1           0      -11.422743    1.407107   -0.142059
    133          1           0      -11.572567   -0.160723    0.732370
    134          1           0      -13.226561   -0.279711   -1.582291
    135          1           0      -13.288449    1.371134   -1.076556
    136          1           0       -8.475332    5.168957   -2.794000
    137          1           0       -7.006930    6.034996   -3.098906
    138          1           0       -7.914508    6.434247   -1.621174
    139          1           0       -5.426715    7.260309   -2.110518
    140          1           0       -4.366833    7.976363   -0.764923
    141          1           0       -6.030135    7.392558   -0.471648
    142          1           0       -1.669806    2.030662    1.239528
    143          1           0       -1.573319   -0.891441    0.683864
    144          1           0       -0.167377    1.936272   -0.452493
    145          1           0       -1.528203    1.470783   -1.532988
    146          1           0       -0.601171    0.264273   -0.797755
    147          1           0       -0.542880    0.199669    2.713511
    148          1           0       -1.476269   -1.247607    3.043926
    149          1           0       -2.001315    1.595981    3.513450
    150          1           0       -2.257561    0.229007    4.658234
    151          1           0       -3.442205    0.591931    3.324358
    152          1           0       -5.860296   -5.042700    2.734693
    153          1           0       -4.280336   -4.305925    2.313887
    154          1           0       -5.238324   -5.130038    1.019534
    155          1           0       -9.807782   -3.461922   -0.605915
    156          1           0      -13.702145   -4.277968    1.052646
    157          1           0      -13.814085   -2.444309    0.666526
    158          1           0      -13.211658   -3.139189    2.191788
 ---------------------------------------------------------------------

 SCF Done:  E(RCAM-B3LYP) =  -4069.81193625     A.U. after   19 cycles

 Excitation energies and oscillator strengths:

 Excited State   1:      Singlet-A      1.6645 eV  744.90 nm  f=0.0098  <S**2>=0.000
     309 -> 315       -0.10789
     310 -> 316        0.13294
     311 -> 313       -0.43126
     312 -> 314        0.53434
 This state for optimization and/or second-order correction.
 Total Energy, E(TD-HF/TD-DFT) =  -4069.75076883
 Copying the excited state density for this state as the 1-particle RhoCI density.

 Excited State   2:      Singlet-A      1.6898 eV  733.71 nm  f=0.7309  <S**2>=0.000
     309 -> 315        0.13877
     310 -> 316        0.11130
     311 -> 313        0.53313
     312 -> 314        0.43033

 Excited State   3:      Singlet-A      2.1851 eV  567.40 nm  f=0.1023  <S**2>=0.000
     310 -> 314        0.63995
     312 -> 316       -0.27142

 Excited State   4:      Singlet-A      2.1941 eV  565.09 nm  f=0.0992  <S**2>=0.000
     309 -> 313        0.63784
     311 -> 315       -0.27779

 Excited State   5:      Singlet-A      2.6444 eV  468.86 nm  f=0.0000  <S**2>=0.000
     312 -> 313        0.70681

 The electronic state is 1-A.
 Alpha  occ. eigenvalues --  -46.87840 -46.87535 -19.26332 -19.26261 -19.19078
 Alpha  occ. eigenvalues --  -19.19067 -19.18799 -19.18619 -19.18205 -19.17935
 Alpha  occ. eigenvalues --  -14.42488 -14.42377 -14.41489 -14.41223 -14.39438
 Alpha  occ. eigenvalues --  -14.39231 -14.38632 -14.38472 -10.39135 -10.38994
 Alpha  occ. eigenvalues --  -10.35429 -10.35300 -10.34427 -10.34113 -10.31720
 Alpha  occ. eigenvalues --  -10.31678 -10.31447 -10.31187 -10.30939 -10.30916
 Alpha  occ. eigenvalues --  -10.30611 -10.30544 -10.30268 -10.30237 -10.30233
 Alpha  occ. eigenvalues --  -10.29998 -10.29962 -10.29748 -10.29660 -10.29312
 Alpha  occ. eigenvalues --  -10.29282 -10.29277 -10.28784 -10.28625 -10.28583
 Alpha  occ. eigenvalues --  -10.28574 -10.28399 -10.28289 -10.28150 -10.28044
 Alpha  occ. eigenvalues --  -10.27877 -10.27823 -10.27762 -10.27607 -10.27550
 Alpha  occ. eigenvalues --  -10.27542 -10.27483 -10.27478 -10.27440 -10.27383
 Alpha  occ. eigenvalues --  -10.27363 -10.27349 -10.27315 -10.27198 -10.27198
 Alpha  occ. eigenvalues --  -10.26941 -10.26747 -10.26609 -10.26350 -10.26349
 Alpha  occ. eigenvalues --  -10.26261 -10.26246 -10.26059 -10.25937 -10.25931
 Alpha  occ. eigenvalues --  -10.25882 -10.25783 -10.25671 -10.25455 -10.25207
 Alpha  occ. eigenvalues --  -10.24867 -10.24821 -10.24788 -10.24748 -10.24563
 Alpha  occ. eigenvalues --  -10.24560  -3.16584  -3.16285  -1.91466  -1.91167
 Alpha  occ. eigenvalues --   -1.91052  -1.90894  -1.90756  -1.90593  -1.16682
 Alpha  occ. eigenvalues --   -1.16553  -1.08665  -1.08543  -1.07197  -1.06874
 Alpha  occ. eigenvalues --   -1.06851  -1.06698  -1.04618  -1.04377  -1.03798
 Alpha  occ. eigenvalues --   -1.03537  -1.03271  -1.02905  -1.02449  -1.01982
 Alpha  occ. eigenvalues --   -0.92010  -0.91867  -0.89564  -0.89342  -0.89223
 Alpha  occ. eigenvalues --   -0.89050  -0.88327  -0.88059  -0.87906  -0.87708
 Alpha  occ. eigenvalues --   -0.87653  -0.87560  -0.87280  -0.87018  -0.85014
 Alpha  occ. eigenvalues --   -0.84894  -0.83983  -0.83717  -0.82965  -0.82826
 Alpha  occ. eigenvalues --   -0.82671  -0.82547  -0.81624  -0.81484  -0.80627
 Alpha  occ. eigenvalues --   -0.80330  -0.78816  -0.78519  -0.77254  -0.77026
 Alpha  occ. eigenvalues --   -0.76973  -0.76777  -0.75958  -0.75731  -0.74934
 Alpha  occ. eigenvalues --   -0.74653  -0.72810  -0.72566  -0.71705  -0.71453
 Alpha  occ. eigenvalues --   -0.69962  -0.69587  -0.68902  -0.68719  -0.67669
 Alpha  occ. eigenvalues --   -0.67481  -0.67243  -0.67105  -0.65324  -0.65165
 Alpha  occ. eigenvalues --   -0.64893  -0.64658  -0.64643  -0.64536  -0.64311
 Alpha  occ. eigenvalues --   -0.64049  -0.62340  -0.62164  -0.60459  -0.60221
 Alpha  occ. eigenvalues --   -0.59838  -0.59688  -0.59024  -0.58863  -0.58539
 Alpha  occ. eigenvalues --   -0.58300  -0.57626  -0.57441  -0.57341  -0.57103
 Alpha  occ. eigenvalues --   -0.56338  -0.56081  -0.56017  -0.55784  -0.55534
 Alpha  occ. eigenvalues --   -0.55383  -0.55348  -0.55103  -0.54570  -0.54350
 Alpha  occ. eigenvalues --   -0.53929  -0.53813  -0.53325  -0.53239  -0.53106
 Alpha  occ. eigenvalues --   -0.53032  -0.52953  -0.52791  -0.52760  -0.52579
 Alpha  occ. eigenvalues --   -0.52495  -0.52230  -0.51953  -0.51731  -0.51639
 Alpha  occ. eigenvalues --   -0.51562  -0.51236  -0.51074  -0.50561  -0.50380
 Alpha  occ. eigenvalues --   -0.50069  -0.49928  -0.49874  -0.49720  -0.49532
 Alpha  occ. eigenvalues --   -0.49386  -0.49241  -0.49126  -0.49095  -0.48991
 Alpha  occ. eigenvalues --   -0.48629  -0.48493  -0.48449  -0.48447  -0.48240
 Alpha  occ. eigenvalues --   -0.48223  -0.47721  -0.47480  -0.47319  -0.46998
 Alpha  occ. eigenvalues --   -0.46837  -0.46587  -0.46576  -0.46449  -0.46395
 Alpha  occ. eigenvalues --   -0.46202  -0.46139  -0.45943  -0.45861  -0.45694
 Alpha  occ. eigenvalues --   -0.45237  -0.45062  -0.44614  -0.44525  -0.44406
 Alpha  occ. eigenvalues --   -0.44354  -0.44181  -0.44119  -0.44037  -0.44019
 Alpha  occ. eigenvalues --   -0.43946  -0.43837  -0.43534  -0.43437  -0.43420
 Alpha  occ. eigenvalues --   -0.43267  -0.43062  -0.42824  -0.42774  -0.42742
 Alpha  occ. eigenvalues --   -0.42706  -0.42407  -0.42058  -0.41827  -0.41739
 Alpha  occ. eigenvalues --   -0.41567  -0.41547  -0.41344  -0.41173  -0.40908
 Alpha  occ. eigenvalues --   -0.40869  -0.40817  -0.40627  -0.40612  -0.40585
 Alpha  occ. eigenvalues --   -0.40338  -0.40264  -0.40140  -0.39501  -0.39254
 Alpha  occ. eigenvalues --   -0.38509  -0.38198  -0.37785  -0.37554  -0.37360
 Alpha  occ. eigenvalues --   -0.37299  -0.37121  -0.37087  -0.36761  -0.36662
 Alpha  occ. eigenvalues --   -0.36236  -0.36081  -0.34325  -0.34126  -0.33825
 Alpha  occ. eigenvalues --   -0.33762  -0.33225  -0.33048  -0.31332  -0.31177
 Alpha  occ. eigenvalues --   -0.31068  -0.30849  -0.30066  -0.29839  -0.29474
 Alpha  occ. eigenvalues --   -0.29357  -0.29213  -0.29086  -0.24120  -0.23909
 Alpha  occ. eigenvalues --   -0.21163  -0.20990
 Alpha virt. eigenvalues --   -0.08805  -0.08670  -0.01783  -0.01556  -0.00070
 Alpha virt. eigenvalues --    0.00076   0.02165   0.02334   0.03004   0.03344
 Alpha virt. eigenvalues --    0.04680   0.04845   0.05047   0.05263   0.06140

 Mulliken charges:
               1
     1  Mg   0.837483
     2  C   -0.003208
     3  C   -0.093955
     4  C   -0.045850
     5  C   -0.064176
     6  N   -0.256822
     7  C   -0.052679
     8  C   -0.013902
     9  C   -0.087042
    10  C    0.046317
    11  C    0.104763
    12  C    0.053408
    13  C   -0.071852
    14  H    0.036063
    15  N   -0.433334
    16  C    0.168483
    17  C   -0.176833
    18  C   -0.003635
    19  C    0.148647
    20  C    0.110112
    21  C    0.012828
    22  O   -0.249217
    23  C    0.062202
    24  N   -0.341034
    25  C    0.041131
    26  C   -0.028292
    27  C   -0.023935
    28  C    0.074443
    29  C    0.076085
    30  C    0.035220
    31  C   -0.004686
    32  N   -0.310326
    33  C    0.079802
    34  C   -0.170185
    35  C    0.008326
    36  C    0.082361
    37  C    0.127408
    38  C    0.045766
    39  O   -0.188455
    40  C   -0.005204
    41  C    0.213088
    42  O   -0.257877
    43  O   -0.304637
    44  C    0.157659
    45  H   -0.017364
    46  H   -0.016461
    47  H   -0.041577
    48  H    0.001020
    49  H   -0.003887
    50  H    0.025545
    51  H    0.016529
    52  H    0.016812
    53  H    0.011217
    54  H    0.043653
    55  H    0.018014
    56  H    0.018121
    57  H    0.005824
    58  H    0.027020
    59  H    0.040344
    60  H    0.037037
    61  H    0.036450
    62  H    0.032483
    63  H    0.016753
    64  H    0.009673
    65  H    0.023537
    66  H    0.012667
    67  H    0.004858
    68  H    0.006855
    69  H    0.004766
    70  H    0.009379
    71  H    0.017255
    72  H    0.028017
    73  H    0.047273
    74  H    0.008977
    75  H    0.046216
    76  H    0.035338
    77  H    0.043194
    78  H    0.046495
    79  H    0.053484
    80  Mg   0.837664
    81  C   -0.017067
    82  C   -0.088099
    83  C   -0.045619
    84  C   -0.064217
    85  N   -0.254587
    86  C   -0.049805
    87  C   -0.015101
    88  C   -0.090472
    89  C    0.045717
    90  C    0.114473
    91  C    0.062593
    92  C   -0.077740
    93  H    0.034654
    94  N   -0.423376
    95  C    0.162792
    96  C   -0.175045
    97  C   -0.008098
    98  C    0.152054
    99  C    0.099553
   100  C    0.015255
   101  O   -0.253380
   102  C    0.061261
   103  N   -0.350051
   104  C    0.037515
   105  C   -0.020040
   106  C   -0.035510
   107  C    0.088713
   108  C    0.072942
   109  C    0.034675
   110  C   -0.007689
   111  N   -0.324187
   112  C    0.078388
   113  C   -0.162725
   114  C    0.002194
   115  C    0.096331
   116  C    0.131525
   117  C    0.042494
   118  O   -0.187860
   119  C    0.000894
   120  C    0.211217
   121  O   -0.251092
   122  O   -0.305640
   123  C    0.152101
   124  H   -0.020173
   125  H   -0.015765
   126  H   -0.038939
   127  H   -0.000784
   128  H   -0.004618
   129  H    0.022453
   130  H    0.014385
   131  H    0.015876
   132  H    0.013866
   133  H    0.037662
   134  H    0.020688
   135  H    0.019423
   136  H    0.008515
   137  H    0.025527
   138  H    0.039459
   139  H    0.037815
   140  H    0.036020
   141  H    0.033903
   142  H    0.014329
   143  H    0.015342
   144  H    0.024320
   145  H    0.010756
   146  H    0.008502
   147  H    0.006753
   148  H    0.004713
   149  H    0.010809
   150  H    0.017357
   151  H    0.029627
   152  H    0.045784
   153  H    0.009563
   154  H    0.047666
   155  H    0.034931
   156  H    0.043802
   157  H    0.049343
   158  H    0.053502
 Sum of Mulliken charges =  -0.00000

 Dipole moment (field-independent basis, Debye):
    X=              1.3990    Y=              5.7047    Z=             -6.1143  Tot=              8.4785
 Quadrupole moment (field-independent basis, Debye-Ang):
   XX=           -451.1078   YY=           -553.4307   ZZ=           -469.9153
   XY=            -26.5508   XZ=             19.4790   YZ=            -10.9199

 Normal termination of Gaussian 16 at Sat Sep 11 17:18:50 2021.
