 Gaussian 16, Revision A.03,
 Gaussian 16:  ES64L-G16RevA.03 25-Dec-2016

 -----------------------------------
 #p cam-b3lyp/Def2SVP td=(nstates=5)
 -----------------------------------

 --------------------------------
 TDDFT excited states in gaussian
 --------------------------------
 Symbolic Z-matrix:
 Charge =  0 Multiplicity = 1

                         Standard orientation:
 ---------------------------------------------------------------------
 Center     Atomic      Atomic             Coordinates (Angstroms)
 Number     Number       Type             X           Y           Z
 ---------------------------------------------------------------------
      1         12           0       -7.859319   -0.719644    0.194096
      2          6           0       -8.037464    2.853343    0.074748
      3          6           0       -8.783606   -0.726883   -3.090520
      4          6           0       -8.150780   -3.871007    0.395549
      5          6           0       -8.067004   -0.466798    3.663764
      6          7           0       -8.321610    0.919789   -1.219832
      7          6           0       -8.294629    2.247382   -1.157049
      8          6           0       -8.490928    2.935457   -2.541026
      9          6           0       -9.263767    1.763806   -3.297301
     10          6           0       -8.732226    0.576755   -2.513529
     11          6           0      -10.778482    1.825113   -3.128834
     12          6           0       -7.128907    3.266958   -3.238691
     13          6           0       -7.221219    4.224308   -4.430460
     14          1           0       -6.141728    5.174946   -4.650312
     15          7           0       -7.910367   -2.094788   -1.223374
     16          6           0       -8.297620   -1.918143   -2.509500
     17          6           0       -8.157371   -3.237578   -3.162264
     18          6           0       -7.838456   -4.236751   -2.104890
     19          6           0       -7.981453   -3.435114   -0.916484
     20          6           0       -8.275385   -3.440370   -4.641689
     21          6           0       -7.474456   -5.686911   -2.156605
     22          8           0       -7.464874   -6.423456   -1.111626
     23          6           0       -7.211877   -6.251056   -3.492956
     24          7           0       -8.298402   -2.006773    1.777807
     25          6           0       -8.305261   -3.333372    1.607296
     26          6           0       -8.362495   -4.052614    2.922345
     27          6           0       -8.147521   -2.938118    4.045483
     28          6           0       -8.082034   -1.690471    3.130410
     29          6           0       -9.659503   -4.821968    3.208479
     30          6           0       -6.997654   -3.171962    5.057184
     31          6           0       -5.664554   -3.081612    4.348819
     32          7           0       -7.845708    0.889057    1.651129
     33          6           0       -7.966509    0.767048    3.042960
     34          6           0       -8.012506    2.133890    3.594048
     35          6           0       -7.931424    2.961471    2.475844
     36          6           0       -7.866983    2.162281    1.298798
     37          6           0       -8.174921    2.474269    4.965980
     38          6           0       -7.909060    4.335080    1.999867
     39          8           0       -7.843529    5.439546    2.541489
     40          6           0       -8.099630    4.320724    0.418948
     41          6           0       -7.054637    5.226716   -0.173062
     42          8           0       -5.843183    4.934327   -0.107826
     43          8           0       -7.652847    6.164442   -0.923633
     44          6           0       -6.670159    7.078886   -1.564157
     45          1           0       -9.293653   -0.861284   -4.046413
     46          1           0       -8.144800   -4.955913    0.519566
     47          1           0       -8.046040   -0.309880    4.743760
     48          1           0       -9.107545    3.834175   -2.518395
     49          1           0       -8.967862    1.690218   -4.343603
     50          1           0      -11.068640    2.590463   -2.409133
     51          1           0      -11.071999    0.837260   -2.773185
     52          1           0      -11.270537    1.954826   -4.093113
     53          1           0       -6.758109    2.375728   -3.744932
     54          1           0       -6.410855    3.657914   -2.516970
     55          1           0       -8.187153    4.729151   -4.462275
     56          1           0       -7.194078    3.633459   -5.346081
     57          1           0       -8.677141   -2.556880   -5.136242
     58          1           0       -9.033284   -4.207656   -4.798435
     59          1           0       -7.333179   -3.757545   -5.088880
     60          1           0       -8.096783   -6.124825   -4.117100
     61          1           0       -6.879996   -7.275349   -3.327039
     62          1           0       -6.416634   -5.676467   -3.968754
     63          1           0       -7.567734   -4.793629    2.997695
     64          1           0       -9.031187   -2.812668    4.671638
     65          1           0       -9.503913   -5.881247    3.414451
     66          1           0      -10.328197   -4.682760    2.359502
     67          1           0      -10.258960   -4.419730    4.024734
     68          1           0       -7.066451   -4.171560    5.484988
     69          1           0       -6.997307   -2.457989    5.880892
     70          1           0       -5.541211   -4.081274    3.933735
     71          1           0       -4.870332   -2.853646    5.060475
     72          1           0       -5.704871   -2.384024    3.512021
     73          1           0       -7.467469    3.278810    5.166465
     74          1           0       -7.991540    1.615546    5.611401
     75          1           0       -9.218831    2.787385    4.974131
     76          1           0       -9.110044    4.677518    0.221760
     77          1           0       -6.938596    8.094146   -1.271884
     78          1           0       -6.673301    6.841069   -2.628036
     79          1           0       -5.646079    7.022007   -1.193530
     80         12           0        8.020949   -0.832416   -0.049268
     81          6           0        7.849029    2.708411    0.509366
     82          6           0        7.100178   -0.217300   -3.275474
     83          6           0        7.724769   -3.965001   -0.457410
     84          6           0        7.802036   -1.247634    3.404044
     85          7           0        7.562801    1.045183   -1.124894
     86          6           0        7.590576    2.335260   -0.826071
     87          6           0        7.405813    3.281414   -2.042710
     88          6           0        6.624074    2.271447   -3.016227
     89          6           0        7.150244    0.946732   -2.467626
     90          6           0        5.116317    2.300879   -2.828758
     91          6           0        8.774926    3.732427   -2.662501
     92          6           0        8.680523    4.894986   -3.653113
     93          1           0        9.768835    5.867963   -3.690175
     94          7           0        7.972115   -1.911692   -1.714007
     95          6           0        7.594024   -1.497495   -2.941505
     96          6           0        7.717038   -2.672438   -3.818179
     97          6           0        8.040773   -3.855097   -2.974849
     98          6           0        7.901563   -3.281227   -1.651451
     99          6           0        7.609643   -2.587122   -5.313043
    100          6           0        8.401793   -5.271820   -3.304665
    101          8           0        8.409275   -6.190343   -2.410751
    102          6           0        8.655338   -5.570872   -4.721623
    103          7           0        7.583639   -2.389404    1.257210
    104          6           0        7.568229   -3.664920    0.832073
    105          6           0        7.504124   -4.626630    1.994573
    106          6           0        7.724582   -3.734127    3.303163
    107          6           0        7.791953   -2.337027    2.648210
    108          6           0        6.203901   -5.418413    2.131993
    109          6           0        8.872909   -4.158441    4.259194
    110          6           0       10.209585   -3.951473    3.584034
    111          7           0        8.040726    0.465698    1.677743
    112          6           0        7.910432    0.086144    3.031643
    113          6           0        7.867206    1.328477    3.829856
    114          6           0        7.952863    2.353249    2.875391
    115          6           0        8.022774    1.789742    1.572679
    116          6           0        7.713641    1.404449    5.242924
    117          6           0        7.989343    3.783764    2.672917
    118          8           0        8.049521    4.764636    3.413201
    119          6           0        7.796304    4.079891    1.123264
    120          6           0        8.844514    5.074876    0.706398
    121          8           0       10.050024    4.770210    0.729918
    122          8           0        8.242971    6.139816    0.145667
    123          6           0        9.242153    7.149783   -0.294137
    124          1           0        6.597644   -0.157330   -4.241264
    125          1           0        7.727639   -5.054827   -0.533274
    126          1           0        7.833506   -1.294110    4.494698
    127          1           0        6.797571    4.156820   -1.849125
    128          1           0        6.929753    2.404034   -4.050793
    129          1           0        4.826864    2.912050   -1.986839
    130          1           0        4.819550    1.272472   -2.669517
    131          1           0        4.627355    2.615665   -3.755129
    132          1           0        9.141728    2.944097   -3.332366
    133          1           0        9.481909    3.970884   -1.891820
    134          1           0        7.710925    5.404788   -3.599172
    135          1           0        8.714408    4.490148   -4.667493
    136          1           0        7.203825   -1.619342   -5.632599
    137          1           0        6.851126   -3.314820   -5.621179
    138          1           0        8.549721   -2.821670   -5.816942
    139          1           0        7.773440   -5.321289   -5.306804
    140          1           0        8.985203   -6.611284   -4.746227
    141          1           0        9.463086   -4.921449   -5.077149
    142          1           0        8.297346   -5.361533    1.932699
    143          1           0        6.835908   -3.734822    3.951308
    144          1           0        6.357917   -6.514018    2.131535
    145          1           0        5.540465   -5.127339    1.328459
    146          1           0        5.612478   -5.185334    3.015797
    147          1           0        8.801839   -5.224944    4.486505
    148          1           0        8.866517   -3.626511    5.204712
    149          1           0       10.325483   -4.858300    2.982937
    150          1           0       11.002895   -3.864152    4.323681
    151          1           0       10.174281   -3.100680    2.893704
    152          1           0        8.415614    2.149655    5.592770
    153          1           0        7.888992    0.439662    5.714338
    154          1           0        6.665803    1.709266    5.309138
    155          1           0        6.786191    4.468187    0.987280
    156          1           0        8.972403    8.095878    0.185260
    157          1           0        9.227023    7.123116   -1.399949
    158          1           0       10.263852    7.024656    0.044892
 ---------------------------------------------------------------------

 SCF Done:  E(RCAM-B3LYP) =  -4069.81168812     A.U. after   19 cycles

 Excitation energies and oscillator strengths:

 Excited State   1:      Singlet-A      1.6699 eV  742.45 nm  f=0.0208  <S**2>=0.000
     309 -> 315       -0.10364
     310 -> 316        0.13782
     311 -> 313       -0.41097
     312 -> 314        0.54972
 This state for optimization and/or second-order correction.
 Total Energy, E(TD-HF/TD-DFT) =  -4069.75031930
 Copying the excited state density for this state as the 1-particle RhoCI density.

 Excited State   2:      Singlet-A      1.6851 eV  735.76 nm  f=0.7360  <S**2>=0.000
     309 -> 315        0.14175
     310 -> 316        0.10530
     311 -> 313        0.54889
     312 -> 314        0.41044

 Excited State   3:      Singlet-A      2.1853 eV  567.36 nm  f=0.0583  <S**2>=0.000
     309 -> 313       -0.13879
     310 -> 314        0.62762
     312 -> 316       -0.26607

 Excited State   4:      Singlet-A      2.1930 eV  565.37 nm  f=0.1349  <S**2>=0.000
     309 -> 313        0.62557
     310 -> 314        0.13770
     311 -> 315       -0.27209

 Excited State   5:      Singlet-A      2.7647 eV  448.45 nm  f=0.0000  <S**2>=0.000
     312 -> 313        0.70710

 The electronic state is 1-A.
 Alpha  occ. eigenvalues --  -46.87835 -46.87587 -19.26326 -19.26265 -19.19080
 Alpha  occ. eigenvalues --  -19.19062 -19.18852 -19.18659 -19.18200 -19.17966
 Alpha  occ. eigenvalues --  -14.42490 -14.42423 -14.41486 -14.41286 -14.39441
 Alpha  occ. eigenvalues --  -14.39281 -14.38624 -14.38524 -10.39121 -10.39008
 Alpha  occ. eigenvalues --  -10.35486 -10.35338 -10.34421 -10.34142 -10.31724
 Alpha  occ. eigenvalues --  -10.31676 -10.31445 -10.31230 -10.30952 -10.30951
 Alpha  occ. eigenvalues --  -10.30607 -10.30543 -10.30324 -10.30285 -10.30244
 Alpha  occ. eigenvalues --  -10.30074 -10.29954 -10.29820 -10.29667 -10.29367
 Alpha  occ. eigenvalues --  -10.29330 -10.29292 -10.28801 -10.28640 -10.28613
 Alpha  occ. eigenvalues --  -10.28592 -10.28403 -10.28330 -10.28164 -10.28058
 Alpha  occ. eigenvalues --  -10.27927 -10.27828 -10.27767 -10.27622 -10.27597
 Alpha  occ. eigenvalues --  -10.27531 -10.27529 -10.27479 -10.27452 -10.27443
 Alpha  occ. eigenvalues --  -10.27421 -10.27408 -10.27398 -10.27309 -10.27195
 Alpha  occ. eigenvalues --  -10.26961 -10.26771 -10.26625 -10.26451 -10.26377
 Alpha  occ. eigenvalues --  -10.26277 -10.26211 -10.26080 -10.26055 -10.25923
 Alpha  occ. eigenvalues --  -10.25863 -10.25863 -10.25765 -10.25461 -10.25328
 Alpha  occ. eigenvalues --  -10.24867 -10.24824 -10.24796 -10.24717 -10.24677
 Alpha  occ. eigenvalues --  -10.24618  -3.16578  -3.16337  -1.91460  -1.91219
 Alpha  occ. eigenvalues --   -1.91046  -1.90888  -1.90808  -1.90645  -1.16675
 Alpha  occ. eigenvalues --   -1.16559  -1.08658  -1.08571  -1.07253  -1.06913
 Alpha  occ. eigenvalues --   -1.06863  -1.06684  -1.04621  -1.04420  -1.03798
 Alpha  occ. eigenvalues --   -1.03590  -1.03271  -1.02966  -1.02448  -1.02038
 Alpha  occ. eigenvalues --   -0.92010  -0.91908  -0.89553  -0.89425  -0.89237
 Alpha  occ. eigenvalues --   -0.89072  -0.88320  -0.88152  -0.87902  -0.87715
 Alpha  occ. eigenvalues --   -0.87715  -0.87611  -0.87314  -0.87061  -0.85029
 Alpha  occ. eigenvalues --   -0.84926  -0.83968  -0.83809  -0.83006  -0.82877
 Alpha  occ. eigenvalues --   -0.82692  -0.82582  -0.81626  -0.81519  -0.80636
 Alpha  occ. eigenvalues --   -0.80369  -0.78835  -0.78569  -0.77258  -0.77073
 Alpha  occ. eigenvalues --   -0.76978  -0.76824  -0.75965  -0.75760  -0.74932
 Alpha  occ. eigenvalues --   -0.74732  -0.72810  -0.72625  -0.71710  -0.71505
 Alpha  occ. eigenvalues --   -0.69939  -0.69694  -0.68918  -0.68755  -0.67679
 Alpha  occ. eigenvalues --   -0.67530  -0.67271  -0.67135  -0.65332  -0.65196
 Alpha  occ. eigenvalues --   -0.64892  -0.64697  -0.64661  -0.64579  -0.64304
 Alpha  occ. eigenvalues --   -0.64135  -0.62337  -0.62201  -0.60480  -0.60276
 Alpha  occ. eigenvalues --   -0.59849  -0.59719  -0.59024  -0.58919  -0.58541
 Alpha  occ. eigenvalues --   -0.58351  -0.57621  -0.57471  -0.57344  -0.57167
 Alpha  occ. eigenvalues --   -0.56347  -0.56133  -0.56022  -0.55811  -0.55559
 Alpha  occ. eigenvalues --   -0.55384  -0.55373  -0.55175  -0.54559  -0.54415
 Alpha  occ. eigenvalues --   -0.53944  -0.53836  -0.53336  -0.53265  -0.53159
 Alpha  occ. eigenvalues --   -0.53071  -0.52954  -0.52829  -0.52800  -0.52609
 Alpha  occ. eigenvalues --   -0.52470  -0.52339  -0.51942  -0.51803  -0.51664
 Alpha  occ. eigenvalues --   -0.51589  -0.51232  -0.51126  -0.50615  -0.50423
 Alpha  occ. eigenvalues --   -0.50066  -0.49959  -0.49910  -0.49802  -0.49557
 Alpha  occ. eigenvalues --   -0.49421  -0.49252  -0.49139  -0.49128  -0.49024
 Alpha  occ. eigenvalues --   -0.48631  -0.48495  -0.48482  -0.48481  -0.48306
 Alpha  occ. eigenvalues --   -0.48276  -0.47735  -0.47526  -0.47335  -0.47052
 Alpha  occ. eigenvalues --   -0.46835  -0.46638  -0.46603  -0.46481  -0.46396
 Alpha  occ. eigenvalues --   -0.46201  -0.46197  -0.46011  -0.45857  -0.45742
 Alpha  occ. eigenvalues --   -0.45234  -0.45139  -0.44613  -0.44549  -0.44438
 Alpha  occ. eigenvalues --   -0.44404  -0.44181  -0.44133  -0.44057  -0.44051
 Alpha  occ. eigenvalues --   -0.44013  -0.43872  -0.43532  -0.43477  -0.43427
 Alpha  occ. eigenvalues --   -0.43311  -0.43064  -0.42854  -0.42822  -0.42737
 Alpha  occ. eigenvalues --   -0.42690  -0.42489  -0.42047  -0.41896  -0.41741
 Alpha  occ. eigenvalues --   -0.41591  -0.41581  -0.41388  -0.41180  -0.40914
 Alpha  occ. eigenvalues --   -0.40913  -0.40865  -0.40662  -0.40631  -0.40606
 Alpha  occ. eigenvalues --   -0.40423  -0.40292  -0.40160  -0.39473  -0.39363
 Alpha  occ. eigenvalues --   -0.38505  -0.38282  -0.37803  -0.37585  -0.37356
 Alpha  occ. eigenvalues --   -0.37310  -0.37196  -0.37126  -0.36752  -0.36692
 Alpha  occ. eigenvalues --   -0.36231  -0.36144  -0.34324  -0.34179  -0.33811
 Alpha  occ. eigenvalues --   -0.33782  -0.33224  -0.33102  -0.31382  -0.31218
 Alpha  occ. eigenvalues --   -0.31074  -0.30899  -0.30060  -0.29869  -0.29487
 Alpha  occ. eigenvalues --   -0.29356  -0.29259  -0.29135  -0.24118  -0.23961
 Alpha  occ. eigenvalues --   -0.21165  -0.21044
 Alpha virt. eigenvalues --   -0.08811  -0.08720  -0.01787  -0.01612  -0.00097
 Alpha virt. eigenvalues --    0.00038   0.02167   0.02286   0.03075   0.03293
 Alpha virt. eigenvalues --    0.04672   0.04804   0.05058   0.05247   0.06117

 Mulliken charges:
               1
     1  Mg   0.838582
     2  C   -0.003043
     3  C   -0.094310
     4  C   -0.045839
     5  C   -0.063881
     6  N   -0.256755
     7  C   -0.052526
     8  C   -0.013984
     9  C   -0.086961
    10  C    0.046228
    11  C    0.104804
    12  C    0.053550
    13  C   -0.071633
    14  H    0.035660
    15  N   -0.433140
    16  C    0.168357
    17  C   -0.177278
    18  C   -0.004008
    19  C    0.148660
    20  C    0.110208
    21  C    0.012262
    22  O   -0.249514
    23  C    0.062505
    24  N   -0.341140
    25  C    0.041232
    26  C   -0.028186
    27  C   -0.024017
    28  C    0.074856
    29  C    0.076149
    30  C    0.035110
    31  C   -0.004515
    32  N   -0.310497
    33  C    0.080431
    34  C   -0.169557
    35  C    0.008462
    36  C    0.083009
    37  C    0.127272
    38  C    0.046212
    39  O   -0.188157
    40  C   -0.005388
    41  C    0.212945
    42  O   -0.257196
    43  O   -0.304754
    44  C    0.157666
    45  H   -0.017664
    46  H   -0.016768
    47  H   -0.041325
    48  H    0.001017
    49  H   -0.004232
    50  H    0.025553
    51  H    0.016536
    52  H    0.016631
    53  H    0.010927
    54  H    0.044037
    55  H    0.018080
    56  H    0.017756
    57  H    0.005755
    58  H    0.026889
    59  H    0.039257
    60  H    0.037351
    61  H    0.035761
    62  H    0.031268
    63  H    0.016575
    64  H    0.009567
    65  H    0.023275
    66  H    0.012551
    67  H    0.004829
    68  H    0.006432
    69  H    0.004855
    70  H    0.008759
    71  H    0.018173
    72  H    0.028912
    73  H    0.047832
    74  H    0.009217
    75  H    0.046098
    76  H    0.035219
    77  H    0.043149
    78  H    0.046180
    79  H    0.053664
    80  Mg   0.837989
    81  C   -0.016753
    82  C   -0.087810
    83  C   -0.045578
    84  C   -0.064781
    85  N   -0.254592
    86  C   -0.049578
    87  C   -0.015139
    88  C   -0.090568
    89  C    0.045838
    90  C    0.114369
    91  C    0.062556
    92  C   -0.077776
    93  H    0.034680
    94  N   -0.423473
    95  C    0.162881
    96  C   -0.174782
    97  C   -0.007958
    98  C    0.152107
    99  C    0.099475
   100  C    0.015462
   101  O   -0.253298
   102  C    0.061249
   103  N   -0.350024
   104  C    0.037575
   105  C   -0.019869
   106  C   -0.034801
   107  C    0.088960
   108  C    0.073651
   109  C    0.034754
   110  C   -0.007643
   111  N   -0.324181
   112  C    0.078570
   113  C   -0.162986
   114  C    0.002475
   115  C    0.096217
   116  C    0.131429
   117  C    0.042628
   118  O   -0.187551
   119  C    0.000798
   120  C    0.211227
   121  O   -0.251241
   122  O   -0.305414
   123  C    0.152082
   124  H   -0.019910
   125  H   -0.015704
   126  H   -0.040447
   127  H   -0.000283
   128  H   -0.004670
   129  H    0.023300
   130  H    0.014516
   131  H    0.016035
   132  H    0.013738
   133  H    0.037642
   134  H    0.020952
   135  H    0.019344
   136  H    0.008576
   137  H    0.025788
   138  H    0.039544
   139  H    0.038049
   140  H    0.036196
   141  H    0.033808
   142  H    0.014240
   143  H    0.012526
   144  H    0.024977
   145  H    0.011801
   146  H    0.005757
   147  H    0.006150
   148  H    0.003637
   149  H    0.010845
   150  H    0.017815
   151  H    0.030141
   152  H    0.045957
   153  H    0.008358
   154  H    0.047540
   155  H    0.035777
   156  H    0.044051
   157  H    0.049356
   158  H    0.053418
 Sum of Mulliken charges =  -0.00000

 Dipole moment (field-independent basis, Debye):
    X=             -4.1792    Y=             -2.3326    Z=             -7.5355  Tot=              8.9269
 Quadrupole moment (field-independent basis, Debye-Ang):
   XX=           -517.4770   YY=           -550.7967   ZZ=           -448.2948
   XY=              0.5774   XZ=             -0.6023   YZ=            -47.7897

 Normal termination of Gaussian 16 at Sat Sep 11 19:08:13 2021.
