 Gaussian 16, Revision A.03,
 Gaussian 16:  ES64L-G16RevA.03 25-Dec-2016

 -----------------------------------
 #p cam-b3lyp/Def2SVP td=(nstates=5)
 -----------------------------------

 --------------------------------
 TDDFT excited states in gaussian
 --------------------------------
 Symbolic Z-matrix:
 Charge =  0 Multiplicity = 1

                         Standard orientation:
 ---------------------------------------------------------------------
 Center     Atomic      Atomic             Coordinates (Angstroms)
 Number     Number       Type             X           Y           Z
 ---------------------------------------------------------------------
      1         12           0        4.702990    0.330447    0.905545
      2          6           0        5.106913   -2.696130   -0.962313
      3          6           0        6.080087    1.976147   -1.747442
      4          6           0        4.776431    2.942053    2.702971
      5          6           0        4.432866   -1.643985    3.764620
      6          7           0        5.456447   -0.379829   -1.051099
      7          6           0        5.499318   -1.556566   -1.668045
      8          6           0        5.929504   -1.455542   -3.162070
      9          6           0        6.730898   -0.078588   -3.100716
     10          6           0        6.024770    0.560941   -1.918215
     11          6           0        8.207558   -0.247809   -2.758167
     12          6           0        4.701715   -1.361218   -4.129214
     13          6           0        5.017884   -1.587461   -5.610499
     14          1           0        4.038338   -2.274491   -6.438646
     15          7           0        4.872521    2.231752    0.396479
     16          6           0        5.447377    2.720746   -0.728560
     17          6           0        5.323100    4.191798   -0.643461
     18          6           0        4.799523    4.526666    0.709988
     19          6           0        4.820246    3.231905    1.341291
     20          6           0        5.636800    5.111370   -1.783518
     21          6           0        4.361481    5.811646    1.338541
     22          8           0        4.160850    5.919767    2.596568
     23          6           0        4.257520    6.978644    0.443918
     24          7           0        4.837087    0.632390    2.966730
     25          6           0        4.789613    1.863080    3.488393
     26          6           0        4.617868    1.818523    4.977842
     27          6           0        4.312543    0.294136    5.342221
     28          6           0        4.450819   -0.319066    3.926900
     29          6           0        5.813705    2.311166    5.804453
     30          6           0        3.019469    0.008801    6.146562
     31          6           0        1.807530    0.316023    5.295729
     32          7           0        4.578656   -1.793145    1.336759
     33          6           0        4.494150   -2.393142    2.601486
     34          6           0        4.542455   -3.851816    2.391712
     35          6           0        4.669216   -3.999648    1.011885
     36          6           0        4.724662   -2.714357    0.400948
     37          6           0        4.529192   -4.841623    3.413739
     38          6           0        4.795497   -4.944149   -0.086217
     39          8           0        4.719432   -6.169336   -0.189291
     40          6           0        5.206367   -4.137429   -1.396261
     41          6           0        4.310864   -4.598729   -2.513662
     42          8           0        3.087217   -4.354368   -2.495210
     43          8           0        5.063459   -5.041254   -3.532640
     44          6           0        4.236881   -5.486636   -4.686138
     45          1           0        6.711253    2.564265   -2.416537
     46          1           0        4.688925    3.815733    3.352174
     47          1           0        4.268805   -2.324288    4.602310
     48          1           0        6.588726   -2.255205   -3.500286
     49          1           0        6.581989    0.519334   -3.999626
     50          1           0        8.437794   -1.277627   -2.485426
     51          1           0        8.389016    0.418983   -1.914985
     52          1           0        8.837729    0.117008   -3.569691
     53          1           0        4.354193   -0.328897   -4.169250
     54          1           0        3.913239   -2.048186   -3.819848
     55          1           0        6.006734   -2.026961   -5.744381
     56          1           0        5.085553   -0.614721   -6.097734
     57          1           0        6.155877    4.590426   -2.587086
     58          1           0        6.362593    5.836977   -1.416875
     59          1           0        4.750169    5.630307   -2.148103
     60          1           0        5.227638    7.166612   -0.016613
     61          1           0        3.845615    7.785586    1.048922
     62          1           0        3.572826    6.739481   -0.370296
     63          1           0        3.778072    2.436303    5.293305
     64          1           0        5.104712   -0.148518    5.946539
     65          1           0        5.568286    3.124435    6.487876
     66          1           0        6.602698    2.605923    5.113150
     67          1           0        6.314503    1.539544    6.388592
     68          1           0        2.967968    0.653931    7.022976
     69          1           0        2.944896   -1.023205    6.489566
     70          1           0        1.685258    1.390777    5.425288
     71          1           0        0.935578   -0.223645    5.666768
     72          1           0        2.006815    0.135766    4.239188
     73          1           0        3.849270   -5.622505    3.073299
     74          1           0        4.206056   -4.422736    4.366483
     75          1           0        5.578126   -5.137468    3.421949
     76          1           0        6.253797   -4.366591   -1.589905
     77          1           0        4.520810   -6.515832   -4.906081
     78          1           0        4.376275   -4.744295   -5.472206
     79          1           0        3.169151   -5.603568   -4.497408
     80         12           0       -4.175756    0.646278   -0.533203
     81          6           0       -6.914014   -1.536451    0.252054
     82          6           0       -6.490057    2.952246   -1.513563
     83          6           0       -1.792198    2.415977   -1.653147
     84          6           0       -2.125181   -2.171247   -0.582015
     85          7           0       -6.386622    0.597440   -0.577051
     86          6           0       -7.319639   -0.262177   -0.196421
     87          6           0       -8.765254    0.302499   -0.226549
     88          6           0       -8.547235    1.463620   -1.314271
     89          6           0       -7.056078    1.718501   -1.104178
     90          6           0       -8.754755    0.994798   -2.744823
     91          6           0       -9.206573    0.889777    1.159938
     92          6           0      -10.704289    1.175651    1.289907
     93          1           0      -11.344048    0.960974    2.584939
     94          7           0       -4.112879    2.577424   -0.986308
     95          6           0       -5.150573    3.364485   -1.339889
     96          6           0       -4.578210    4.696284   -1.590653
     97          6           0       -3.095595    4.591263   -1.516269
     98          6           0       -2.938537    3.155301   -1.400409
     99          6           0       -5.423337    5.921058   -1.788504
    100          6           0       -1.999848    5.612962   -1.557185
    101          8           0       -0.772787    5.278339   -1.715867
    102          6           0       -2.414978    7.022163   -1.499724
    103          7           0       -2.283707    0.171031   -1.251988
    104          6           0       -1.424349    1.134847   -1.626789
    105          6           0       -0.038647    0.575599   -1.844639
    106          6           0       -0.091829   -0.927735   -1.301740
    107          6           0       -1.588589   -1.009636   -0.929692
    108          6           0        0.459821    0.577261   -3.289603
    109          6           0        0.959151   -1.326478   -0.229771
    110          6           0        0.689932   -0.582878    1.058621
    111          7           0       -4.397251   -1.447221   -0.047178
    112          6           0       -3.418553   -2.458369   -0.164711
    113          6           0       -4.072658   -3.738898    0.174113
    114          6           0       -5.402783   -3.384119    0.445067
    115          6           0       -5.570906   -1.984329    0.266696
    116          6           0       -3.452835   -5.020143    0.155510
    117          6           0       -6.705373   -3.877005    0.831094
    118          8           0       -7.149009   -4.964338    1.198018
    119          6           0       -7.771756   -2.721140    0.600494
    120          6           0       -8.628857   -2.627279    1.832998
    121          8           0       -8.138305   -2.269121    2.918217
    122          8           0       -9.920770   -2.763985    1.482766
    123          6           0      -10.811094   -2.667002    2.670088
    124          1           0       -7.119768    3.656880   -2.057471
    125          1           0       -0.910177    2.995403   -1.935593
    126          1           0       -1.530506   -3.081407   -0.478798
    127          1           0       -9.518282   -0.395057   -0.573157
    128          1           0       -9.124348    2.350630   -1.066230
    129          1           0       -8.899436   -0.073835   -2.801607
    130          1           0       -7.861145    1.284673   -3.281938
    131          1           0       -9.577159    1.548079   -3.207288
    132          1           0       -8.811460    1.908974    1.259218
    133          1           0       -8.889451    0.252170    1.962126
    134          1           0      -11.285570    0.700119    0.490578
    135          1           0      -10.867638    2.245621    1.139923
    136          1           0       -6.475718    5.660795   -1.956316
    137          1           0       -5.103925    6.381311   -2.729778
    138          1           0       -5.306541    6.648168   -0.982064
    139          1           0       -3.082634    7.236128   -2.330938
    140          1           0       -1.488710    7.597897   -1.450463
    141          1           0       -2.993747    7.179275   -0.582684
    142          1           0        0.696181    1.129666   -1.273550
    143          1           0        0.072047   -1.658052   -2.107728
    144          1           0        1.412507    1.123993   -3.422038
    145          1           0       -0.312744    1.002059   -3.916684
    146          1           0        0.599826   -0.408033   -3.730954
    147          1           0        1.960713   -1.033248   -0.553905
    148          1           0        0.985591   -2.391749   -0.026076
    149          1           0        1.173589    0.384136    0.891125
    150          1           0        1.134817   -1.105748    1.902844
    151          1           0       -0.382485   -0.396880    1.188974
    152          1           0       -3.776400   -5.535551    1.050030
    153          1           0       -2.368815   -4.936819    0.113848
    154          1           0       -3.869321   -5.424857   -0.770781
    155          1           0       -8.353659   -2.983919   -0.283766
    156          1           0      -11.417512   -3.577797    2.689939
    157          1           0      -11.348674   -1.706161    2.562686
    158          1           0      -10.346834   -2.700657    3.648751
 ---------------------------------------------------------------------

 SCF Done:  E(RCAM-B3LYP) =  -4069.81543759     A.U. after   19 cycles

 Excitation energies and oscillator strengths:

 Excited State   1:      Singlet-A      1.6404 eV  755.80 nm  f=0.0026  <S**2>=0.000
     309 -> 315       -0.11295
     310 -> 316        0.11941
     311 -> 313       -0.47008
     312 -> 314        0.50192
 This state for optimization and/or second-order correction.
 Total Energy, E(TD-HF/TD-DFT) =  -4069.75515301
 Copying the excited state density for this state as the 1-particle RhoCI density.

 Excited State   2:      Singlet-A      1.7041 eV  727.55 nm  f=0.6860  <S**2>=0.000
     309 -> 315        0.13300
     310 -> 316        0.12296
     311 -> 313        0.49953
     312 -> 314        0.46767

 Excited State   3:      Singlet-A      2.1817 eV  568.28 nm  f=0.1059  <S**2>=0.000
     310 -> 314        0.63806
     312 -> 316       -0.26705

 Excited State   4:      Singlet-A      2.1985 eV  563.95 nm  f=0.0947  <S**2>=0.000
     309 -> 313        0.63414
     311 -> 315       -0.27757

 Excited State   5:      Singlet-A      2.3492 eV  527.77 nm  f=0.0002  <S**2>=0.000
     312 -> 313        0.70511

 The electronic state is 1-A.
 Alpha  occ. eigenvalues --  -46.87886 -46.87399 -19.26533 -19.26184 -19.19367
 Alpha  occ. eigenvalues --  -19.18984 -19.18660 -19.18594 -19.18249 -19.17828
 Alpha  occ. eigenvalues --  -14.42528 -14.42245 -14.41466 -14.41067 -14.39432
 Alpha  occ. eigenvalues --  -14.39104 -14.38663 -14.38332 -10.39372 -10.38909
 Alpha  occ. eigenvalues --  -10.35282 -10.35277 -10.34484 -10.34004 -10.31890
 Alpha  occ. eigenvalues --  -10.31613 -10.31506 -10.31049 -10.30966 -10.30813
 Alpha  occ. eigenvalues --  -10.30641 -10.30539 -10.30170 -10.30126 -10.30084
 Alpha  occ. eigenvalues --  -10.29955 -10.29812 -10.29638 -10.29584 -10.29251
 Alpha  occ. eigenvalues --  -10.29176 -10.29143 -10.28862 -10.28687 -10.28532
 Alpha  occ. eigenvalues --  -10.28514 -10.28412 -10.28204 -10.28176 -10.27942
 Alpha  occ. eigenvalues --  -10.27810 -10.27765 -10.27747 -10.27561 -10.27478
 Alpha  occ. eigenvalues --  -10.27436 -10.27417 -10.27402 -10.27318 -10.27295
 Alpha  occ. eigenvalues --  -10.27293 -10.27236 -10.27228 -10.27024 -10.26936
 Alpha  occ. eigenvalues --  -10.26899 -10.26838 -10.26527 -10.26351 -10.26297
 Alpha  occ. eigenvalues --  -10.26073 -10.26065 -10.26039 -10.25865 -10.25846
 Alpha  occ. eigenvalues --  -10.25559 -10.25476 -10.25427 -10.25390 -10.25097
 Alpha  occ. eigenvalues --  -10.24880 -10.24806 -10.24622 -10.24537 -10.24518
 Alpha  occ. eigenvalues --  -10.24432  -3.16588  -3.16149  -1.91473  -1.91057
 Alpha  occ. eigenvalues --   -1.91032  -1.90899  -1.90620  -1.90457  -1.16889
 Alpha  occ. eigenvalues --   -1.16474  -1.08728  -1.08437  -1.07052  -1.06944
 Alpha  occ. eigenvalues --   -1.06854  -1.06768  -1.04647  -1.04251  -1.03785
 Alpha  occ. eigenvalues --   -1.03399  -1.03266  -1.02755  -1.02446  -1.01841
 Alpha  occ. eigenvalues --   -0.92050  -0.91739  -0.89501  -0.89284  -0.89139
 Alpha  occ. eigenvalues --   -0.88934  -0.88261  -0.87910  -0.87855  -0.87719
 Alpha  occ. eigenvalues --   -0.87493  -0.87414  -0.87178  -0.86924  -0.85048
 Alpha  occ. eigenvalues --   -0.84783  -0.83908  -0.83551  -0.82853  -0.82752
 Alpha  occ. eigenvalues --   -0.82628  -0.82440  -0.81690  -0.81367  -0.80635
 Alpha  occ. eigenvalues --   -0.80215  -0.78756  -0.78397  -0.77231  -0.77003
 Alpha  occ. eigenvalues --   -0.76901  -0.76651  -0.75992  -0.75616  -0.74891
 Alpha  occ. eigenvalues --   -0.74518  -0.72797  -0.72413  -0.71712  -0.71323
 Alpha  occ. eigenvalues --   -0.69841  -0.69351  -0.68915  -0.68606  -0.67669
 Alpha  occ. eigenvalues --   -0.67355  -0.67249  -0.67020  -0.65376  -0.65055
 Alpha  occ. eigenvalues --   -0.64922  -0.64665  -0.64495  -0.64402  -0.64253
 Alpha  occ. eigenvalues --   -0.63845  -0.62422  -0.62030  -0.60382  -0.60104
 Alpha  occ. eigenvalues --   -0.59882  -0.59573  -0.59029  -0.58717  -0.58546
 Alpha  occ. eigenvalues --   -0.58158  -0.57724  -0.57327  -0.57303  -0.56949
 Alpha  occ. eigenvalues --   -0.56345  -0.56107  -0.55940  -0.55678  -0.55485
 Alpha  occ. eigenvalues --   -0.55380  -0.55256  -0.54951  -0.54593  -0.54199
 Alpha  occ. eigenvalues --   -0.53989  -0.53709  -0.53317  -0.53206  -0.53013
 Alpha  occ. eigenvalues --   -0.52994  -0.52898  -0.52675  -0.52644  -0.52511
 Alpha  occ. eigenvalues --   -0.52360  -0.52068  -0.51957  -0.51646  -0.51555
 Alpha  occ. eigenvalues --   -0.51466  -0.51243  -0.50952  -0.50394  -0.50305
 Alpha  occ. eigenvalues --   -0.49979  -0.49884  -0.49775  -0.49588  -0.49497
 Alpha  occ. eigenvalues --   -0.49305  -0.49233  -0.49149  -0.48991  -0.48872
 Alpha  occ. eigenvalues --   -0.48668  -0.48476  -0.48354  -0.48339  -0.48182
 Alpha  occ. eigenvalues --   -0.48083  -0.47692  -0.47355  -0.47281  -0.46877
 Alpha  occ. eigenvalues --   -0.46823  -0.46633  -0.46429  -0.46389  -0.46319
 Alpha  occ. eigenvalues --   -0.46194  -0.45989  -0.45908  -0.45788  -0.45552
 Alpha  occ. eigenvalues --   -0.45179  -0.44949  -0.44650  -0.44482  -0.44321
 Alpha  occ. eigenvalues --   -0.44205  -0.44171  -0.44092  -0.43974  -0.43928
 Alpha  occ. eigenvalues --   -0.43812  -0.43743  -0.43578  -0.43436  -0.43311
 Alpha  occ. eigenvalues --   -0.43147  -0.43055  -0.42876  -0.42726  -0.42639
 Alpha  occ. eigenvalues --   -0.42610  -0.42256  -0.42021  -0.41754  -0.41700
 Alpha  occ. eigenvalues --   -0.41569  -0.41422  -0.41227  -0.41177  -0.40905
 Alpha  occ. eigenvalues --   -0.40773  -0.40709  -0.40579  -0.40544  -0.40459
 Alpha  occ. eigenvalues --   -0.40297  -0.40096  -0.40058  -0.39366  -0.39058
 Alpha  occ. eigenvalues --   -0.38460  -0.38016  -0.37847  -0.37451  -0.37341
 Alpha  occ. eigenvalues --   -0.37315  -0.36984  -0.36923  -0.36893  -0.36552
 Alpha  occ. eigenvalues --   -0.36263  -0.35902  -0.34338  -0.34047  -0.33983
 Alpha  occ. eigenvalues --   -0.33669  -0.33234  -0.32905  -0.31222  -0.31154
 Alpha  occ. eigenvalues --   -0.31051  -0.30716  -0.30121  -0.29730  -0.29451
 Alpha  occ. eigenvalues --   -0.29339  -0.29103  -0.28953  -0.24138  -0.23766
 Alpha  occ. eigenvalues --   -0.21156  -0.20849
 Alpha virt. eigenvalues --   -0.08785  -0.08541  -0.01774  -0.01435  -0.00015
 Alpha virt. eigenvalues --    0.00159   0.02151   0.02426   0.02996   0.03689
 Alpha virt. eigenvalues --    0.04627   0.04800   0.04964   0.05355   0.05965

 Mulliken charges:
               1
     1  Mg   0.807901
     2  C   -0.004306
     3  C   -0.092151
     4  C   -0.042967
     5  C   -0.064148
     6  N   -0.256340
     7  C   -0.057113
     8  C   -0.012660
     9  C   -0.087322
    10  C    0.046047
    11  C    0.104755
    12  C    0.049668
    13  C   -0.071750
    14  H    0.035598
    15  N   -0.431466
    16  C    0.168453
    17  C   -0.174132
    18  C   -0.000814
    19  C    0.148353
    20  C    0.109346
    21  C    0.016545
    22  O   -0.249619
    23  C    0.058996
    24  N   -0.336594
    25  C    0.040614
    26  C   -0.028618
    27  C   -0.023695
    28  C    0.074506
    29  C    0.076255
    30  C    0.034899
    31  C   -0.006835
    32  N   -0.308647
    33  C    0.078142
    34  C   -0.172284
    35  C    0.006824
    36  C    0.077319
    37  C    0.127608
    38  C    0.043948
    39  O   -0.188875
    40  C   -0.004854
    41  C    0.214499
    42  O   -0.261912
    43  O   -0.303642
    44  C    0.157366
    45  H   -0.017451
    46  H   -0.016551
    47  H   -0.042263
    48  H    0.000955
    49  H   -0.003516
    50  H    0.025685
    51  H    0.017139
    52  H    0.017053
    53  H    0.012592
    54  H    0.042100
    55  H    0.018567
    56  H    0.018880
    57  H    0.005136
    58  H    0.026523
    59  H    0.045736
    60  H    0.035428
    61  H    0.035001
    62  H    0.041378
    63  H    0.017574
    64  H    0.009289
    65  H    0.023554
    66  H    0.012452
    67  H    0.004906
    68  H    0.006578
    69  H    0.004659
    70  H    0.008750
    71  H    0.019325
    72  H    0.031009
    73  H    0.046516
    74  H    0.009742
    75  H    0.046211
    76  H    0.035842
    77  H    0.044086
    78  H    0.047027
    79  H    0.052687
    80  Mg   0.837293
    81  C   -0.017594
    82  C   -0.088442
    83  C   -0.045324
    84  C   -0.065585
    85  N   -0.254660
    86  C   -0.049724
    87  C   -0.015102
    88  C   -0.090404
    89  C    0.045518
    90  C    0.114597
    91  C    0.062631
    92  C   -0.077569
    93  H    0.034305
    94  N   -0.423197
    95  C    0.162478
    96  C   -0.175406
    97  C   -0.008905
    98  C    0.152133
    99  C    0.099604
   100  C    0.015741
   101  O   -0.256747
   102  C    0.061760
   103  N   -0.349810
   104  C    0.036345
   105  C   -0.022804
   106  C   -0.038511
   107  C    0.086303
   108  C    0.072321
   109  C    0.023499
   110  C   -0.029242
   111  N   -0.324198
   112  C    0.078586
   113  C   -0.162048
   114  C    0.001895
   115  C    0.096584
   116  C    0.130589
   117  C    0.042510
   118  O   -0.188018
   119  C    0.000974
   120  C    0.211176
   121  O   -0.251291
   122  O   -0.305654
   123  C    0.152196
   124  H   -0.020717
   125  H   -0.017391
   126  H   -0.031481
   127  H   -0.000994
   128  H   -0.004899
   129  H    0.022236
   130  H    0.014283
   131  H    0.015525
   132  H    0.013895
   133  H    0.037560
   134  H    0.020590
   135  H    0.019321
   136  H    0.008378
   137  H    0.024799
   138  H    0.039073
   139  H    0.037850
   140  H    0.033441
   141  H    0.034881
   142  H    0.013959
   143  H    0.025358
   144  H    0.023381
   145  H    0.008865
   146  H    0.010555
   147  H    0.025142
   148  H    0.019625
   149  H    0.012863
   150  H    0.040820
   151  H    0.027150
   152  H    0.045304
   153  H    0.014437
   154  H    0.047048
   155  H    0.034625
   156  H    0.043626
   157  H    0.049250
   158  H    0.053335
 Sum of Mulliken charges =  -0.00000

 Dipole moment (field-independent basis, Debye):
    X=              1.0904    Y=              6.5265    Z=             -4.4586  Tot=              7.9789
 Quadrupole moment (field-independent basis, Debye-Ang):
   XX=           -452.9169   YY=           -541.2912   ZZ=           -482.0525
   XY=            -29.1749   XZ=             -1.1002   YZ=             -7.8021

 Normal termination of Gaussian 16 at Thu Sep  9 13:09:49 2021.
