 Gaussian 16, Revision A.03,
 Gaussian 16:  ES64L-G16RevA.03 25-Dec-2016

 -----------------------------------
 #p cam-b3lyp/Def2SVP td=(nstates=5)
 -----------------------------------

 --------------------------------
 TDDFT excited states in gaussian
 --------------------------------
 Symbolic Z-matrix:
 Charge =  0 Multiplicity = 1

                         Standard orientation:
 ---------------------------------------------------------------------
 Center     Atomic      Atomic             Coordinates (Angstroms)
 Number     Number       Type             X           Y           Z
 ---------------------------------------------------------------------
      1         12           0        3.699450    1.046689    0.474904
      2          6           0        3.988174   -1.841141    2.569967
      3          6           0        5.060341   -0.821910   -2.034953
      4          6           0        3.876016    3.697971   -1.256034
      5          6           0        3.441145    2.948843    3.383640
      6          7           0        4.393243   -1.054163    0.399278
      7          6           0        4.393709   -2.072581    1.253676
      8          6           0        4.794416   -3.428274    0.598768
      9          6           0        5.630931   -2.872189   -0.639380
     10          6           0        4.966225   -1.515416   -0.791883
     11          6           0        7.109874   -2.662663   -0.330628
     12          6           0        3.549070   -4.251036    0.125581
     13          6           0        3.827952   -5.715858   -0.223525
     14          1           0        2.814238   -6.713915    0.082439
     15          7           0        3.905356    1.292747   -1.474432
     16          6           0        4.468149    0.421312   -2.345725
     17          6           0        4.382334    1.062023   -3.675689
     18          6           0        3.896139    2.455908   -3.478732
     19          6           0        3.898069    2.547583   -2.041036
     20          6           0        4.694501    0.347749   -4.954796
     21          6           0        3.503653    3.537652   -4.434722
     22          8           0        3.332562    4.747826   -4.059515
     23          6           0        3.409753    3.156411   -5.855595
     24          7           0        3.884803    3.063368    0.981150
     25          6           0        3.879053    4.014292    0.040568
     26          6           0        3.737955    5.379664    0.645373
     27          6           0        3.402626    5.146845    2.189103
     28          6           0        3.495489    3.601311    2.220283
     29          6           0        4.962977    6.296216    0.521828
     30          6           0        2.120247    5.819950    2.739424
     31          6           0        0.898511    5.185094    2.113792
     32          7           0        3.531533    0.642947    2.600895
     33          6           0        3.459036    1.587139    3.635265
     34          6           0        3.466577    0.838051    4.905257
     35          6           0        3.560260   -0.497675    4.519374
     36          6           0        3.634655   -0.576330    3.099314
     37          6           0        3.450430    1.407776    6.208939
     38          6           0        3.639639   -1.875288    4.977346
     39          8           0        3.530951   -2.433459    6.070107
     40          6           0        4.042503   -2.792414    3.739442
     41          6           0        3.112252   -3.974704    3.727952
     42          8           0        1.895729   -3.829258    3.490709
     43          8           0        3.831775   -5.106839    3.761114
     44          6           0        2.970041   -6.318472    3.722210
     45          1           0        5.691573   -1.235748   -2.823766
     46          1           0        3.824088    4.632478   -1.818563
     47          1           0        3.278059    3.469988    4.328767
     48          1           0        5.426206   -4.063761    1.219592
     49          1           0        5.477863   -3.472103   -1.536261
     50          1           0        7.320172   -2.808076    0.728877
     51          1           0        7.325743   -1.635150   -0.624075
     52          1           0        7.731529   -3.292939   -0.967083
     53          1           0        3.226558   -3.886076   -0.849535
     54          1           0        2.750507   -4.202780    0.866725
     55          1           0        4.802495   -6.035280    0.146804
     56          1           0        3.909420   -5.799126   -1.307328
     57          1           0        5.183261   -0.608166   -4.770717
     58          1           0        5.445746    0.941087   -5.475650
     59          1           0        3.813501    0.233419   -5.586539
     60          1           0        4.374236    2.773668   -6.190004
     61          1           0        3.031000    4.034157   -6.378048
     62          1           0        2.702169    2.332660   -5.954129
     63          1           0        2.920680    5.930328    0.181414
     64          1           0        4.196209    5.514562    2.840014
     65          1           0        4.752445    7.244031    0.025817
     66          1           0        5.744183    5.745889   -0.001766
     67          1           0        5.456734    6.528883    1.464954
     68          1           0        2.103451    6.876753    2.475166
     69          1           0        2.027339    5.747551    3.823111
     70          1           0        0.805789    5.716427    1.167262
     71          1           0        0.021492    5.348723    2.740908
     72          1           0        1.070746    4.133889    1.881866
     73          1           0        2.744214    0.816350    6.791556
     74          1           0        3.158140    2.457188    6.178872
     75          1           0        4.491620    1.272527    6.501322
     76          1           0        5.079555   -3.088960    3.893405
     77          1           0        3.223545   -6.920795    4.594664
     78          1           0        3.111113   -6.767615    2.738963
     79          1           0        1.903987   -6.157255    3.886150
     80         12           0       -4.142759    0.191243   -0.373344
     81          6           0       -2.287309   -1.896427   -2.626785
     82          6           0       -6.069144   -2.534652    0.328887
     83          6           0       -6.070827    2.101100    1.270564
     84          6           0       -2.844210    2.942500   -2.073361
     85          7           0       -4.086566   -1.891342   -1.116253
     86          6           0       -3.298617   -2.584440   -1.924410
     87          6           0       -3.560772   -4.114407   -1.922008
     88          6           0       -5.088976   -4.095753   -1.428937
     89          6           0       -5.081236   -2.776868   -0.658773
     90          6           0       -6.087571   -3.977655   -2.568325
     91          6           0       -2.638967   -4.877205   -0.906906
     92          6           0       -2.621728   -6.398490   -1.071671
     93          1           0       -1.372806   -7.111838   -0.819078
     94          7           0       -5.500552   -0.236189    1.009510
     95          6           0       -6.166664   -1.399724    1.163619
     96          6           0       -7.066305   -1.199459    2.310224
     97          6           0       -6.996288    0.230273    2.717272
     98          6           0       -6.184557    0.770166    1.645035
     99          6           0       -7.821959   -2.323412    2.957639
    100          6           0       -7.575993    0.988855    3.872559
    101          8           0       -7.585238    2.270256    3.900045
    102          6           0       -8.216118    0.188976    4.927036
    103          7           0       -4.587942    2.216250   -0.526692
    104          6           0       -5.420504    2.809145    0.346952
    105          6           0       -5.373936    4.312358    0.210705
    106          6           0       -4.152093    4.616736   -0.775221
    107          6           0       -3.741764    3.169216   -1.124071
    108          6           0       -6.641990    4.970691   -0.332446
    109          6           0       -3.057920    5.591374   -0.259915
    110          6           0       -2.304492    4.960622    0.888955
    111          7           0       -2.670439    0.509484   -1.922230
    112          6           0       -2.298711    1.740486   -2.505792
    113          6           0       -1.345810    1.436747   -3.593047
    114          6           0       -1.246128    0.037311   -3.581543
    115          6           0       -2.093601   -0.494894   -2.572566
    116          6           0       -0.742323    2.390140   -4.460792
    117          6           0       -0.624780   -1.111379   -4.200535
    118          8           0        0.249446   -1.273145   -5.051009
    119          6           0       -1.367457   -2.422055   -3.693648
    120          6           0       -0.319738   -3.421151   -3.285470
    121          8           0        0.426018   -3.194721   -2.316348
    122          8           0       -0.514104   -4.566016   -3.965072
    123          6           0        0.493977   -5.591794   -3.586406
    124          1           0       -6.871862   -3.262684    0.449283
    125          1           0       -6.632351    2.812245    1.880841
    126          1           0       -2.319548    3.751629   -2.585918
    127          1           0       -3.489221   -4.589073   -2.893265
    128          1           0       -5.298422   -4.926597   -0.760199
    129          1           0       -5.599075   -3.806255   -3.516035
    130          1           0       -6.725577   -3.141160   -2.314799
    131          1           0       -6.738154   -4.856579   -2.592012
    132          1           0       -3.073889   -4.801979    0.098041
    133          1           0       -1.636117   -4.498334   -0.943963
    134          1           0       -3.058465   -6.714619   -2.026790
    135          1           0       -3.280235   -6.836670   -0.317757
    136          1           0       -7.804251   -3.229021    2.338796
    137          1           0       -8.876899   -2.029236    2.978438
    138          1           0       -7.489913   -2.520830    3.979127
    139          1           0       -9.021710   -0.399849    4.494855
    140          1           0       -8.489910    0.900791    5.708220
    141          1           0       -7.481970   -0.522979    5.320439
    142          1           0       -5.178915    4.781507    1.167242
    143          1           0       -4.491022    5.081854   -1.712570
    144          1           0       -7.059515    5.739058    0.345316
    145          1           0       -7.372650    4.196494   -0.525580
    146          1           0       -6.537150    5.438428   -1.309906
    147          1           0       -3.516549    6.502298    0.132572
    148          1           0       -2.350911    5.891189   -1.026223
    149          1           0       -2.947230    5.168903    1.749528
    150          1           0       -1.326504    5.423201    1.005613
    151          1           0       -2.250521    3.871846    0.773673
    152          1           0        0.299756    2.113557   -4.550655
    153          1           0       -0.854197    3.402577   -4.078396
    154          1           0       -1.329551    2.226936   -5.368420
    155          1           0       -1.983867   -2.787968   -4.515673
    156          1           0        0.984672   -5.913765   -4.510123
    157          1           0       -0.061403   -6.360428   -3.016743
    158          1           0        1.343732   -5.266131   -2.997944
 ---------------------------------------------------------------------

 SCF Done:  E(RCAM-B3LYP) =  -4069.81317427     A.U. after   18 cycles

 Excitation energies and oscillator strengths:

 Excited State   1:      Singlet-A      1.6314 eV  759.98 nm  f=0.1083  <S**2>=0.000
     309 -> 315        0.12059
     310 -> 316        0.10765
     311 -> 313        0.50839
     312 -> 314        0.46435
 This state for optimization and/or second-order correction.
 Total Energy, E(TD-HF/TD-DFT) =  -4069.75322089
 Copying the excited state density for this state as the 1-particle RhoCI density.

 Excited State   2:      Singlet-A      1.7108 eV  724.72 nm  f=0.6066  <S**2>=0.000
     309 -> 315       -0.12293
     310 -> 316        0.13370
     311 -> 313       -0.46109
     312 -> 314        0.50491

 Excited State   3:      Singlet-A      2.1761 eV  569.74 nm  f=0.0071  <S**2>=0.000
     309 -> 313        0.52736
     310 -> 314       -0.37262
     311 -> 315       -0.21589
     312 -> 316        0.15027

 Excited State   4:      Singlet-A      2.1963 eV  564.53 nm  f=0.1223  <S**2>=0.000
     309 -> 313        0.33633
     310 -> 314        0.44288
     311 -> 315       -0.14762
     312 -> 313        0.34645
     312 -> 316       -0.19554

 Excited State   5:      Singlet-A      2.1978 eV  564.12 nm  f=0.0376  <S**2>=0.000
     309 -> 313       -0.15243
     310 -> 314       -0.27665
     312 -> 313        0.61387
     312 -> 316        0.11927

 The electronic state is 1-A.
 Alpha  occ. eigenvalues --  -46.87567 -46.87158 -19.26669 -19.25894 -19.19540
 Alpha  occ. eigenvalues --  -19.18621 -19.18576 -19.18333 -19.18262 -19.17655
 Alpha  occ. eigenvalues --  -14.42402 -14.41799 -14.41272 -14.40873 -14.39261
 Alpha  occ. eigenvalues --  -14.38763 -14.38541 -14.37986 -10.39383 -10.38631
 Alpha  occ. eigenvalues --  -10.35295 -10.34961 -10.34411 -10.33878 -10.32144
 Alpha  occ. eigenvalues --  -10.31395 -10.31261 -10.30948 -10.30779 -10.30334
 Alpha  occ. eigenvalues --  -10.30314 -10.30238 -10.30007 -10.29969 -10.29947
 Alpha  occ. eigenvalues --  -10.29824 -10.29643 -10.29439 -10.29345 -10.29338
 Alpha  occ. eigenvalues --  -10.29079 -10.28653 -10.28625 -10.28606 -10.28363
 Alpha  occ. eigenvalues --  -10.28121 -10.28079 -10.28062 -10.27967 -10.27734
 Alpha  occ. eigenvalues --  -10.27584 -10.27477 -10.27436 -10.27400 -10.27352
 Alpha  occ. eigenvalues --  -10.27343 -10.27251 -10.27196 -10.27185 -10.27140
 Alpha  occ. eigenvalues --  -10.27124 -10.27077 -10.26989 -10.26809 -10.26650
 Alpha  occ. eigenvalues --  -10.26557 -10.26543 -10.26283 -10.25994 -10.25937
 Alpha  occ. eigenvalues --  -10.25881 -10.25832 -10.25830 -10.25816 -10.25773
 Alpha  occ. eigenvalues --  -10.25706 -10.25459 -10.25388 -10.25300 -10.25137
 Alpha  occ. eigenvalues --  -10.24859 -10.24620 -10.24563 -10.24262 -10.24248
 Alpha  occ. eigenvalues --  -10.24245  -3.16315  -3.15896  -1.91196  -1.90785
 Alpha  occ. eigenvalues --   -1.90777  -1.90623  -1.90365  -1.90208  -1.16961
 Alpha  occ. eigenvalues --   -1.16230  -1.08874  -1.08130  -1.07269  -1.06871
 Alpha  occ. eigenvalues --   -1.06751  -1.06202  -1.04418  -1.03938  -1.03581
 Alpha  occ. eigenvalues --   -1.03179  -1.02960  -1.02636  -1.02043  -1.01820
 Alpha  occ. eigenvalues --   -0.91991  -0.91400  -0.89386  -0.89096  -0.89076
 Alpha  occ. eigenvalues --   -0.88535  -0.88091  -0.87859  -0.87753  -0.87599
 Alpha  occ. eigenvalues --   -0.87315  -0.87037  -0.87029  -0.86615  -0.84933
 Alpha  occ. eigenvalues --   -0.84376  -0.83784  -0.83584  -0.82822  -0.82605
 Alpha  occ. eigenvalues --   -0.82424  -0.82086  -0.81686  -0.81108  -0.80442
 Alpha  occ. eigenvalues --   -0.80057  -0.78563  -0.78162  -0.77072  -0.76908
 Alpha  occ. eigenvalues --   -0.76719  -0.76420  -0.75845  -0.75396  -0.74742
 Alpha  occ. eigenvalues --   -0.74459  -0.72634  -0.72221  -0.71537  -0.71141
 Alpha  occ. eigenvalues --   -0.69824  -0.69396  -0.68769  -0.68300  -0.67566
 Alpha  occ. eigenvalues --   -0.67114  -0.67090  -0.66590  -0.65246  -0.64773
 Alpha  occ. eigenvalues --   -0.64697  -0.64613  -0.64338  -0.64174  -0.64045
 Alpha  occ. eigenvalues --   -0.63779  -0.62387  -0.61848  -0.60253  -0.59860
 Alpha  occ. eigenvalues --   -0.59732  -0.59174  -0.58952  -0.58452  -0.58418
 Alpha  occ. eigenvalues --   -0.57967  -0.57696  -0.57179  -0.57083  -0.56819
 Alpha  occ. eigenvalues --   -0.56208  -0.55974  -0.55750  -0.55507  -0.55469
 Alpha  occ. eigenvalues --   -0.55279  -0.55008  -0.54948  -0.54494  -0.54108
 Alpha  occ. eigenvalues --   -0.53848  -0.53272  -0.53164  -0.53156  -0.52903
 Alpha  occ. eigenvalues --   -0.52795  -0.52652  -0.52580  -0.52404  -0.52293
 Alpha  occ. eigenvalues --   -0.52179  -0.52101  -0.51784  -0.51597  -0.51417
 Alpha  occ. eigenvalues --   -0.51203  -0.50978  -0.50700  -0.50363  -0.49986
 Alpha  occ. eigenvalues --   -0.49882  -0.49794  -0.49506  -0.49425  -0.49323
 Alpha  occ. eigenvalues --   -0.49208  -0.49121  -0.48950  -0.48667  -0.48624
 Alpha  occ. eigenvalues --   -0.48511  -0.48379  -0.48251  -0.48126  -0.48008
 Alpha  occ. eigenvalues --   -0.47894  -0.47550  -0.47173  -0.47056  -0.46728
 Alpha  occ. eigenvalues --   -0.46645  -0.46512  -0.46323  -0.46215  -0.46054
 Alpha  occ. eigenvalues --   -0.45985  -0.45875  -0.45793  -0.45682  -0.45369
 Alpha  occ. eigenvalues --   -0.45156  -0.44756  -0.44545  -0.44395  -0.44174
 Alpha  occ. eigenvalues --   -0.44114  -0.43977  -0.43971  -0.43890  -0.43685
 Alpha  occ. eigenvalues --   -0.43628  -0.43565  -0.43448  -0.43330  -0.43085
 Alpha  occ. eigenvalues --   -0.43029  -0.42893  -0.42826  -0.42564  -0.42424
 Alpha  occ. eigenvalues --   -0.42294  -0.42270  -0.41878  -0.41680  -0.41576
 Alpha  occ. eigenvalues --   -0.41377  -0.41178  -0.40985  -0.40943  -0.40634
 Alpha  occ. eigenvalues --   -0.40614  -0.40599  -0.40389  -0.40371  -0.40285
 Alpha  occ. eigenvalues --   -0.40123  -0.40105  -0.39524  -0.39402  -0.38717
 Alpha  occ. eigenvalues --   -0.38193  -0.38031  -0.37584  -0.37202  -0.37166
 Alpha  occ. eigenvalues --   -0.37123  -0.36960  -0.36812  -0.36642  -0.36290
 Alpha  occ. eigenvalues --   -0.36115  -0.35684  -0.34242  -0.34084  -0.33699
 Alpha  occ. eigenvalues --   -0.33299  -0.33114  -0.32600  -0.31182  -0.30911
 Alpha  occ. eigenvalues --   -0.30861  -0.30456  -0.30158  -0.29522  -0.29279
 Alpha  occ. eigenvalues --   -0.29173  -0.28844  -0.28726  -0.23965  -0.23475
 Alpha  occ. eigenvalues --   -0.21041  -0.20523
 Alpha virt. eigenvalues --   -0.08734  -0.08166  -0.01593  -0.01182   0.00030
 Alpha virt. eigenvalues --    0.00526   0.02170   0.02703   0.02877   0.04550
 Alpha virt. eigenvalues --    0.04676   0.04891   0.05217   0.05556   0.05831

 Mulliken charges:
               1
     1  Mg   0.842952
     2  C   -0.001510
     3  C   -0.085554
     4  C   -0.049716
     5  C   -0.065813
     6  N   -0.257056
     7  C   -0.049279
     8  C   -0.016903
     9  C   -0.089476
    10  C    0.052959
    11  C    0.105325
    12  C    0.053829
    13  C   -0.071073
    14  H    0.028242
    15  N   -0.433214
    16  C    0.174116
    17  C   -0.169660
    18  C   -0.006723
    19  C    0.149595
    20  C    0.109235
    21  C    0.008365
    22  O   -0.253666
    23  C    0.060605
    24  N   -0.341088
    25  C    0.042224
    26  C   -0.028919
    27  C   -0.025552
    28  C    0.073635
    29  C    0.076895
    30  C    0.051618
    31  C   -0.037884
    32  N   -0.309849
    33  C    0.079222
    34  C   -0.171605
    35  C    0.007248
    36  C    0.082135
    37  C    0.127749
    38  C    0.044926
    39  O   -0.191455
    40  C   -0.005560
    41  C    0.212725
    42  O   -0.256707
    43  O   -0.304890
    44  C    0.159041
    45  H   -0.018694
    46  H   -0.019770
    47  H   -0.043810
    48  H   -0.002214
    49  H   -0.003932
    50  H    0.024370
    51  H    0.015797
    52  H    0.014920
    53  H    0.026691
    54  H    0.044694
    55  H    0.015524
    56  H    0.013754
    57  H    0.005263
    58  H    0.022391
    59  H    0.054557
    60  H    0.037174
    61  H    0.032474
    62  H    0.039225
    63  H    0.014491
    64  H    0.008481
    65  H    0.021374
    66  H    0.013001
    67  H    0.004232
    68  H    0.003718
    69  H    0.002365
    70  H    0.026788
    71  H    0.031826
    72  H    0.034286
    73  H    0.045815
    74  H    0.007789
    75  H    0.044629
    76  H    0.033925
    77  H    0.041227
    78  H    0.045937
    79  H    0.051840
    80  Mg   0.841053
    81  C   -0.016986
    82  C   -0.087237
    83  C   -0.045261
    84  C   -0.065486
    85  N   -0.255043
    86  C   -0.048395
    87  C   -0.016330
    88  C   -0.090906
    89  C    0.047402
    90  C    0.114458
    91  C    0.062266
    92  C   -0.077319
    93  H    0.032849
    94  N   -0.423553
    95  C    0.164810
    96  C   -0.173931
    97  C   -0.006960
    98  C    0.152885
    99  C    0.099387
   100  C    0.016356
   101  O   -0.253111
   102  C    0.060675
   103  N   -0.350205
   104  C    0.038041
   105  C   -0.020417
   106  C   -0.032584
   107  C    0.088617
   108  C    0.073888
   109  C    0.036728
   110  C   -0.008054
   111  N   -0.323591
   112  C    0.076474
   113  C   -0.162857
   114  C   -0.000109
   115  C    0.095850
   116  C    0.131394
   117  C    0.042459
   118  O   -0.196153
   119  C    0.001103
   120  C    0.211439
   121  O   -0.248669
   122  O   -0.304590
   123  C    0.153525
   124  H   -0.019760
   125  H   -0.015436
   126  H   -0.038526
   127  H   -0.002192
   128  H   -0.003817
   129  H    0.021789
   130  H    0.014461
   131  H    0.016105
   132  H    0.017678
   133  H    0.039571
   134  H    0.019380
   135  H    0.020355
   136  H    0.008888
   137  H    0.025905
   138  H    0.041478
   139  H    0.037927
   140  H    0.036476
   141  H    0.035490
   142  H    0.014698
   143  H    0.011961
   144  H    0.024819
   145  H    0.011201
   146  H    0.005677
   147  H    0.003783
   148  H    0.003359
   149  H    0.007111
   150  H    0.007957
   151  H    0.028925
   152  H    0.041445
   153  H    0.016295
   154  H    0.044797
   155  H    0.034839
   156  H    0.041893
   157  H    0.051993
   158  H    0.049931
 Sum of Mulliken charges =  -0.00000

 Dipole moment (field-independent basis, Debye):
    X=             -1.5881    Y=             -3.2684    Z=             -3.1275  Tot=              4.7943
 Quadrupole moment (field-independent basis, Debye-Ang):
   XX=           -480.3791   YY=           -464.9567   ZZ=           -537.5453
   XY=             15.6601   XZ=             -8.3826   YZ=             19.7502

 Normal termination of Gaussian 16 at Wed Sep  8 20:42:22 2021.
