 Gaussian 16, Revision A.03,
 Gaussian 16:  ES64L-G16RevA.03 25-Dec-2016

 -----------------------------------
 #p cam-b3lyp/Def2SVP td=(nstates=5)
 -----------------------------------

 --------------------------------
 TDDFT excited states in gaussian
 --------------------------------
 Symbolic Z-matrix:
 Charge =  0 Multiplicity = 1

                         Standard orientation:
 ---------------------------------------------------------------------
 Center     Atomic      Atomic             Coordinates (Angstroms)
 Number     Number       Type             X           Y           Z
 ---------------------------------------------------------------------
      1         12           0       -7.850085    0.693517    0.303673
      2          6           0       -8.140257   -2.384509   -1.500147
      3          6           0       -8.591446   -1.066246    3.131513
      4          6           0       -8.047103    3.459333    1.842526
      5          6           0       -8.256714    2.343852   -2.738811
      6          7           0       -8.288187   -1.449517    0.644430
      7          6           0       -8.308920   -2.535512   -0.121962
      8          6           0       -8.451554   -3.859636    0.686571
      9          6           0       -9.142160   -3.278822    2.000997
     10          6           0       -8.615332   -1.855768    1.943609
     11          6           0      -10.665052   -3.242281    1.923741
     12          6           0       -7.064995   -4.512005    1.008439
     13          6           0       -7.123401   -5.959841    1.504134
     14          1           0       -6.065698   -6.878161    1.110053
     15          7           0       -7.777229    1.091846    2.237290
     16          6           0       -8.098779    0.251373    3.249958
     17          6           0       -7.878964    1.013798    4.497784
     18          6           0       -7.585635    2.425049    4.123055
     19          6           0       -7.820431    2.387104    2.702207
     20          6           0       -7.908560    0.389920    5.859273
     21          6           0       -7.171259    3.620950    4.920706
     22          8           0       -7.194685    4.803569    4.435488
     23          6           0       -6.816894    3.379282    6.331048
     24          7           0       -8.332563    2.629269   -0.310913
     25          6           0       -8.285855    3.656584    0.544321
     26          6           0       -8.391396    4.969591   -0.173183
     27          6           0       -8.275789    4.633235   -1.729863
     28          6           0       -8.201617    3.089422   -1.632847
     29          6           0       -9.675851    5.770291    0.081900
     30          6           0       -7.176196    5.375665   -2.529933
     31          6           0       -5.809880    4.920905   -2.067902
     32          7           0       -7.970253    0.119392   -1.786060
     33          6           0       -8.163341    0.969813   -2.884320
     34          6           0       -8.285082    0.112922   -4.078048
     35          6           0       -8.170183   -1.185683   -3.585841
     36          6           0       -8.014486   -1.143817   -2.170815
     37          6           0       -8.534000    0.562589   -5.404801
     38          6           0       -8.167404   -2.599920   -3.923157
     39          8           0       -8.168591   -3.240428   -4.975412
     40          6           0       -8.270094   -3.437364   -2.572613
     41          6           0       -7.224849   -4.518003   -2.627309
     42          8           0       -6.009759   -4.234542   -2.603350
     43          8           0       -7.811734   -5.713026   -2.459897
     44          6           0       -6.826277   -6.826948   -2.474285
     45          1           0       -9.043353   -1.467149    4.040908
     46          1           0       -8.011839    4.441032    2.319456
     47          1           0       -8.300456    2.791704   -3.733280
     48          1           0       -9.098063   -4.606421    0.225310
     49          1           0       -8.786834   -3.778388    2.902052
     50          1           0      -11.019700   -3.501625    0.926301
     51          1           0      -10.944643   -2.218453    2.172938
     52          1           0      -11.107336   -3.870429    2.697427
     53          1           0       -6.637430   -4.031696    1.888525
     54          1           0       -6.401168   -4.452983    0.145203
     55          1           0       -8.102394   -6.404178    1.322346
     56          1           0       -7.026252   -5.953319    2.589823
     57          1           0       -8.311682   -0.621533    5.827652
     58          1           0       -8.630717    0.951761    6.451332
     59          1           0       -6.933134    0.418610    6.345124
     60          1           0       -7.669820    2.936207    6.845586
     61          1           0       -6.460726    4.332849    6.719254
     62          1           0       -6.016242    2.640225    6.372289
     63          1           0       -7.577756    5.636261    0.109599
     64          1           0       -9.196262    4.862483   -2.267308
     65          1           0       -9.496649    6.774623    0.466490
     66          1           0      -10.301070    5.195811    0.764809
     67          1           0      -10.332382    5.868623   -0.782226
     68          1           0       -7.235113    6.448494   -2.349619
     69          1           0       -7.244955    5.215959   -3.606045
     70          1           0       -5.630664    5.541274   -1.190487
     71          1           0       -5.064059    5.112108   -2.840174
     72          1           0       -5.827286    3.882934   -1.735038
     73          1           0       -7.865834   -0.007252   -6.050405
     74          1           0       -8.357928    1.633875   -5.499396
     75          1           0       -9.586622    0.301319   -5.512415
     76          1           0       -9.279443   -3.845734   -2.532975
     77          1           0       -7.144047   -7.526661   -3.247368
     78          1           0       -6.762943   -7.197881   -1.451151
     79          1           0       -5.822821   -6.578351   -2.821584
     80         12           0        8.014631    0.688932   -0.448447
     81          6           0        7.877430   -2.583150    1.019112
     82          6           0        7.284819    1.941189    2.639239
     83          6           0        7.683743    3.543471   -1.793646
     84          6           0        7.597836   -0.837942   -3.553383
     85          7           0        7.651237   -0.294588    1.499080
     86          6           0        7.686249   -1.539888    1.948897
     87          6           0        7.586387   -1.669214    3.492557
     88          6           0        6.841088   -0.280921    3.802458
     89          6           0        7.311667    0.524416    2.593046
     90          6           0        5.326084   -0.385602    3.746437
     91          6           0        8.995703   -1.730446    4.179657
     92          6           0        8.977559   -2.165583    5.646652
     93          1           0       10.084005   -2.977614    6.145514
     94          7           0        8.037869    2.500681    0.361225
     95          6           0        7.735790    2.826403    1.635566
     96          6           0        7.885336    4.287230    1.723702
     97          6           0        8.140179    4.816027    0.356167
     98          6           0        7.938747    3.616709   -0.431971
     99          6           0        7.862206    5.030358    3.027790
    100          6           0        8.492675    6.178774   -0.158476
    101          8           0        8.433884    6.463048   -1.406901
    102          6           0        8.818481    7.196735    0.851025
    103          7           0        7.477258    1.290947   -2.364480
    104          6           0        7.461829    2.592569   -2.701315
    105          6           0        7.315945    2.768023   -4.194069
    106          6           0        7.480250    1.304198   -4.816802
    107          6           0        7.609408    0.487330   -3.512409
    108          6           0        5.995741    3.376532   -4.666491
    109          6           0        8.566039    1.123412   -5.912729
    110          6           0        9.941539    1.297529   -5.310160
    111          7           0        7.962980   -1.339872   -1.189634
    112          6           0        7.751182   -1.755981   -2.522330
    113          6           0        7.686875   -3.231851   -2.512599
    114          6           0        7.843956   -3.573687   -1.160954
    115          6           0        7.975256   -2.393315   -0.380582
    116          6           0        7.456985   -4.061987   -3.645803
    117          6           0        7.917921   -4.664276   -0.215510
    118          8           0        7.955217   -5.890763   -0.305307
    119          6           0        7.816188   -4.066970    1.253937
    120          6           0        8.903978   -4.690275    2.085028
    121          8           0       10.100523   -4.465041    1.831747
    122          8           0        8.354029   -5.269971    3.167562
    123          6           0        9.394412   -5.892651    4.028786
    124          1           0        6.837540    2.423547    3.508815
    125          1           0        7.670695    4.499044   -2.322969
    126          1           0        7.568197   -1.392673   -4.493633
    127          1           0        6.984626   -2.500108    3.840808
    128          1           0        7.205791    0.166147    4.723590
    129          1           0        5.001916   -1.352114    3.390177
    130          1           0        5.002071    0.394930    3.070531
    131          1           0        4.894868   -0.138666    4.720819
    132          1           0        9.384323   -0.710007    4.291147
    133          1           0        9.663337   -2.360024    3.624220
    134          1           0        8.016019   -2.608511    5.933356
    135          1           0        9.059912   -1.274650    6.273921
    136          1           0        7.492548    4.398139    3.844532
    137          1           0        7.108557    5.819560    2.932779
    138          1           0        8.824170    5.487524    3.269195
    139          1           0        7.974980    7.318504    1.526407
    140          1           0        9.129974    8.078210    0.287227
    141          1           0        9.656459    6.833488    1.456386
    142          1           0        8.097687    3.406688   -4.586622
    143          1           0        6.557291    0.965175   -5.309807
    144          1           0        6.129329    4.293731   -5.270607
    145          1           0        5.383137    3.579085   -3.798024
    146          1           0        5.360837    2.708859   -5.246427
    147          1           0        8.462889    1.895581   -6.679053
    148          1           0        8.517290    0.162904   -6.414761
    149          1           0       10.073692    2.383627   -5.306554
    150          1           0       10.694293    0.810360   -5.926660
    151          1           0        9.960072    0.959741   -4.267468
    152          1           0        8.152194   -4.887751   -3.572996
    153          1           0        7.588239   -3.511534   -4.575075
    154          1           0        6.412878   -4.338458   -3.476441
    155          1           0        6.822460   -4.304047    1.635854
    156          1           0        9.116090   -6.943253    4.157102
    157          1           0        9.439846   -5.268551    4.941034
    158          1           0       10.393351   -5.986984    3.619327
 ---------------------------------------------------------------------

 SCF Done:  E(RCAM-B3LYP) =  -4069.81176574     A.U. after   19 cycles

 Excitation energies and oscillator strengths:

 Excited State   1:      Singlet-A      1.6725 eV  741.30 nm  f=0.1865  <S**2>=0.000
     310 -> 316        0.14608
     311 -> 313       -0.36668
     312 -> 314        0.57997
 This state for optimization and/or second-order correction.
 Total Energy, E(TD-HF/TD-DFT) =  -4069.75030159
 Copying the excited state density for this state as the 1-particle RhoCI density.

 Excited State   2:      Singlet-A      1.6822 eV  737.04 nm  f=0.5641  <S**2>=0.000
     309 -> 315        0.14875
     311 -> 313        0.57941
     312 -> 314        0.36645

 Excited State   3:      Singlet-A      2.1858 eV  567.22 nm  f=0.0878  <S**2>=0.000
     310 -> 314        0.63788
     312 -> 316       -0.27109

 Excited State   4:      Singlet-A      2.1922 eV  565.58 nm  f=0.1101  <S**2>=0.000
     309 -> 313        0.63610
     311 -> 315       -0.27605

 Excited State   5:      Singlet-A      2.7656 eV  448.31 nm  f=0.0000  <S**2>=0.000
     312 -> 313        0.70710

 The electronic state is 1-A.
 Alpha  occ. eigenvalues --  -46.87834 -46.87592 -19.26317 -19.26286 -19.19121
 Alpha  occ. eigenvalues --  -19.19028 -19.18872 -19.18652 -19.18197 -19.17989
 Alpha  occ. eigenvalues --  -14.42485 -14.42432 -14.41486 -14.41288 -14.39442
 Alpha  occ. eigenvalues --  -14.39284 -14.38623 -14.38530 -10.39089 -10.39049
 Alpha  occ. eigenvalues --  -10.35507 -10.35331 -10.34416 -10.34167 -10.31735
 Alpha  occ. eigenvalues --  -10.31667 -10.31436 -10.31245 -10.30964 -10.30944
 Alpha  occ. eigenvalues --  -10.30604 -10.30545 -10.30327 -10.30292 -10.30248
 Alpha  occ. eigenvalues --  -10.30068 -10.29956 -10.29819 -10.29670 -10.29367
 Alpha  occ. eigenvalues --  -10.29333 -10.29295 -10.28772 -10.28675 -10.28636
 Alpha  occ. eigenvalues --  -10.28542 -10.28402 -10.28340 -10.28142 -10.28093
 Alpha  occ. eigenvalues --  -10.27932 -10.27830 -10.27763 -10.27627 -10.27604
 Alpha  occ. eigenvalues --  -10.27538 -10.27534 -10.27487 -10.27437 -10.27433
 Alpha  occ. eigenvalues --  -10.27419 -10.27410 -10.27399 -10.27293 -10.27180
 Alpha  occ. eigenvalues --  -10.26994 -10.26721 -10.26659 -10.26485 -10.26361
 Alpha  occ. eigenvalues --  -10.26257 -10.26221 -10.26058 -10.26056 -10.25978
 Alpha  occ. eigenvalues --  -10.25874 -10.25860 -10.25761 -10.25471 -10.25303
 Alpha  occ. eigenvalues --  -10.24868 -10.24826 -10.24804 -10.24727 -10.24660
 Alpha  occ. eigenvalues --  -10.24620  -3.16577  -3.16342  -1.91459  -1.91224
 Alpha  occ. eigenvalues --   -1.91045  -1.90887  -1.90812  -1.90649  -1.16636
 Alpha  occ. eigenvalues --   -1.16609  -1.08652  -1.08598  -1.07274  -1.06906
 Alpha  occ. eigenvalues --   -1.06905  -1.06650  -1.04615  -1.04431  -1.03797
 Alpha  occ. eigenvalues --   -1.03595  -1.03272  -1.02968  -1.02448  -1.02042
 Alpha  occ. eigenvalues --   -0.92003  -0.91923  -0.89556  -0.89422  -0.89213
 Alpha  occ. eigenvalues --   -0.89102  -0.88323  -0.88144  -0.87905  -0.87719
 Alpha  occ. eigenvalues --   -0.87706  -0.87620  -0.87322  -0.87057  -0.85010
 Alpha  occ. eigenvalues --   -0.84947  -0.83971  -0.83802  -0.83021  -0.82869
 Alpha  occ. eigenvalues --   -0.82679  -0.82599  -0.81605  -0.81544  -0.80627
 Alpha  occ. eigenvalues --   -0.80385  -0.78840  -0.78569  -0.77252  -0.77085
 Alpha  occ. eigenvalues --   -0.76957  -0.76843  -0.75947  -0.75785  -0.74931
 Alpha  occ. eigenvalues --   -0.74730  -0.72810  -0.72629  -0.71704  -0.71515
 Alpha  occ. eigenvalues --   -0.69944  -0.69682  -0.68904  -0.68773  -0.67677
 Alpha  occ. eigenvalues --   -0.67538  -0.67250  -0.67152  -0.65313  -0.65220
 Alpha  occ. eigenvalues --   -0.64883  -0.64706  -0.64649  -0.64597  -0.64305
 Alpha  occ. eigenvalues --   -0.64132  -0.62315  -0.62227  -0.60487  -0.60273
 Alpha  occ. eigenvalues --   -0.59833  -0.59741  -0.59021  -0.58926  -0.58537
 Alpha  occ. eigenvalues --   -0.58362  -0.57608  -0.57498  -0.57343  -0.57169
 Alpha  occ. eigenvalues --   -0.56346  -0.56140  -0.55992  -0.55841  -0.55560
 Alpha  occ. eigenvalues --   -0.55396  -0.55368  -0.55180  -0.54547  -0.54426
 Alpha  occ. eigenvalues --   -0.53920  -0.53864  -0.53339  -0.53256  -0.53162
 Alpha  occ. eigenvalues --   -0.53087  -0.52942  -0.52848  -0.52799  -0.52613
 Alpha  occ. eigenvalues --   -0.52475  -0.52328  -0.51947  -0.51805  -0.51647
 Alpha  occ. eigenvalues --   -0.51609  -0.51225  -0.51139  -0.50629  -0.50416
 Alpha  occ. eigenvalues --   -0.50070  -0.49963  -0.49922  -0.49794  -0.49550
 Alpha  occ. eigenvalues --   -0.49431  -0.49248  -0.49145  -0.49122  -0.49048
 Alpha  occ. eigenvalues --   -0.48618  -0.48505  -0.48502  -0.48480  -0.48303
 Alpha  occ. eigenvalues --   -0.48279  -0.47729  -0.47536  -0.47333  -0.47054
 Alpha  occ. eigenvalues --   -0.46830  -0.46644  -0.46581  -0.46503  -0.46394
 Alpha  occ. eigenvalues --   -0.46203  -0.46192  -0.46015  -0.45844  -0.45761
 Alpha  occ. eigenvalues --   -0.45237  -0.45134  -0.44606  -0.44547  -0.44457
 Alpha  occ. eigenvalues --   -0.44419  -0.44182  -0.44117  -0.44070  -0.44052
 Alpha  occ. eigenvalues --   -0.44013  -0.43882  -0.43516  -0.43501  -0.43417
 Alpha  occ. eigenvalues --   -0.43326  -0.43059  -0.42882  -0.42838  -0.42724
 Alpha  occ. eigenvalues --   -0.42675  -0.42483  -0.42041  -0.41902  -0.41736
 Alpha  occ. eigenvalues --   -0.41607  -0.41560  -0.41405  -0.41173  -0.40927
 Alpha  occ. eigenvalues --   -0.40901  -0.40870  -0.40668  -0.40644  -0.40605
 Alpha  occ. eigenvalues --   -0.40422  -0.40256  -0.40186  -0.39478  -0.39350
 Alpha  occ. eigenvalues --   -0.38503  -0.38279  -0.37770  -0.37609  -0.37356
 Alpha  occ. eigenvalues --   -0.37291  -0.37196  -0.37143  -0.36729  -0.36725
 Alpha  occ. eigenvalues --   -0.36217  -0.36153  -0.34321  -0.34186  -0.33817
 Alpha  occ. eigenvalues --   -0.33784  -0.33221  -0.33108  -0.31401  -0.31211
 Alpha  occ. eigenvalues --   -0.31071  -0.30907  -0.30055  -0.29894  -0.29491
 Alpha  occ. eigenvalues --   -0.29358  -0.29260  -0.29142  -0.24116  -0.23968
 Alpha  occ. eigenvalues --   -0.21164  -0.21049
 Alpha virt. eigenvalues --   -0.08813  -0.08724  -0.01788  -0.01615  -0.00102
 Alpha virt. eigenvalues --    0.00033   0.02167   0.02275   0.03077   0.03287
 Alpha virt. eigenvalues --    0.04690   0.04789   0.05087   0.05208   0.06164

 Mulliken charges:
               1
     1  Mg   0.838633
     2  C   -0.002924
     3  C   -0.094131
     4  C   -0.045968
     5  C   -0.063961
     6  N   -0.256770
     7  C   -0.052394
     8  C   -0.013993
     9  C   -0.086985
    10  C    0.046280
    11  C    0.104806
    12  C    0.053484
    13  C   -0.071995
    14  H    0.036669
    15  N   -0.433123
    16  C    0.168312
    17  C   -0.177261
    18  C   -0.004182
    19  C    0.148660
    20  C    0.110193
    21  C    0.012078
    22  O   -0.249741
    23  C    0.062593
    24  N   -0.341155
    25  C    0.041235
    26  C   -0.028133
    27  C   -0.024027
    28  C    0.074873
    29  C    0.076155
    30  C    0.035134
    31  C   -0.004497
    32  N   -0.310497
    33  C    0.080470
    34  C   -0.169684
    35  C    0.008445
    36  C    0.083007
    37  C    0.127302
    38  C    0.046182
    39  O   -0.188186
    40  C   -0.005340
    41  C    0.212904
    42  O   -0.257056
    43  O   -0.304824
    44  C    0.157570
    45  H   -0.017593
    46  H   -0.016938
    47  H   -0.041424
    48  H    0.001082
    49  H   -0.004021
    50  H    0.025541
    51  H    0.016394
    52  H    0.016723
    53  H    0.011019
    54  H    0.044218
    55  H    0.017932
    56  H    0.017865
    57  H    0.005956
    58  H    0.026809
    59  H    0.039139
    60  H    0.037477
    61  H    0.035340
    62  H    0.031085
    63  H    0.016435
    64  H    0.009548
    65  H    0.023169
    66  H    0.012564
    67  H    0.004830
    68  H    0.006419
    69  H    0.004814
    70  H    0.008658
    71  H    0.018228
    72  H    0.028904
    73  H    0.047642
    74  H    0.009127
    75  H    0.046121
    76  H    0.035251
    77  H    0.043116
    78  H    0.046494
    79  H    0.053921
    80  Mg   0.837977
    81  C   -0.016873
    82  C   -0.087867
    83  C   -0.045431
    84  C   -0.064464
    85  N   -0.254550
    86  C   -0.049804
    87  C   -0.015076
    88  C   -0.090523
    89  C    0.045778
    90  C    0.114387
    91  C    0.062566
    92  C   -0.077724
    93  H    0.034663
    94  N   -0.423490
    95  C    0.162892
    96  C   -0.174641
    97  C   -0.007828
    98  C    0.152122
    99  C    0.099381
   100  C    0.015532
   101  O   -0.253211
   102  C    0.061214
   103  N   -0.349996
   104  C    0.037637
   105  C   -0.019928
   106  C   -0.034906
   107  C    0.088951
   108  C    0.073516
   109  C    0.034695
   110  C   -0.007649
   111  N   -0.324146
   112  C    0.078470
   113  C   -0.162848
   114  C    0.002275
   115  C    0.096265
   116  C    0.131442
   117  C    0.042518
   118  O   -0.187973
   119  C    0.000864
   120  C    0.211186
   121  O   -0.251061
   122  O   -0.305662
   123  C    0.152089
   124  H   -0.019839
   125  H   -0.015571
   126  H   -0.040142
   127  H   -0.000854
   128  H   -0.004596
   129  H    0.022553
   130  H    0.014806
   131  H    0.015772
   132  H    0.013921
   133  H    0.037666
   134  H    0.020555
   135  H    0.019470
   136  H    0.008592
   137  H    0.026176
   138  H    0.039600
   139  H    0.038269
   140  H    0.036285
   141  H    0.033773
   142  H    0.014254
   143  H    0.013009
   144  H    0.024951
   145  H    0.011820
   146  H    0.006230
   147  H    0.006294
   148  H    0.003806
   149  H    0.010834
   150  H    0.017834
   151  H    0.029998
   152  H    0.045816
   153  H    0.008641
   154  H    0.047650
   155  H    0.035046
   156  H    0.043723
   157  H    0.049338
   158  H    0.053552
 Sum of Mulliken charges =  -0.00000

 Dipole moment (field-independent basis, Debye):
    X=             -3.7028    Y=              2.0900    Z=              7.0084  Tot=              8.1974
 Quadrupole moment (field-independent basis, Debye-Ang):
   XX=           -518.1872   YY=           -529.7756   ZZ=           -469.1787
   XY=             31.4852   XZ=             -7.1460   YZ=            -28.1442

 Normal termination of Gaussian 16 at Sat Sep  4 14:52:31 2021.
