 Gaussian 16, Revision A.03,
 Gaussian 16:  ES64L-G16RevA.03 25-Dec-2016

 -----------------------------------
 #p cam-b3lyp/Def2SVP td=(nstates=5)
 -----------------------------------

 --------------------------------
 TDDFT excited states in gaussian
 --------------------------------
 Symbolic Z-matrix:
 Charge =  0 Multiplicity = 1

                         Standard orientation:
 ---------------------------------------------------------------------
 Center     Atomic      Atomic             Coordinates (Angstroms)
 Number     Number       Type             X           Y           Z
 ---------------------------------------------------------------------
      1         12           0       -7.808256   -0.829682    0.160206
      2          6           0       -8.034283    2.737537    0.350138
      3          6           0       -8.719407   -0.564105   -3.117345
      4          6           0       -8.057819   -3.990198    0.086223
      5          6           0       -8.033018   -0.881533    3.637627
      6          7           0       -8.287121    0.920009   -1.108618
      7          6           0       -8.278364    2.237390   -0.930847
      8          6           0       -8.478503    3.040290   -2.250949
      9          6           0       -9.232423    1.928605   -3.109878
     10          6           0       -8.687954    0.685128   -2.429260
     11          6           0      -10.748482    1.955151   -2.944459
     12          6           0       -7.118355    3.448939   -2.910294
     13          6           0       -7.218921    4.504768   -4.015040
     14          1           0       -6.151541    5.485002   -4.146146
     15          7           0       -7.835095   -2.077229   -1.371380
     16          6           0       -8.219632   -1.794786   -2.639309
     17          6           0       -8.058962   -3.050662   -3.403273
     18          6           0       -7.730719   -4.133516   -2.434883
     19          6           0       -7.889238   -3.439943   -1.182203
     20          6           0       -8.168388   -3.125883   -4.895291
     21          6           0       -7.346920   -5.568811   -2.610260
     22          8           0       -7.331487   -6.393042   -1.633029
     23          6           0       -7.071463   -6.011402   -3.989128
     24          7           0       -8.236112   -2.255005    1.624114
     25          6           0       -8.224339   -3.561786    1.339211
     26          6           0       -8.277013   -4.393086    2.586650
     27          6           0       -8.081576   -3.377494    3.803256
     28          6           0       -8.029379   -2.054416    3.000131
     29          6           0       -9.564605   -5.201345    2.798393
     30          6           0       -6.932644   -3.683086    4.796729
     31          6           0       -5.598108   -3.514111    4.105672
     32          7           0       -7.822166    0.646597    1.751260
     33          6           0       -7.946789    0.402731    3.126641
     34          6           0       -8.013458    1.715889    3.793902
     35          6           0       -7.939181    2.638348    2.752078
     36          6           0       -7.859287    1.945196    1.510527
     37          6           0       -8.185872    1.933807    5.189330
     38          6           0       -7.933538    4.048245    2.397090
     39          8           0       -7.885101    5.102327    3.032745
     40          6           0       -8.117664    4.168582    0.819926
     41          6           0       -7.082706    5.136174    0.314022
     42          8           0       -5.867672    4.855178    0.359844
     43          8           0       -7.690593    6.127532   -0.355474
     44          6           0       -6.717858    7.106932   -0.909294
     45          1           0       -9.223816   -0.621768   -4.083878
     46          1           0       -8.037642   -5.081601    0.115752
     47          1           0       -8.018437   -0.818633    4.727252
     48          1           0       -9.107315    3.925474   -2.153639
     49          1           0       -8.931428    1.949957   -4.157097
     50          1           0      -11.051808    2.651301   -2.162609
     51          1           0      -11.029998    0.936397   -2.677286
     52          1           0      -11.238443    2.161546   -3.896360
     53          1           0       -6.733534    2.609936   -3.489990
     54          1           0       -6.408512    3.785217   -2.153745
     55          1           0       -8.191469    4.997727   -4.007898
     56          1           0       -7.180176    3.995984   -4.978284
     57          1           0       -8.580115   -2.208179   -5.313436
     58          1           0       -8.915207   -3.886575   -5.121825
     59          1           0       -7.220219   -3.390656   -5.363482
     60          1           0       -7.955530   -5.843145   -4.604485
     61          1           0       -6.726402   -7.041776   -3.910939
     62          1           0       -6.282202   -5.387300   -4.409262
     63          1           0       -7.472597   -5.127333    2.601532
     64          1           0       -8.969320   -3.318463    4.433414
     65          1           0       -9.395502   -6.272361    2.912554
     66          1           0      -10.231771   -4.997815    1.961281
     67          1           0      -10.172665   -4.879347    3.643377
     68          1           0       -6.989589   -4.716845    5.135912
     69          1           0       -6.945209   -3.043318    5.679220
     70          1           0       -5.459609   -4.472288    3.606126
     71          1           0       -4.809856   -3.338319    4.838452
     72          1           0       -5.644567   -2.747151    3.332303
     73          1           0       -7.490172    2.727153    5.462412
     74          1           0       -7.993428    1.024816    5.758807
     75          1           0       -9.233950    2.231286    5.219270
     76          1           0       -9.132030    4.527825    0.649260
     77          1           0       -7.001165    8.089392   -0.531482
     78          1           0       -6.713588    6.962281   -1.989786
     79          1           0       -5.694571    7.031581   -0.539775
     80         12           0        8.071992   -0.712830   -0.012240
     81          6           0        7.518690    2.825981    0.210767
     82          6           0        6.868484   -0.549225   -3.199620
     83          6           0        8.123246   -3.884414   -0.088507
     84          6           0        8.138114   -0.781710    3.471522
     85          7           0        7.322237    0.977549   -1.225805
     86          6           0        7.216664    2.287045   -1.057206
     87          6           0        6.838884    3.072530   -2.341671
     88          6           0        6.118635    1.884430   -3.146991
     89          6           0        6.834412    0.692123   -2.515529
     90          6           0        4.634230    1.765551   -2.844101
     91          6           0        8.099592    3.604927   -3.109234
     92          6           0        7.800910    4.638239   -4.197724
     93          1           0        8.760852    5.716877   -4.415713
     94          7           0        8.039239   -1.961057   -1.554773
     95          6           0        7.532419   -1.723887   -2.782843
     96          6           0        7.734597   -2.964039   -3.547911
     97          6           0        8.252902   -4.007306   -2.621792
     98          6           0        8.136339   -3.315560   -1.353721
     99          6           0        7.516939   -3.050027   -5.030687
    100          6           0        8.756568   -5.401943   -2.839690
    101          8           0        8.933621   -6.214044   -1.863997
    102          6           0        8.947401   -5.819311   -4.236433
    103          7           0        7.912206   -2.161622    1.470265
    104          6           0        8.019762   -3.468741    1.173953
    105          6           0        8.149200   -4.303029    2.425994
    106          6           0        8.350055   -3.257976    3.619770
    107          6           0        8.206460   -1.939340    2.828585
    108          6           0        6.964576   -5.215571    2.742738
    109          6           0        9.602697   -3.448175    4.518319
    110          6           0       10.856549   -3.166396    3.722179
    111          7           0        8.054158    0.755000    1.573082
    112          6           0        8.061793    0.508855    2.963559
    113          6           0        7.925339    1.816178    3.637884
    114          6           0        7.823847    2.737219    2.584370
    115          6           0        7.871912    2.050193    1.341314
    116          6           0        7.859801    2.023822    5.044545
    117          6           0        7.676281    4.133353    2.241275
    118          8           0        7.669412    5.187687    2.875375
    119          6           0        7.345014    4.240338    0.690409
    120          6           0        8.236936    5.296016    0.096670
    121          8           0        9.468910    5.131653    0.053909
    122          8           0        7.476545    6.221960   -0.515549
    123          6           0        8.316566    7.284564   -1.129607
    124          1           0        6.298196   -0.648214   -4.123664
    125          1           0        8.250463   -4.969016   -0.057852
    126          1           0        8.248608   -0.708603    4.555552
    127          1           0        6.145424    3.890347   -2.186566
    128          1           0        6.335700    1.939880   -4.210559
    129          1           0        4.331824    2.426418   -2.045390
    130          1           0        4.473243    0.733189   -2.562380
    131          1           0        4.049775    1.924048   -3.754933
    132          1           0        8.511314    2.795828   -3.726159
    133          1           0        8.823744    4.000868   -2.424058
    134          1           0        6.783478    5.039785   -4.116839
    135          1           0        7.813953    4.134541   -5.167323
    136          1           0        6.978299   -2.172759   -5.409729
    137          1           0        6.831163   -3.886153   -5.205250
    138          1           0        8.441964   -3.230532   -5.582437
    139          1           0        8.004540   -5.732834   -4.771217
    140          1           0        9.396144   -6.813258   -4.185715
    141          1           0        9.646335   -5.125351   -4.716556
    142          1           0        9.018114   -4.947468    2.373179
    143          1           0        7.513669   -3.288926    4.333442
    144          1           0        7.247322   -6.281073    2.836750
    145          1           0        6.218413   -5.086917    1.969938
    146          1           0        6.410814   -4.957484    3.643809
    147          1           0        9.674418   -4.485849    4.853352
    148          1           0        9.597131   -2.823122    5.405038
    149          1           0       11.038451   -4.113226    3.204955
    150          1           0       11.682082   -2.913467    4.384423
    151          1           0       10.673759   -2.402760    2.957261
    152          1           0        8.490287    2.875379    5.263267
    153          1           0        8.180058    1.139943    5.592249
    154          1           0        6.790058    2.215405    5.163787
    155          1           0        6.289051    4.497186    0.597928
    156          1           0        7.969350    8.240179   -0.724737
    157          1           0        8.229924    7.139412   -2.222851
    158          1           0        9.366468    7.310563   -0.862263
 ---------------------------------------------------------------------

 SCF Done:  E(RCAM-B3LYP) =  -4069.81167001     A.U. after   19 cycles

 Excitation energies and oscillator strengths:

 Excited State   1:      Singlet-A      1.6697 eV  742.53 nm  f=0.0150  <S**2>=0.000
     309 -> 315       -0.10449
     310 -> 316        0.13712
     311 -> 313       -0.41446
     312 -> 314        0.54710
 This state for optimization and/or second-order correction.
 Total Energy, E(TD-HF/TD-DFT) =  -4069.75030801
 Copying the excited state density for this state as the 1-particle RhoCI density.

 Excited State   2:      Singlet-A      1.6853 eV  735.69 nm  f=0.7414  <S**2>=0.000
     309 -> 315        0.14107
     310 -> 316        0.10625
     311 -> 313        0.54627
     312 -> 314        0.41392

 Excited State   3:      Singlet-A      2.1853 eV  567.35 nm  f=0.0579  <S**2>=0.000
     309 -> 313       -0.14008
     310 -> 314        0.62731
     312 -> 316       -0.26603

 Excited State   4:      Singlet-A      2.1928 eV  565.40 nm  f=0.1356  <S**2>=0.000
     309 -> 313        0.62530
     310 -> 314        0.13900
     311 -> 315       -0.27189

 Excited State   5:      Singlet-A      2.7612 eV  449.03 nm  f=0.0000  <S**2>=0.000
     312 -> 313        0.70710

 The electronic state is 1-A.
 Alpha  occ. eigenvalues --  -46.87844 -46.87586 -19.26323 -19.26266 -19.19080
 Alpha  occ. eigenvalues --  -19.19060 -19.18866 -19.18656 -19.18205 -19.17963
 Alpha  occ. eigenvalues --  -14.42499 -14.42423 -14.41495 -14.41286 -14.39451
 Alpha  occ. eigenvalues --  -14.39280 -14.38632 -14.38523 -10.39120 -10.39008
 Alpha  occ. eigenvalues --  -10.35500 -10.35335 -10.34426 -10.34140 -10.31717
 Alpha  occ. eigenvalues --  -10.31679 -10.31452 -10.31230 -10.30961 -10.30951
 Alpha  occ. eigenvalues --  -10.30615 -10.30552 -10.30323 -10.30284 -10.30254
 Alpha  occ. eigenvalues --  -10.30073 -10.29962 -10.29819 -10.29676 -10.29367
 Alpha  occ. eigenvalues --  -10.29329 -10.29302 -10.28807 -10.28642 -10.28616
 Alpha  occ. eigenvalues --  -10.28599 -10.28412 -10.28330 -10.28171 -10.28061
 Alpha  occ. eigenvalues --  -10.27926 -10.27837 -10.27776 -10.27632 -10.27597
 Alpha  occ. eigenvalues --  -10.27543 -10.27539 -10.27487 -10.27452 -10.27450
 Alpha  occ. eigenvalues --  -10.27419 -10.27407 -10.27397 -10.27309 -10.27198
 Alpha  occ. eigenvalues --  -10.26959 -10.26776 -10.26629 -10.26471 -10.26373
 Alpha  occ. eigenvalues --  -10.26283 -10.26219 -10.26079 -10.26063 -10.25927
 Alpha  occ. eigenvalues --  -10.25870 -10.25862 -10.25762 -10.25469 -10.25329
 Alpha  occ. eigenvalues --  -10.24876 -10.24833 -10.24794 -10.24724 -10.24676
 Alpha  occ. eigenvalues --  -10.24617  -3.16587  -3.16336  -1.91469  -1.91218
 Alpha  occ. eigenvalues --   -1.91056  -1.90898  -1.90807  -1.90644  -1.16672
 Alpha  occ. eigenvalues --   -1.16560  -1.08662  -1.08568  -1.07267  -1.06909
 Alpha  occ. eigenvalues --   -1.06864  -1.06682  -1.04630  -1.04420  -1.03807
 Alpha  occ. eigenvalues --   -1.03589  -1.03280  -1.02965  -1.02457  -1.02037
 Alpha  occ. eigenvalues --   -0.92017  -0.91908  -0.89561  -0.89424  -0.89243
 Alpha  occ. eigenvalues --   -0.89075  -0.88328  -0.88152  -0.87910  -0.87723
 Alpha  occ. eigenvalues --   -0.87714  -0.87612  -0.87326  -0.87059  -0.85036
 Alpha  occ. eigenvalues --   -0.84927  -0.83976  -0.83808  -0.83019  -0.82875
 Alpha  occ. eigenvalues --   -0.82700  -0.82583  -0.81629  -0.81519  -0.80643
 Alpha  occ. eigenvalues --   -0.80369  -0.78846  -0.78568  -0.77266  -0.77074
 Alpha  occ. eigenvalues --   -0.76983  -0.76825  -0.75970  -0.75761  -0.74939
 Alpha  occ. eigenvalues --   -0.74732  -0.72818  -0.72624  -0.71717  -0.71505
 Alpha  occ. eigenvalues --   -0.69947  -0.69693  -0.68925  -0.68756  -0.67687
 Alpha  occ. eigenvalues --   -0.67530  -0.67279  -0.67136  -0.65339  -0.65197
 Alpha  occ. eigenvalues --   -0.64898  -0.64696  -0.64667  -0.64580  -0.64312
 Alpha  occ. eigenvalues --   -0.64134  -0.62339  -0.62201  -0.60491  -0.60275
 Alpha  occ. eigenvalues --   -0.59856  -0.59720  -0.59032  -0.58919  -0.58548
 Alpha  occ. eigenvalues --   -0.58351  -0.57625  -0.57471  -0.57352  -0.57166
 Alpha  occ. eigenvalues --   -0.56355  -0.56132  -0.56023  -0.55811  -0.55568
 Alpha  occ. eigenvalues --   -0.55383  -0.55379  -0.55175  -0.54563  -0.54415
 Alpha  occ. eigenvalues --   -0.53950  -0.53838  -0.53346  -0.53274  -0.53158
 Alpha  occ. eigenvalues --   -0.53071  -0.52960  -0.52830  -0.52811  -0.52608
 Alpha  occ. eigenvalues --   -0.52477  -0.52338  -0.51949  -0.51800  -0.51671
 Alpha  occ. eigenvalues --   -0.51590  -0.51238  -0.51125  -0.50630  -0.50421
 Alpha  occ. eigenvalues --   -0.50075  -0.49970  -0.49911  -0.49801  -0.49566
 Alpha  occ. eigenvalues --   -0.49420  -0.49260  -0.49145  -0.49128  -0.49025
 Alpha  occ. eigenvalues --   -0.48636  -0.48506  -0.48489  -0.48481  -0.48305
 Alpha  occ. eigenvalues --   -0.48274  -0.47744  -0.47526  -0.47344  -0.47052
 Alpha  occ. eigenvalues --   -0.46842  -0.46638  -0.46610  -0.46483  -0.46403
 Alpha  occ. eigenvalues --   -0.46203  -0.46200  -0.46010  -0.45861  -0.45742
 Alpha  occ. eigenvalues --   -0.45242  -0.45139  -0.44619  -0.44559  -0.44438
 Alpha  occ. eigenvalues --   -0.44405  -0.44190  -0.44140  -0.44065  -0.44051
 Alpha  occ. eigenvalues --   -0.44012  -0.43871  -0.43536  -0.43478  -0.43435
 Alpha  occ. eigenvalues --   -0.43312  -0.43071  -0.42854  -0.42822  -0.42740
 Alpha  occ. eigenvalues --   -0.42695  -0.42488  -0.42054  -0.41896  -0.41748
 Alpha  occ. eigenvalues --   -0.41591  -0.41588  -0.41389  -0.41187  -0.40921
 Alpha  occ. eigenvalues --   -0.40913  -0.40878  -0.40661  -0.40632  -0.40614
 Alpha  occ. eigenvalues --   -0.40424  -0.40299  -0.40163  -0.39481  -0.39362
 Alpha  occ. eigenvalues --   -0.38513  -0.38282  -0.37808  -0.37587  -0.37364
 Alpha  occ. eigenvalues --   -0.37317  -0.37196  -0.37127  -0.36753  -0.36693
 Alpha  occ. eigenvalues --   -0.36236  -0.36144  -0.34332  -0.34179  -0.33812
 Alpha  occ. eigenvalues --   -0.33783  -0.33232  -0.33101  -0.31395  -0.31215
 Alpha  occ. eigenvalues --   -0.31082  -0.30899  -0.30064  -0.29867  -0.29497
 Alpha  occ. eigenvalues --   -0.29365  -0.29257  -0.29133  -0.24127  -0.23961
 Alpha  occ. eigenvalues --   -0.21174  -0.21043
 Alpha virt. eigenvalues --   -0.08821  -0.08719  -0.01797  -0.01612  -0.00108
 Alpha virt. eigenvalues --    0.00039   0.02160   0.02288   0.03065   0.03292
 Alpha virt. eigenvalues --    0.04665   0.04803   0.05058   0.05247   0.06114

 Mulliken charges:
               1
     1  Mg   0.838565
     2  C   -0.003038
     3  C   -0.094336
     4  C   -0.045838
     5  C   -0.063889
     6  N   -0.256758
     7  C   -0.052504
     8  C   -0.013976
     9  C   -0.086964
    10  C    0.046223
    11  C    0.104805
    12  C    0.053555
    13  C   -0.071654
    14  H    0.035777
    15  N   -0.433126
    16  C    0.168313
    17  C   -0.177333
    18  C   -0.004064
    19  C    0.148632
    20  C    0.110216
    21  C    0.012202
    22  O   -0.249522
    23  C    0.062550
    24  N   -0.341158
    25  C    0.041223
    26  C   -0.028188
    27  C   -0.024021
    28  C    0.074889
    29  C    0.076132
    30  C    0.035090
    31  C   -0.004511
    32  N   -0.310515
    33  C    0.080464
    34  C   -0.169524
    35  C    0.008475
    36  C    0.082984
    37  C    0.127264
    38  C    0.046263
    39  O   -0.188053
    40  C   -0.005367
    41  C    0.212958
    42  O   -0.257163
    43  O   -0.304781
    44  C    0.157623
    45  H   -0.017672
    46  H   -0.016782
    47  H   -0.041304
    48  H    0.001065
    49  H   -0.004249
    50  H    0.025574
    51  H    0.016523
    52  H    0.016641
    53  H    0.010838
    54  H    0.044070
    55  H    0.018108
    56  H    0.017706
    57  H    0.005766
    58  H    0.026887
    59  H    0.039109
    60  H    0.037382
    61  H    0.035687
    62  H    0.031115
    63  H    0.016571
    64  H    0.009582
    65  H    0.023279
    66  H    0.012551
    67  H    0.004845
    68  H    0.006459
    69  H    0.004865
    70  H    0.008766
    71  H    0.018215
    72  H    0.028872
    73  H    0.047873
    74  H    0.009215
    75  H    0.046124
    76  H    0.035237
    77  H    0.043214
    78  H    0.046163
    79  H    0.053785
    80  Mg   0.837931
    81  C   -0.016765
    82  C   -0.087835
    83  C   -0.045533
    84  C   -0.064775
    85  N   -0.254559
    86  C   -0.049600
    87  C   -0.015151
    88  C   -0.090573
    89  C    0.045844
    90  C    0.114377
    91  C    0.062567
    92  C   -0.077741
    93  H    0.034653
    94  N   -0.423474
    95  C    0.162879
    96  C   -0.174764
    97  C   -0.007913
    98  C    0.152095
    99  C    0.099458
   100  C    0.015460
   101  O   -0.253296
   102  C    0.061254
   103  N   -0.350017
   104  C    0.037530
   105  C   -0.019828
   106  C   -0.034845
   107  C    0.088991
   108  C    0.073656
   109  C    0.034743
   110  C   -0.007644
   111  N   -0.324177
   112  C    0.078566
   113  C   -0.162973
   114  C    0.002508
   115  C    0.096191
   116  C    0.131420
   117  C    0.042648
   118  O   -0.187508
   119  C    0.000807
   120  C    0.211206
   121  O   -0.251231
   122  O   -0.305405
   123  C    0.152093
   124  H   -0.019952
   125  H   -0.015697
   126  H   -0.040425
   127  H   -0.000276
   128  H   -0.004719
   129  H    0.023364
   130  H    0.014516
   131  H    0.015921
   132  H    0.013742
   133  H    0.037650
   134  H    0.020909
   135  H    0.019304
   136  H    0.008522
   137  H    0.025854
   138  H    0.039534
   139  H    0.038092
   140  H    0.036215
   141  H    0.033779
   142  H    0.014244
   143  H    0.012527
   144  H    0.024965
   145  H    0.011800
   146  H    0.005714
   147  H    0.006148
   148  H    0.003658
   149  H    0.010844
   150  H    0.017824
   151  H    0.030142
   152  H    0.045972
   153  H    0.008366
   154  H    0.047594
   155  H    0.035832
   156  H    0.044045
   157  H    0.049304
   158  H    0.053417
 Sum of Mulliken charges =  -0.00000

 Dipole moment (field-independent basis, Debye):
    X=             -4.3004    Y=             -2.6387    Z=             -7.3907  Tot=              8.9487
 Quadrupole moment (field-independent basis, Debye-Ang):
   XX=           -519.2214   YY=           -553.2213   ZZ=           -447.1131
   XY=             -6.5195   XZ=              8.1287   YZ=            -47.1930

 Normal termination of Gaussian 16 at Sun Sep 12 05:55:03 2021.
