 Gaussian 16, Revision A.03,
 Gaussian 16:  ES64L-G16RevA.03 25-Dec-2016

 -----------------------------------
 #p cam-b3lyp/Def2SVP td=(nstates=5)
 -----------------------------------

 --------------------------------
 TDDFT excited states in gaussian
 --------------------------------
 Symbolic Z-matrix:
 Charge =  0 Multiplicity = 1

                         Standard orientation:
 ---------------------------------------------------------------------
 Center     Atomic      Atomic             Coordinates (Angstroms)
 Number     Number       Type             X           Y           Z
 ---------------------------------------------------------------------
      1         12           0       -7.860123   -0.731516    0.112391
      2          6           0       -8.039588    2.836833    0.328933
      3          6           0       -8.747823   -0.428321   -3.168329
      4          6           0       -8.151461   -3.887732    0.012157
      5          6           0       -8.106565   -0.807323    3.587903
      6          7           0       -8.307882    1.034232   -1.145501
      7          6           0       -8.282589    2.349958   -0.957360
      8          6           0       -8.463997    3.165688   -2.272293
      9          6           0       -9.227507    2.070913   -3.144371
     10          6           0       -8.703832    0.815001   -2.470299
     11          6           0      -10.744047    2.116509   -2.987753
     12          6           0       -7.094550    3.561157   -2.920327
     13          6           0       -7.174316    4.626779   -4.017341
     14          1           0       -6.093155    5.593594   -4.134420
     15          7           0       -7.894383   -1.966672   -1.429059
     16          6           0       -8.267441   -1.669267   -2.696995
     17          6           0       -8.118961   -2.921221   -3.469812
     18          6           0       -7.811080   -4.015861   -2.508008
     19          6           0       -7.967880   -3.329963   -1.250894
     20          6           0       -8.220366   -2.983391   -4.962997
     21          6           0       -7.445449   -5.454772   -2.692347
     22          8           0       -7.446940   -6.286692   -1.721532
     23          6           0       -7.167607   -5.890308   -4.072983
     24          7           0       -8.315832   -2.162286    1.562516
     25          6           0       -8.319808   -3.466857    1.267454
     26          6           0       -8.391126   -4.307029    2.508004
     27          6           0       -8.189484   -3.303619    3.733672
     28          6           0       -8.114754   -1.975169    2.941267
     29          6           0       -9.690663   -5.099561    2.705757
     30          6           0       -7.050764   -3.632293    4.731524
     31          6           0       -5.709937   -3.475879    4.049749
     32          7           0       -7.863911    0.732428    1.714857
     33          6           0       -8.000091    0.479593    3.087520
     34          6           0       -8.053230    1.788312    3.764646
     35          6           0       -7.960335    2.717746    2.730544
     36          6           0       -7.882215    2.033237    1.484094
     37          6           0       -8.231144    1.997691    5.160691
     38          6           0       -7.933701    4.130152    2.386657
     39          8           0       -7.875019    5.178526    3.030831
     40          6           0       -8.106669    4.265180    0.809420
     41          6           0       -7.055832    5.222697    0.317270
     42          8           0       -5.844962    4.925080    0.368102
     43          8           0       -7.646356    6.227284   -0.348033
     44          6           0       -6.657287    7.197814   -0.888374
     45          1           0       -9.247108   -0.471713   -4.138263
     46          1           0       -8.146054   -4.979503    0.033250
     47          1           0       -8.097729   -0.753080    4.678055
     48          1           0       -9.081497    4.058446   -2.171784
     49          1           0       -8.919932    2.096349   -4.189585
     50          1           0      -11.042760    2.810580   -2.202286
     51          1           0      -11.040766    1.099581   -2.730250
     52          1           0      -11.225445    2.336837   -3.940900
     53          1           0       -6.717483    2.721590   -3.504287
     54          1           0       -6.384859    3.882003   -2.156964
     55          1           0       -8.140213    5.132670   -4.012110
     56          1           0       -7.136556    4.125010   -4.984296
     57          1           0       -8.617254   -2.057030   -5.376374
     58          1           0       -8.975904   -3.732216   -5.199918
     59          1           0       -7.273009   -3.257219   -5.427611
     60          1           0       -8.045612   -5.705438   -4.692240
     61          1           0       -6.836829   -6.925793   -4.000825
     62          1           0       -6.367550   -5.273608   -4.483518
     63          1           0       -7.596701   -5.052094    2.521907
     64          1           0       -9.080151   -3.237575    4.358991
     65          1           0       -9.536585   -6.173603    2.812521
     66          1           0      -10.349978   -4.880611    1.866319
     67          1           0      -10.299459   -4.776000    3.549613
     68          1           0       -7.123570   -4.667796    5.062250
     69          1           0       -7.060108   -2.999280    5.618913
     70          1           0       -5.581243   -4.431924    3.543539
     71          1           0       -4.923848   -3.316368    4.788552
     72          1           0       -5.741466   -2.702388    3.282153
     73          1           0       -7.526564    2.779490    5.444108
     74          1           0       -8.054313    1.081809    5.724158
     75          1           0       -9.275313    2.308961    5.186737
     76          1           0       -9.115093    4.639311    0.635555
     77          1           0       -6.929713    8.181027   -0.504562
     78          1           0       -6.648422    7.061506   -1.969922
     79          1           0       -5.637350    7.105880   -0.513387
     80         12           0        8.021940   -0.827026    0.035725
     81          6           0        7.838887    2.750556    0.251269
     82          6           0        7.132322   -0.525714   -3.243358
     83          6           0        7.734771   -3.985032   -0.073641
     84          6           0        7.769352   -0.910505    3.510626
     85          7           0        7.571551    0.937894   -1.219050
     86          6           0        7.594322    2.250700   -1.044790
     87          6           0        7.420174    3.075647   -2.348131
     88          6           0        6.649744    1.975210   -3.228101
     89          6           0        7.172522    0.710391   -2.550156
     90          6           0        5.140153    2.018644   -3.059019
     91          6           0        8.794666    3.468748   -2.994859
     92          6           0        8.708288    4.530950   -4.093048
     93          1           0        9.795372    5.498662   -4.212436
     94          7           0        7.991360   -2.060745   -1.518486
     95          6           0        7.624838   -1.766843   -2.783619
     96          6           0        7.758421   -3.019950   -3.542593
     97          6           0        8.075620   -4.115688   -2.586844
     98          6           0        7.922355   -3.418184   -1.325858
     99          6           0        7.665763   -3.078315   -5.039734
    100          6           0        8.442128   -5.556548   -2.776044
    101          8           0        8.442176   -6.385311   -1.798302
    102          6           0        8.710219   -5.989152   -4.155345
    103          7           0        7.574115   -2.252979    1.480874
    104          6           0        7.564948   -3.563356    1.179620
    105          6           0        7.490802   -4.409591    2.428131
    106          6           0        7.696829   -3.395432    3.647399
    107          6           0        7.768510   -2.067236    2.862445
    108          6           0        6.190523   -5.187864    2.628012
    109          6           0        8.836255   -3.723436    4.650790
    110          6           0       10.179257   -3.578644    3.971991
    111          7           0        8.022495    0.630403    1.630703
    112          6           0        7.879343    0.381791    3.013375
    113          6           0        7.826222    1.694689    3.688583
    114          6           0        7.919758    2.623654    2.641318
    115          6           0        8.003499    1.938276    1.399246
    116          6           0        7.658501    1.905106    5.086336
    117          6           0        7.955996    4.028323    2.303247
    118          8           0        8.007260    5.075664    2.946818
    119          6           0        7.777900    4.174347    0.730558
    120          6           0        8.828641    5.127516    0.230631
    121          8           0       10.034330    4.829547    0.294946
    122          8           0        8.231023    6.132407   -0.435266
    123          6           0        9.232935    7.098175   -0.959942
    124          1           0        6.639318   -0.559692   -4.215304
    125          1           0        7.740109   -5.077104   -0.044839
    126          1           0        7.790052   -0.852344    4.600976
    127          1           0        6.808658    3.964026   -2.245145
    128          1           0        6.965487    2.008975   -4.267586
    129          1           0        4.841379    2.706829   -2.282311
    130          1           0        4.843441    1.009446   -2.804994
    131          1           0        4.659926    2.242123   -4.015978
    132          1           0        9.169356    2.620871   -3.582613
    133          1           0        9.493572    3.781620   -2.243681
    134          1           0        7.737390    5.041130   -4.097592
    135          1           0        8.752895    4.031012   -5.063661
    136          1           0        7.261613   -2.146574   -5.454371
    137          1           0        6.911486   -3.834071   -5.284202
    138          1           0        8.611168   -3.357627   -5.509692
    139          1           0        7.833795   -5.798918   -4.770287
    140          1           0        9.041957   -7.026311   -4.077060
    141          1           0        9.520445   -5.374689   -4.563492
    142          1           0        8.285752   -5.145040    2.444602
    143          1           0        6.801753   -3.336353    4.283939
    144          1           0        6.346265   -6.278097    2.733895
    145          1           0        5.534648   -4.976679    1.793886
    146          1           0        5.589979   -4.872795    3.479645
    147          1           0        8.764613   -4.763476    4.978417
    148          1           0        8.819632   -3.103505    5.540960
    149          1           0       10.302549   -4.538526    3.461586
    150          1           0       10.965038   -3.418958    4.707577
    151          1           0       10.149473   -2.797892    3.203102
    152          1           0        8.355782    2.682141    5.370088
    153          1           0        7.830675    0.990300    5.649591
    154          1           0        6.609575    2.212219    5.112857
    155          1           0        6.768585    4.545301    0.548208
    156          1           0        8.956940    8.085115   -0.575935
    157          1           0        9.228841    6.965804   -2.058218
    158          1           0       10.251404    7.008639   -0.600561
 ---------------------------------------------------------------------

 SCF Done:  E(RCAM-B3LYP) =  -4069.81167541     A.U. after   19 cycles

 Excitation energies and oscillator strengths:

 Excited State   1:      Singlet-A      1.6698 eV  742.51 nm  f=0.0154  <S**2>=0.000
     309 -> 315       -0.10423
     310 -> 316        0.13735
     311 -> 313       -0.41340
     312 -> 314        0.54790
 This state for optimization and/or second-order correction.
 Total Energy, E(TD-HF/TD-DFT) =  -4069.75031146
 Copying the excited state density for this state as the 1-particle RhoCI density.

 Excited State   2:      Singlet-A      1.6853 eV  735.69 nm  f=0.7413  <S**2>=0.000
     309 -> 315        0.14127
     310 -> 316        0.10599
     311 -> 313        0.54707
     312 -> 314        0.41286

 Excited State   3:      Singlet-A      2.1854 eV  567.34 nm  f=0.0570  <S**2>=0.000
     309 -> 313       -0.14139
     310 -> 314        0.62702
     312 -> 316       -0.26594

 Excited State   4:      Singlet-A      2.1929 eV  565.40 nm  f=0.1362  <S**2>=0.000
     309 -> 313        0.62501
     310 -> 314        0.14030
     311 -> 315       -0.27177

 Excited State   5:      Singlet-A      2.7650 eV  448.41 nm  f=0.0000  <S**2>=0.000
     312 -> 313        0.70710

 The electronic state is 1-A.
 Alpha  occ. eigenvalues --  -46.87835 -46.87588 -19.26314 -19.26273 -19.19086
 Alpha  occ. eigenvalues --  -19.19051 -19.18855 -19.18657 -19.18197 -19.17967
 Alpha  occ. eigenvalues --  -14.42489 -14.42425 -14.41486 -14.41286 -14.39441
 Alpha  occ. eigenvalues --  -14.39281 -14.38623 -14.38525 -10.39111 -10.39014
 Alpha  occ. eigenvalues --  -10.35489 -10.35336 -10.34417 -10.34144 -10.31708
 Alpha  occ. eigenvalues --  -10.31686 -10.31443 -10.31233 -10.30954 -10.30951
 Alpha  occ. eigenvalues --  -10.30606 -10.30542 -10.30324 -10.30286 -10.30244
 Alpha  occ. eigenvalues --  -10.30073 -10.29954 -10.29819 -10.29667 -10.29368
 Alpha  occ. eigenvalues --  -10.29330 -10.29292 -10.28796 -10.28648 -10.28603
 Alpha  occ. eigenvalues --  -10.28603 -10.28402 -10.28332 -10.28161 -10.28067
 Alpha  occ. eigenvalues --  -10.27927 -10.27828 -10.27766 -10.27622 -10.27599
 Alpha  occ. eigenvalues --  -10.27532 -10.27531 -10.27480 -10.27451 -10.27441
 Alpha  occ. eigenvalues --  -10.27420 -10.27410 -10.27398 -10.27307 -10.27190
 Alpha  occ. eigenvalues --  -10.26965 -10.26763 -10.26633 -10.26458 -10.26373
 Alpha  occ. eigenvalues --  -10.26274 -10.26213 -10.26078 -10.26055 -10.25937
 Alpha  occ. eigenvalues --  -10.25864 -10.25862 -10.25760 -10.25462 -10.25326
 Alpha  occ. eigenvalues --  -10.24867 -10.24823 -10.24796 -10.24719 -10.24675
 Alpha  occ. eigenvalues --  -10.24618  -3.16578  -3.16338  -1.91459  -1.91220
 Alpha  occ. eigenvalues --   -1.91046  -1.90888  -1.90808  -1.90645  -1.16663
 Alpha  occ. eigenvalues --   -1.16567  -1.08654  -1.08573  -1.07256  -1.06910
 Alpha  occ. eigenvalues --   -1.06870  -1.06673  -1.04620  -1.04422  -1.03797
 Alpha  occ. eigenvalues --   -1.03591  -1.03270  -1.02966  -1.02448  -1.02038
 Alpha  occ. eigenvalues --   -0.92007  -0.91910  -0.89553  -0.89425  -0.89233
 Alpha  occ. eigenvalues --   -0.89079  -0.88320  -0.88152  -0.87902  -0.87714
 Alpha  occ. eigenvalues --   -0.87713  -0.87613  -0.87315  -0.87060  -0.85026
 Alpha  occ. eigenvalues --   -0.84931  -0.83968  -0.83808  -0.83008  -0.82875
 Alpha  occ. eigenvalues --   -0.82690  -0.82586  -0.81620  -0.81523  -0.80633
 Alpha  occ. eigenvalues --   -0.80372  -0.78836  -0.78569  -0.77257  -0.77076
 Alpha  occ. eigenvalues --   -0.76973  -0.76828  -0.75961  -0.75765  -0.74931
 Alpha  occ. eigenvalues --   -0.74732  -0.72809  -0.72626  -0.71708  -0.71507
 Alpha  occ. eigenvalues --   -0.69940  -0.69693  -0.68915  -0.68759  -0.67678
 Alpha  occ. eigenvalues --   -0.67531  -0.67268  -0.67139  -0.65328  -0.65201
 Alpha  occ. eigenvalues --   -0.64889  -0.64698  -0.64658  -0.64583  -0.64303
 Alpha  occ. eigenvalues --   -0.64135  -0.62330  -0.62205  -0.60481  -0.60276
 Alpha  occ. eigenvalues --   -0.59846  -0.59724  -0.59023  -0.58920  -0.58539
 Alpha  occ. eigenvalues --   -0.58353  -0.57616  -0.57475  -0.57343  -0.57167
 Alpha  occ. eigenvalues --   -0.56346  -0.56133  -0.56014  -0.55816  -0.55558
 Alpha  occ. eigenvalues --   -0.55386  -0.55371  -0.55176  -0.54555  -0.54417
 Alpha  occ. eigenvalues --   -0.53940  -0.53842  -0.53336  -0.53263  -0.53159
 Alpha  occ. eigenvalues --   -0.53074  -0.52950  -0.52833  -0.52800  -0.52610
 Alpha  occ. eigenvalues --   -0.52470  -0.52338  -0.51942  -0.51800  -0.51661
 Alpha  occ. eigenvalues --   -0.51594  -0.51230  -0.51128  -0.50618  -0.50422
 Alpha  occ. eigenvalues --   -0.50067  -0.49959  -0.49913  -0.49801  -0.49556
 Alpha  occ. eigenvalues --   -0.49423  -0.49250  -0.49136  -0.49131  -0.49029
 Alpha  occ. eigenvalues --   -0.48627  -0.48496  -0.48485  -0.48480  -0.48305
 Alpha  occ. eigenvalues --   -0.48276  -0.47734  -0.47528  -0.47334  -0.47053
 Alpha  occ. eigenvalues --   -0.46834  -0.46639  -0.46600  -0.46487  -0.46394
 Alpha  occ. eigenvalues --   -0.46201  -0.46195  -0.46011  -0.45853  -0.45745
 Alpha  occ. eigenvalues --   -0.45234  -0.45139  -0.44610  -0.44549  -0.44441
 Alpha  occ. eigenvalues --   -0.44408  -0.44181  -0.44130  -0.44055  -0.44055
 Alpha  occ. eigenvalues --   -0.44013  -0.43873  -0.43527  -0.43481  -0.43425
 Alpha  occ. eigenvalues --   -0.43314  -0.43062  -0.42858  -0.42825  -0.42731
 Alpha  occ. eigenvalues --   -0.42687  -0.42488  -0.42045  -0.41898  -0.41739
 Alpha  occ. eigenvalues --   -0.41593  -0.41578  -0.41392  -0.41178  -0.40916
 Alpha  occ. eigenvalues --   -0.40911  -0.40866  -0.40663  -0.40634  -0.40606
 Alpha  occ. eigenvalues --   -0.40424  -0.40287  -0.40166  -0.39474  -0.39362
 Alpha  occ. eigenvalues --   -0.38505  -0.38282  -0.37797  -0.37590  -0.37356
 Alpha  occ. eigenvalues --   -0.37307  -0.37197  -0.37130  -0.36745  -0.36698
 Alpha  occ. eigenvalues --   -0.36227  -0.36146  -0.34323  -0.34180  -0.33802
 Alpha  occ. eigenvalues --   -0.33788  -0.33222  -0.33103  -0.31384  -0.31215
 Alpha  occ. eigenvalues --   -0.31072  -0.30901  -0.30056  -0.29871  -0.29487
 Alpha  occ. eigenvalues --   -0.29356  -0.29259  -0.29135  -0.24117  -0.23962
 Alpha  occ. eigenvalues --   -0.21165  -0.21045
 Alpha virt. eigenvalues --   -0.08811  -0.08720  -0.01787  -0.01613  -0.00097
 Alpha virt. eigenvalues --    0.00037   0.02169   0.02286   0.03077   0.03293
 Alpha virt. eigenvalues --    0.04676   0.04801   0.05067   0.05242   0.06126

 Mulliken charges:
               1
     1  Mg   0.838625
     2  C   -0.003022
     3  C   -0.094306
     4  C   -0.045838
     5  C   -0.063909
     6  N   -0.256762
     7  C   -0.052500
     8  C   -0.013986
     9  C   -0.086971
    10  C    0.046247
    11  C    0.104808
    12  C    0.053545
    13  C   -0.071663
    14  H    0.035822
    15  N   -0.433134
    16  C    0.168337
    17  C   -0.177301
    18  C   -0.004043
    19  C    0.148657
    20  C    0.110212
    21  C    0.012234
    22  O   -0.249523
    23  C    0.062529
    24  N   -0.341157
    25  C    0.041221
    26  C   -0.028184
    27  C   -0.024015
    28  C    0.074880
    29  C    0.076136
    30  C    0.035102
    31  C   -0.004505
    32  N   -0.310508
    33  C    0.080451
    34  C   -0.169563
    35  C    0.008459
    36  C    0.082986
    37  C    0.127272
    38  C    0.046242
    39  O   -0.188106
    40  C   -0.005360
    41  C    0.212939
    42  O   -0.257137
    43  O   -0.304788
    44  C    0.157631
    45  H   -0.017672
    46  H   -0.016784
    47  H   -0.041348
    48  H    0.001043
    49  H   -0.004228
    50  H    0.025561
    51  H    0.016510
    52  H    0.016633
    53  H    0.010898
    54  H    0.044098
    55  H    0.018065
    56  H    0.017722
    57  H    0.005768
    58  H    0.026874
    59  H    0.039183
    60  H    0.037357
    61  H    0.035709
    62  H    0.031193
    63  H    0.016574
    64  H    0.009561
    65  H    0.023274
    66  H    0.012553
    67  H    0.004826
    68  H    0.006437
    69  H    0.004826
    70  H    0.008786
    71  H    0.018133
    72  H    0.028912
    73  H    0.047824
    74  H    0.009181
    75  H    0.046107
    76  H    0.035220
    77  H    0.043178
    78  H    0.046184
    79  H    0.053789
    80  Mg   0.837990
    81  C   -0.016775
    82  C   -0.087823
    83  C   -0.045520
    84  C   -0.064739
    85  N   -0.254555
    86  C   -0.049623
    87  C   -0.015127
    88  C   -0.090570
    89  C    0.045830
    90  C    0.114380
    91  C    0.062565
    92  C   -0.077755
    93  H    0.034684
    94  N   -0.423472
    95  C    0.162883
    96  C   -0.174786
    97  C   -0.007916
    98  C    0.152082
    99  C    0.099463
   100  C    0.015466
   101  O   -0.253278
   102  C    0.061253
   103  N   -0.350045
   104  C    0.037548
   105  C   -0.019837
   106  C   -0.034851
   107  C    0.089017
   108  C    0.073635
   109  C    0.034731
   110  C   -0.007642
   111  N   -0.324182
   112  C    0.078573
   113  C   -0.162926
   114  C    0.002481
   115  C    0.096196
   116  C    0.131421
   117  C    0.042653
   118  O   -0.187546
   119  C    0.000830
   120  C    0.211197
   121  O   -0.251201
   122  O   -0.305457
   123  C    0.152094
   124  H   -0.019958
   125  H   -0.015678
   126  H   -0.040389
   127  H   -0.000388
   128  H   -0.004684
   129  H    0.023207
   130  H    0.014558
   131  H    0.015890
   132  H    0.013771
   133  H    0.037657
   134  H    0.020853
   135  H    0.019347
   136  H    0.008532
   137  H    0.025840
   138  H    0.039546
   139  H    0.038082
   140  H    0.036224
   141  H    0.033788
   142  H    0.014242
   143  H    0.012577
   144  H    0.024972
   145  H    0.011825
   146  H    0.005764
   147  H    0.006157
   148  H    0.003669
   149  H    0.010846
   150  H    0.017824
   151  H    0.030125
   152  H    0.045957
   153  H    0.008384
   154  H    0.047661
   155  H    0.035692
   156  H    0.044003
   157  H    0.049316
   158  H    0.053445
 Sum of Mulliken charges =  -0.00000

 Dipole moment (field-independent basis, Debye):
    X=             -4.0927    Y=             -2.3383    Z=             -7.6194  Tot=              8.9595
 Quadrupole moment (field-independent basis, Debye-Ang):
   XX=           -517.5056   YY=           -551.7400   ZZ=           -447.3070
   XY=             -4.8950   XZ=              0.5608   YZ=            -48.6056

 Normal termination of Gaussian 16 at Sun Sep 12 06:18:28 2021.
