 Gaussian 16, Revision A.03,
 Gaussian 16:  ES64L-G16RevA.03 25-Dec-2016

 -----------------------------------
 #p cam-b3lyp/Def2SVP td=(nstates=5)
 -----------------------------------

 --------------------------------
 TDDFT excited states in gaussian
 --------------------------------
 Symbolic Z-matrix:
 Charge =  0 Multiplicity = 1

                         Standard orientation:
 ---------------------------------------------------------------------
 Center     Atomic      Atomic             Coordinates (Angstroms)
 Number     Number       Type             X           Y           Z
 ---------------------------------------------------------------------
      1         12           0       -3.636995    0.811955    0.417420
      2          6           0       -4.038472   -2.411489    1.920895
      3          6           0       -4.118975    2.153325    3.517660
      4          6           0       -3.739197    3.669469   -0.953999
      5          6           0       -4.315453   -0.697384   -2.649704
      6          7           0       -4.018957   -0.115011    2.391119
      7          6           0       -4.090060   -1.363351    2.842518
      8          6           0       -4.148722   -1.455943    4.396661
      9          6           0       -4.734670   -0.007334    4.713200
     10          6           0       -4.231910    0.731619    3.485558
     11          6           0       -6.259044    0.043596    4.727136
     12          6           0       -2.732311   -1.652908    5.034402
     13          6           0       -2.731548   -2.077032    6.505956
     14          1           0       -1.699120   -2.991019    6.970788
     15          7           0       -3.408449    2.614342    1.193319
     16          6           0       -3.634338    2.977246    2.478839
     17          6           0       -3.320852    4.420314    2.556062
     18          6           0       -3.077014    4.907780    1.170056
     19          6           0       -3.428692    3.740855    0.401949
     20          6           0       -3.229462    5.174537    3.847009
     21          6           0       -2.612408    6.220769    0.623856
     22          8           0       -2.690593    6.505997   -0.619971
     23          6           0       -2.139033    7.211105    1.607825
     24          7           0       -4.192591    1.452527   -1.490095
     25          6           0       -4.087496    2.738052   -1.844166
     26          6           0       -4.268424    2.913686   -3.322799
     27          6           0       -4.278581    1.443005   -3.944690
     28          6           0       -4.177695    0.630289   -2.630314
     29          6           0       -5.536921    3.660483   -3.757793
     30          6           0       -3.258520    1.149735   -5.073356
     31          6           0       -1.853042    1.181964   -4.515958
     32          7           0       -3.923517   -1.215982   -0.301203
     33          6           0       -4.217685   -1.611596   -1.614073
     34          6           0       -4.427788   -3.070802   -1.588728
     35          6           0       -4.256451   -3.422579   -0.251289
     36          6           0       -3.984124   -2.253322    0.514851
     37          6           0       -4.791683   -3.879811   -2.701166
     38          6           0       -4.264417   -4.510885    0.712755
     39          8           0       -4.345275   -5.737633    0.635008
     40          6           0       -4.244156   -3.883885    2.176411
     41          6           0       -3.193925   -4.613461    2.968903
     42          8           0       -1.984617   -4.505161    2.680442
     43          8           0       -3.750172   -5.127898    4.076371
     44          6           0       -2.755757   -5.840063    4.922607
     45          1           0       -4.488734    2.692571    4.391979
     46          1           0       -3.676413    4.620766   -1.486474
     47          1           0       -4.447239   -1.248808   -3.582451
     48          1           0       -4.822161   -2.222114    4.781220
     49          1           0       -4.299539    0.419116    5.616817
     50          1           0       -6.692222   -0.897756    4.389299
     51          1           0       -6.529458    0.852494    4.048127
     52          1           0       -6.627719    0.340896    5.709209
     53          1           0       -2.238941   -0.684764    5.120101
     54          1           0       -2.143355   -2.363932    4.453969
     55          1           0       -3.716753   -2.421008    6.822124
     56          1           0       -2.544522   -1.193264    7.116018
     57          1           0       -3.621399    4.591978    4.679809
     58          1           0       -3.906699    6.024695    3.767703
     59          1           0       -2.217430    5.527946    4.045060
     60          1           0       -2.940717    7.428380    2.313972
     61          1           0       -1.763517    8.054241    1.029069
     62          1           0       -1.328735    6.771083    2.189844
     63          1           0       -3.442309    3.477962   -3.753557
     64          1           0       -5.243306    1.192398   -4.386478
     65          1           0       -5.338667    4.540651   -4.369925
     66          1           0       -6.096091    3.925723   -2.860983
     67          1           0       -6.264206    3.051934   -4.294581
     68          1           0       -3.315371    1.917116   -5.844615
     69          1           0       -3.414584    0.184001   -5.554243
     70          1           0       -1.609080    2.243593   -4.532030
     71          1           0       -1.176437    0.616139   -5.157251
     72          1           0       -1.829988    0.858045   -3.475270
     73          1           0       -4.172601   -4.774966   -2.642820
     74          1           0       -4.637223   -3.351995   -3.641994
     75          1           0       -5.846329   -4.053538   -2.488103
     76          1           0       -5.241633   -4.024644    2.591560
     77          1           0       -3.128133   -6.853702    5.071287
     78          1           0       -2.603006   -5.222231    5.807681
     79          1           0       -1.787786   -6.041838    4.462545
     80         12           0        4.222518    0.020700   -0.253403
     81          6           0        2.155169   -1.395378   -2.822407
     82          6           0        3.352161    3.092431   -1.454056
     83          6           0        6.378373    1.285617    1.701007
     84          6           0        5.792933   -3.080246   -0.001152
     85          7           0        2.914705    0.639201   -1.926510
     86          6           0        2.132980    0.014640   -2.794372
     87          6           0        1.219168    0.952595   -3.627891
     88          6           0        2.091129    2.296743   -3.519101
     89          6           0        2.808961    2.016372   -2.200469
     90          6           0        3.136862    2.425999   -4.614116
     91          6           0       -0.199156    1.134130   -2.981815
     92          6           0       -1.242683    1.783690   -3.893349
     93          1           0       -2.629575    1.337972   -3.791738
     94          7           0        4.423587    1.882030    0.405090
     95          6           0        3.990452    3.009453   -0.197062
     96          6           0        4.402916    4.117218    0.678658
     97          6           0        5.258380    3.564028    1.763498
     98          6           0        5.406945    2.195630    1.310182
     99          6           0        3.920752    5.526278    0.490268
    100          6           0        5.855817    4.170026    2.997208
    101          8           0        6.761886    3.565915    3.673167
    102          6           0        5.416367    5.531011    3.337913
    103          7           0        5.988443   -0.712901    0.562502
    104          6           0        6.710246    0.024336    1.424702
    105          6           0        7.782048   -0.806752    2.088731
    106          6           0        7.473363   -2.319276    1.670944
    107          6           0        6.276905   -2.081046    0.723776
    108          6           0        9.222132   -0.458897    1.712513
    109          6           0        7.310632   -3.348397    2.822940
    110          6           0        6.058657   -3.044163    3.613748
    111          7           0        3.915174   -1.950462   -1.082907
    112          6           0        4.705375   -3.100321   -0.864990
    113          6           0        4.168697   -4.168346   -1.733152
    114          6           0        3.109503   -3.554318   -2.418390
    115          6           0        3.006990   -2.193699   -2.021264
    116          6           0        4.689488   -5.488181   -1.846986
    117          6           0        2.061558   -3.744876   -3.395223
    118          8           0        1.611652   -4.711483   -4.009230
    119          6           0        1.477224   -2.321443   -3.793714
    120          6           0       -0.023871   -2.406577   -3.749369
    121          8           0       -0.614423   -2.599903   -2.672109
    122          8           0       -0.521914   -2.031213   -4.941603
    123          6           0       -2.008032   -2.088432   -4.943653
    124          1           0        3.325594    4.091622   -1.889713
    125          1           0        7.079899    1.641321    2.459175
    126          1           0        6.165371   -4.102662    0.091709
    127          1           0        1.102874    0.667897   -4.666739
    128          1           0        1.455435    3.173663   -3.428226
    129          1           0        3.200504    1.532931   -5.217880
    130          1           0        4.074776    2.606371   -4.105368
    131          1           0        2.944002    3.318614   -5.216089
    132          1           0       -0.138669    1.895237   -2.193271
    133          1           0       -0.572937    0.198327   -2.614130
    134          1           0       -0.920505    1.801322   -4.941596
    135          1           0       -1.331534    2.838568   -3.622484
    136          1           0        3.437569    5.659000   -0.485606
    137          1           0        4.809586    6.164671    0.442327
    138          1           0        3.284723    5.866976    1.310051
    139          1           0        5.641853    6.200816    2.511485
    140          1           0        5.884322    5.757470    4.297922
    141          1           0        4.326661    5.528383    3.452561
    142          1           0        7.725089   -0.721393    3.166958
    143          1           0        8.280394   -2.745150    1.056798
    144          1           0        9.852005   -0.204194    2.585702
    145          1           0        9.202007    0.360427    1.006237
    146          1           0        9.753376   -1.229823    1.156938
    147          1           0        8.146466   -3.269172    3.522411
    148          1           0        7.273334   -4.377294    2.480916
    149          1           0        6.388157   -2.264722    4.307286
    150          1           0        5.718165   -3.929166    4.147477
    151          1           0        5.284009   -2.608462    2.972086
    152          1           0        3.840427   -6.158698   -1.850340
    153          1           0        5.374449   -5.716874   -1.033170
    154          1           0        5.204832   -5.412267   -2.808196
    155          1           0        1.844502   -2.084620   -4.793006
    156          1           0       -2.301846   -2.731417   -5.779075
    157          1           0       -2.347475   -1.036014   -4.974405
    158          1           0       -2.491516   -2.587821   -4.112198
 ---------------------------------------------------------------------

 SCF Done:  E(RCAM-B3LYP) =  -4068.61841014     A.U. after   24 cycles

 Excitation energies and oscillator strengths:

 Excited State   1:      Singlet-A      0.6136 eV 2020.59 nm  f=0.0563  <S**2>=0.000
     312 -> 313       -0.20920
     312 -> 314        0.68571
     312 <- 314       -0.14629
 This state for optimization and/or second-order correction.
 Total Energy, E(TD-HF/TD-DFT) =  -4068.59586058
 Copying the excited state density for this state as the 1-particle RhoCI density.

 Excited State   2:      Singlet-A      0.6431 eV 1927.95 nm  f=0.0063  <S**2>=0.000
     312 -> 313        0.67311
     312 -> 314        0.21247

 Excited State   3:      Singlet-A      1.6643 eV  744.97 nm  f=0.1022  <S**2>=0.000
     308 -> 315       -0.15504
     310 -> 313        0.62504
     311 -> 314       -0.27673

 Excited State   4:      Singlet-A      1.7566 eV  705.83 nm  f=0.5154  <S**2>=0.000
     309 -> 316        0.14478
     310 -> 313        0.27268
     311 -> 314        0.61498
     312 -> 316        0.10046

 Excited State   5:      Singlet-A      1.8895 eV  656.19 nm  f=0.0047  <S**2>=0.000
     309 -> 314        0.12944
     312 -> 315       -0.11401
     312 -> 316        0.39972
     312 -> 320        0.13766
     312 -> 322       -0.21172
     312 -> 323       -0.45139

 The electronic state is 1-A.
 Alpha  occ. eigenvalues --  -46.87841 -46.86734 -19.27071 -19.25727 -19.19721
 Alpha  occ. eigenvalues --  -19.18870 -19.18388 -19.18175 -19.17972 -19.17705
 Alpha  occ. eigenvalues --  -14.42771 -14.41532 -14.41400 -14.39532 -14.39402
 Alpha  occ. eigenvalues --  -14.38747 -14.38360 -14.37840 -10.39592 -10.38440
 Alpha  occ. eigenvalues --  -10.35544 -10.34644 -10.34387 -10.33886 -10.32327
 Alpha  occ. eigenvalues --  -10.31703 -10.31565 -10.31423 -10.31329 -10.31211
 Alpha  occ. eigenvalues --  -10.30851 -10.30581 -10.30558 -10.30495 -10.30316
 Alpha  occ. eigenvalues --  -10.30271 -10.30261 -10.30063 -10.29803 -10.29788
 Alpha  occ. eigenvalues --  -10.29578 -10.29555 -10.29393 -10.29272 -10.29240
 Alpha  occ. eigenvalues --  -10.29157 -10.28979 -10.28974 -10.28607 -10.28575
 Alpha  occ. eigenvalues --  -10.28145 -10.28101 -10.28098 -10.28062 -10.27879
 Alpha  occ. eigenvalues --  -10.27858 -10.27777 -10.27641 -10.27604 -10.27598
 Alpha  occ. eigenvalues --  -10.27538 -10.27482 -10.27369 -10.27339 -10.26665
 Alpha  occ. eigenvalues --  -10.26560 -10.26551 -10.26530 -10.26458 -10.26269
 Alpha  occ. eigenvalues --  -10.26218 -10.26169 -10.26144 -10.26099 -10.26072
 Alpha  occ. eigenvalues --  -10.26070 -10.25920 -10.25834 -10.25807 -10.25530
 Alpha  occ. eigenvalues --  -10.25496 -10.24985 -10.24872 -10.24720 -10.24403
 Alpha  occ. eigenvalues --  -10.23852  -3.16589  -3.15477  -1.91470  -1.91062
 Alpha  occ. eigenvalues --   -1.90896  -1.90363  -1.89934  -1.89794  -1.27413
 Alpha  occ. eigenvalues --   -1.17313  -1.16062  -1.08815  -1.08128  -1.07479
 Alpha  occ. eigenvalues --   -1.07119  -1.06444  -1.06025  -1.04799  -1.03881
 Alpha  occ. eigenvalues --   -1.03740  -1.03192  -1.03082  -1.02400  -1.02272
 Alpha  occ. eigenvalues --   -1.01724  -0.96222  -0.92226  -0.91748  -0.91353
 Alpha  occ. eigenvalues --   -0.89628  -0.88963  -0.88495  -0.88408  -0.88315
 Alpha  occ. eigenvalues --   -0.87849  -0.87742  -0.87553  -0.87264  -0.86910
 Alpha  occ. eigenvalues --   -0.86289  -0.85752  -0.84330  -0.84116  -0.84011
 Alpha  occ. eigenvalues --   -0.83070  -0.82646  -0.82243  -0.81986  -0.81822
 Alpha  occ. eigenvalues --   -0.81094  -0.80541  -0.79927  -0.78775  -0.78206
 Alpha  occ. eigenvalues --   -0.77973  -0.77204  -0.76995  -0.76444  -0.76367
 Alpha  occ. eigenvalues --   -0.75548  -0.75115  -0.74929  -0.74437  -0.72805
 Alpha  occ. eigenvalues --   -0.72183  -0.71739  -0.71219  -0.69840  -0.68762
 Alpha  occ. eigenvalues --   -0.68452  -0.67740  -0.67641  -0.67138  -0.66432
 Alpha  occ. eigenvalues --   -0.66079  -0.65209  -0.65015  -0.64520  -0.64378
 Alpha  occ. eigenvalues --   -0.64215  -0.63749  -0.62696  -0.62616  -0.61936
 Alpha  occ. eigenvalues --   -0.61159  -0.60488  -0.60233  -0.59447  -0.59253
 Alpha  occ. eigenvalues --   -0.59057  -0.58625  -0.58340  -0.57933  -0.57831
 Alpha  occ. eigenvalues --   -0.57393  -0.57033  -0.56932  -0.56713  -0.56244
 Alpha  occ. eigenvalues --   -0.55761  -0.55744  -0.55446  -0.55413  -0.55003
 Alpha  occ. eigenvalues --   -0.54829  -0.54718  -0.54418  -0.54063  -0.53577
 Alpha  occ. eigenvalues --   -0.53399  -0.53216  -0.53043  -0.52821  -0.52678
 Alpha  occ. eigenvalues --   -0.52521  -0.52478  -0.52390  -0.52219  -0.52038
 Alpha  occ. eigenvalues --   -0.51938  -0.51667  -0.51420  -0.51400  -0.50909
 Alpha  occ. eigenvalues --   -0.50848  -0.50588  -0.50373  -0.50040  -0.49962
 Alpha  occ. eigenvalues --   -0.49686  -0.49592  -0.49339  -0.49186  -0.48917
 Alpha  occ. eigenvalues --   -0.48867  -0.48753  -0.48575  -0.48483  -0.48448
 Alpha  occ. eigenvalues --   -0.48244  -0.48161  -0.47913  -0.47765  -0.47253
 Alpha  occ. eigenvalues --   -0.47235  -0.46990  -0.46817  -0.46661  -0.46449
 Alpha  occ. eigenvalues --   -0.46281  -0.46223  -0.45999  -0.45947  -0.45840
 Alpha  occ. eigenvalues --   -0.45681  -0.45524  -0.45417  -0.45248  -0.44769
 Alpha  occ. eigenvalues --   -0.44544  -0.44357  -0.44278  -0.44185  -0.43978
 Alpha  occ. eigenvalues --   -0.43829  -0.43759  -0.43603  -0.43476  -0.43340
 Alpha  occ. eigenvalues --   -0.43258  -0.43121  -0.43088  -0.42864  -0.42805
 Alpha  occ. eigenvalues --   -0.42645  -0.42427  -0.42310  -0.42112  -0.41900
 Alpha  occ. eigenvalues --   -0.41752  -0.41578  -0.41227  -0.41099  -0.40858
 Alpha  occ. eigenvalues --   -0.40746  -0.40645  -0.40534  -0.40471  -0.40192
 Alpha  occ. eigenvalues --   -0.40157  -0.39750  -0.39607  -0.39494  -0.38882
 Alpha  occ. eigenvalues --   -0.38380  -0.37545  -0.37437  -0.37374  -0.37229
 Alpha  occ. eigenvalues --   -0.37042  -0.36490  -0.36409  -0.36347  -0.35778
 Alpha  occ. eigenvalues --   -0.34455  -0.34284  -0.33599  -0.33358  -0.33111
 Alpha  occ. eigenvalues --   -0.32502  -0.31435  -0.31214  -0.30651  -0.30500
 Alpha  occ. eigenvalues --   -0.30103  -0.29515  -0.29479  -0.29315  -0.28848
 Alpha  occ. eigenvalues --   -0.28329  -0.27618  -0.24241  -0.23432  -0.21344
 Alpha  occ. eigenvalues --   -0.20852  -0.15812
 Alpha virt. eigenvalues --   -0.08963  -0.08159  -0.01919  -0.01141  -0.00242
 Alpha virt. eigenvalues --    0.00705   0.02054   0.02541   0.02562   0.03969
 Alpha virt. eigenvalues --    0.04128   0.04467   0.04654   0.04914   0.05672

 Mulliken charges:
               1
     1  Mg   0.816009
     2  C   -0.009812
     3  C   -0.095083
     4  C   -0.070190
     5  C   -0.057465
     6  N   -0.259351
     7  C   -0.048781
     8  C   -0.014592
     9  C   -0.085969
    10  C    0.043664
    11  C    0.105820
    12  C    0.053686
    13  C   -0.070535
    14  H    0.033665
    15  N   -0.430508
    16  C    0.162599
    17  C   -0.183147
    18  C   -0.009700
    19  C    0.146987
    20  C    0.111808
    21  C    0.004702
    22  O   -0.262422
    23  C    0.065066
    24  N   -0.336601
    25  C    0.057572
    26  C   -0.036476
    27  C    0.043638
    28  C    0.051483
    29  C    0.091839
    30  C    0.134065
    31  C    0.497795
    32  N   -0.313272
    33  C    0.098348
    34  C   -0.154298
    35  C    0.006267
    36  C    0.095693
    37  C    0.129957
    38  C    0.048323
    39  O   -0.187270
    40  C   -0.006079
    41  C    0.212446
    42  O   -0.254858
    43  O   -0.305392
    44  C    0.158307
    45  H   -0.021569
    46  H   -0.029593
    47  H   -0.065766
    48  H   -0.000525
    49  H   -0.006251
    50  H    0.022920
    51  H    0.016200
    52  H    0.013887
    53  H    0.011242
    54  H    0.043864
    55  H    0.017260
    56  H    0.017334
    57  H    0.002759
    58  H    0.021577
    59  H    0.032368
    60  H    0.037452
    61  H    0.028898
    62  H    0.026872
    63  H   -0.009395
    64  H   -0.002907
    65  H    0.021159
    66  H    0.020060
    67  H    0.005163
    68  H   -0.006289
    69  H   -0.007168
    70  H   -0.118793
    71  H   -0.092595
    72  H    0.086469
    73  H    0.055997
    74  H   -0.003344
    75  H    0.046971
    76  H    0.032757
    77  H    0.041503
    78  H    0.045563
    79  H    0.053139
    80  Mg   0.840480
    81  C   -0.017638
    82  C   -0.085598
    83  C   -0.044839
    84  C   -0.062963
    85  N   -0.253944
    86  C   -0.045038
    87  C   -0.015442
    88  C   -0.082234
    89  C    0.040712
    90  C    0.117987
    91  C    0.082276
    92  C    0.116613
    93  H   -0.369635
    94  N   -0.423675
    95  C    0.163193
    96  C   -0.174018
    97  C   -0.007449
    98  C    0.152511
    99  C    0.099155
   100  C    0.015852
   101  O   -0.252706
   102  C    0.061285
   103  N   -0.349830
   104  C    0.037884
   105  C   -0.019986
   106  C   -0.035053
   107  C    0.088969
   108  C    0.073504
   109  C    0.034531
   110  C   -0.007873
   111  N   -0.324659
   112  C    0.079567
   113  C   -0.159995
   114  C    0.003855
   115  C    0.098525
   116  C    0.130648
   117  C    0.046634
   118  O   -0.185728
   119  C    0.004192
   120  C    0.199762
   121  O   -0.239695
   122  O   -0.304302
   123  C    0.185449
   124  H   -0.017495
   125  H   -0.014987
   126  H   -0.039014
   127  H    0.020920
   128  H   -0.004764
   129  H    0.023627
   130  H    0.014988
   131  H    0.019483
   132  H    0.015946
   133  H    0.067533
   134  H   -0.275659
   135  H    0.087575
   136  H    0.011792
   137  H    0.026535
   138  H    0.039893
   139  H    0.038851
   140  H    0.036553
   141  H    0.033441
   142  H    0.014810
   143  H    0.012731
   144  H    0.025426
   145  H    0.011583
   146  H    0.006094
   147  H    0.006195
   148  H    0.004398
   149  H    0.010243
   150  H    0.019066
   151  H    0.031503
   152  H    0.049235
   153  H    0.009139
   154  H    0.046610
   155  H    0.036532
   156  H    0.043332
   157  H    0.013083
   158  H    0.048362
 Sum of Mulliken charges =  -0.00000

 Dipole moment (field-independent basis, Debye):
    X=              0.5872    Y=              5.7327    Z=              0.2632  Tot=              5.7687
 Quadrupole moment (field-independent basis, Debye-Ang):
   XX=           -497.6674   YY=           -539.1388   ZZ=           -474.7436
   XY=            -20.5699   XZ=             -2.9975   YZ=            -19.0444

 Normal termination of Gaussian 16 at Wed Sep  8 21:44:36 2021.
