 Gaussian 16, Revision A.03,
 Gaussian 16:  ES64L-G16RevA.03 25-Dec-2016

 -----------------------------------
 #p cam-b3lyp/Def2SVP td=(nstates=5)
 -----------------------------------

 --------------------------------
 TDDFT excited states in gaussian
 --------------------------------
 Symbolic Z-matrix:
 Charge =  0 Multiplicity = 1

                         Standard orientation:
 ---------------------------------------------------------------------
 Center     Atomic      Atomic             Coordinates (Angstroms)
 Number     Number       Type             X           Y           Z
 ---------------------------------------------------------------------
      1         12           0        3.122355    1.877196    0.908455
      2          6           0        4.655905   -1.286330    0.235744
      3          6           0        4.319736    2.931261   -2.107882
      4          6           0        2.171686    4.803532    1.676183
      5          6           0        3.038633    0.955751    4.268454
      6          7           0        4.320859    0.858411   -0.649206
      7          6           0        4.793614   -0.373306   -0.812143
      8          6           0        5.383158   -0.625994   -2.231988
      9          6           0        5.729053    0.878046   -2.632261
     10          6           0        4.706050    1.599549   -1.772715
     11          6           0        7.126174    1.316287   -2.205060
     12          6           0        4.332066   -1.251698   -3.209450
     13          6           0        4.907807   -1.828285   -4.506148
     14          1           0        4.300452   -3.023709   -5.071329
     15          7           0        2.798347    3.458976   -0.229894
     16          6           0        3.358648    3.717222   -1.435986
     17          6           0        2.798344    5.012804   -1.876677
     18          6           0        2.012853    5.577598   -0.744376
     19          6           0        2.321798    4.636337    0.301549
     20          6           0        2.987776    5.564588   -3.256315
     21          6           0        1.133101    6.781342   -0.621212
     22          8           0        0.732925    7.218281    0.511712
     23          6           0        0.820284    7.497078   -1.871376
     24          7           0        2.867776    2.853983    2.735669
     25          6           0        2.388415    4.101464    2.790353
     26          6           0        2.027359    4.486605    4.194363
     27          6           0        2.133178    3.149416    5.060666
     28          6           0        2.644630    2.192318    3.955835
     29          6           0        2.896361    5.578694    4.833258
     30          6           0        0.879717    2.736254    5.872179
     31          6           0       -0.235252    2.342554    4.929342
     32          7           0        3.565246    0.087238    2.053419
     33          6           0        3.481244   -0.065867    3.444885
     34          6           0        3.983808   -1.415258    3.762126
     35          6           0        4.343076   -1.950727    2.526794
     36          6           0        4.106031   -0.986650    1.505689
     37          6           0        4.115796   -1.970272    5.065573
     38          6           0        4.895096   -3.104060    1.834731
     39          8           0        5.196535   -4.251650    2.165890
     40          6           0        5.233610   -2.676004    0.338735
     41          6           0        4.680747   -3.736733   -0.573683
     42          8           0        3.449553   -3.909761   -0.681330
     43          8           0        5.666765   -4.215225   -1.347863
     44          6           0        5.179545   -5.251114   -2.297443
     45          1           0        4.839453    3.442965   -2.920282
     46          1           0        1.740871    5.761650    1.974256
     47          1           0        2.963616    0.567720    5.285930
     48          1           0        6.288689   -1.232807   -2.246723
     49          1           0        5.540960    1.071693   -3.688122
     50          1           0        7.606620    0.562882   -1.580981
     51          1           0        6.982680    2.240071   -1.644235
     52          1           0        7.730572    1.583122   -3.072400
     53          1           0        3.706911   -0.458999   -3.620388
     54          1           0        3.743677   -2.018296   -2.704029
     55          1           0        5.990527   -1.942095   -4.445538
     56          1           0        4.756246   -1.098341   -5.301391
     57          1           0        3.745332    5.010193   -3.808854
     58          1           0        3.409496    6.563287   -3.144679
     59          1           0        2.049303    5.621386   -3.808017
     60          1           0        1.748010    7.829931   -2.337298
     61          1           0        0.108554    8.276514   -1.601618
     62          1           0        0.358621    6.799989   -2.571292
     63          1           0        1.007572    4.865823    4.245871
     64          1           0        2.925922    3.207194    5.806917
     65          1           0        2.329053    6.442973    5.179507
     66          1           0        3.654359    5.873432    4.108095
     67          1           0        3.512782    5.243001    5.666776
     68          1           0        0.517568    3.576039    6.464256
     69          1           0        1.062603    1.904841    6.553029
     70          1           0       -0.683950    3.300650    4.669427
     71          1           0       -0.954465    1.699823    5.438106
     72          1           0        0.156134    1.906006    4.010251
     73          1           0        3.749909   -2.994824    4.999327
     74          1           0        3.552190   -1.395071    5.799804
     75          1           0        5.193073   -1.891022    5.210654
     76          1           0        6.318632   -2.603037    0.271461
     77          1           0        5.780607   -6.145482   -2.132932
     78          1           0        5.205736   -4.799245   -3.289176
     79          1           0        4.177356   -5.640065   -2.113937
     80         12           0       -4.178062   -0.829015   -0.642287
     81          6           0       -1.413963   -3.106010   -0.409686
     82          6           0       -2.157234    1.200331   -2.495017
     83          6           0       -6.436362    1.394424   -0.487954
     84          6           0       -5.563997   -2.447819    2.115310
     85          7           0       -2.076726   -1.035891   -1.300963
     86          6           0       -1.145079   -1.972423   -1.204741
     87          6           0        0.117252   -1.715281   -2.070740
     88          6           0        0.001311   -0.118540   -2.196664
     89          6           0       -1.508662    0.031337   -2.022870
     90          6           0        0.688672    0.625947   -1.064134
     91          6           0        0.030458   -2.410020   -3.474955
     92          6           0        1.348948   -2.460553   -4.250050
     93          1           0        1.625287   -3.631409   -5.077815
     94          7           0       -4.471973    0.782877   -1.762110
     95          6           0       -3.543789    1.466444   -2.463875
     96          6           0       -4.261543    2.581543   -3.100708
     97          6           0       -5.657540    2.596214   -2.585230
     98          6           0       -5.568273    1.582355   -1.553623
     99          6           0       -3.640722    3.453652   -4.153053
    100          6           0       -6.868678    3.399894   -2.950514
    101          8           0       -7.915300    3.414530   -2.210787
    102          6           0       -6.759097    4.242141   -4.150560
    103          7           0       -5.665606   -0.424645    0.752710
    104          6           0       -6.549196    0.568954    0.552811
    105          6           0       -7.686148    0.495476    1.543939
    106          6           0       -7.507071   -0.902157    2.300327
    107          6           0       -6.188774   -1.375122    1.649324
    108          6           0       -7.747202    1.625660    2.571238
    109          6           0       -8.723630   -1.867858    2.291953
    110          6           0       -8.973982   -2.370425    0.888338
    111          7           0       -3.713726   -2.586960    0.524795
    112          6           0       -4.411270   -3.070190    1.653522
    113          6           0       -3.651104   -4.225287    2.173453
    114          6           0       -2.543039   -4.320472    1.318103
    115          6           0       -2.597428   -3.284573    0.346801
    116          6           0       -3.988245   -4.993482    3.323375
    117          6           0       -1.334139   -5.055241    1.022502
    118          8           0       -0.816196   -6.084902    1.452940
    119          6           0       -0.482959   -4.224576   -0.031966
    120          6           0       -0.042464   -5.166662   -1.118681
    121          8           0       -0.877742   -5.698483   -1.871053
    122          8           0        1.297449   -5.115356   -1.229925
    123          6           0        1.781386   -6.024668   -2.302665
    124          1           0       -1.543587    2.010721   -2.889454
    125          1           0       -7.295153    2.068860   -0.454787
    126          1           0       -5.981605   -3.066232    2.912714
    127          1           0        1.054573   -1.983920   -1.598470
    128          1           0        0.307508    0.223237   -3.181947
    129          1           0        1.041546   -0.046020   -0.295973
    130          1           0       -0.054690    1.302297   -0.662871
    131          1           0        1.489009    1.257964   -1.459539
    132          1           0       -0.560729   -1.778783   -4.150816
    133          1           0       -0.374693   -3.399269   -3.386216
    134          1           0        2.210871   -2.228344   -3.612788
    135          1           0        1.343987   -1.661777   -4.995677
    136          1           0       -2.554453    3.309787   -4.205233
    137          1           0       -3.761763    4.490539   -3.821283
    138          1           0       -4.114964    3.337506   -5.129924
    139          1           0       -5.936434    4.942333   -4.026436
    140          1           0       -7.752508    4.669873   -4.299085
    141          1           0       -6.503201    3.603969   -5.003705
    142          1           0       -8.642793    0.500179    1.036098
    143          1           0       -7.296375   -0.762088    3.370759
    144          1           0       -8.708697    2.172935    2.561435
    145          1           0       -6.923127    2.301395    2.384677
    146          1           0       -7.569155    1.323137    3.601761
    147          1           0       -9.629322   -1.338685    2.598297
    148          1           0       -8.605936   -2.716641    2.957318
    149          1           0       -9.563305   -1.565301    0.439387
    150          1           0       -9.532741   -3.303906    0.909642
    151          1           0       -8.036918   -2.446802    0.324657
    152          1           0       -3.839721   -6.031910    3.058594
    153          1           0       -5.011869   -4.805808    3.640780
    154          1           0       -3.258782   -4.604261    4.038683
    155          1           0        0.363564   -3.789282    0.500465
    156          1           0        2.517322   -6.693874   -1.846339
    157          1           0        2.136944   -5.364523   -3.116011
    158          1           0        1.074533   -6.736143   -2.713298
 ---------------------------------------------------------------------

 SCF Done:  E(RCAM-B3LYP) =  -4069.80406560     A.U. after   19 cycles

 Excitation energies and oscillator strengths:

 Excited State   1:      Singlet-A      1.6312 eV  760.09 nm  f=0.0015  <S**2>=0.000
     309 -> 315        0.11933
     310 -> 316       -0.11093
     311 -> 313        0.50004
     312 -> 314       -0.47327
 This state for optimization and/or second-order correction.
 Total Energy, E(TD-HF/TD-DFT) =  -4069.74412123
 Copying the excited state density for this state as the 1-particle RhoCI density.

 Excited State   2:      Singlet-A      1.7129 eV  723.81 nm  f=0.6632  <S**2>=0.000
     309 -> 315        0.12772
     310 -> 316        0.13256
     311 -> 313        0.46962
     312 -> 314        0.49590

 Excited State   3:      Singlet-A      2.1063 eV  588.62 nm  f=0.0029  <S**2>=0.000
     309 -> 313       -0.11045
     312 -> 313        0.69516

 Excited State   4:      Singlet-A      2.1742 eV  570.24 nm  f=0.0465  <S**2>=0.000
     309 -> 313        0.32196
     310 -> 314        0.55688
     311 -> 315       -0.13098
     312 -> 316       -0.22886

 Excited State   5:      Singlet-A      2.1928 eV  565.41 nm  f=0.1379  <S**2>=0.000
     309 -> 313        0.54434
     310 -> 314       -0.32241
     311 -> 315       -0.23797
     312 -> 313        0.10267
     312 -> 316        0.14311

 The electronic state is 1-A.
 Alpha  occ. eigenvalues --  -46.88107 -46.87314 -19.26668 -19.24801 -19.19391
 Alpha  occ. eigenvalues --  -19.19147 -19.18440 -19.18421 -19.18096 -19.17451
 Alpha  occ. eigenvalues --  -14.42795 -14.42168 -14.41764 -14.41006 -14.39701
 Alpha  occ. eigenvalues --  -14.39006 -14.38929 -14.38232 -10.39394 -10.37938
 Alpha  occ. eigenvalues --  -10.35783 -10.35108 -10.34672 -10.33581 -10.31933
 Alpha  occ. eigenvalues --  -10.31803 -10.31352 -10.30999 -10.30949 -10.30937
 Alpha  occ. eigenvalues --  -10.30822 -10.30617 -10.30544 -10.30206 -10.30025
 Alpha  occ. eigenvalues --  -10.29972 -10.29967 -10.29865 -10.29621 -10.29534
 Alpha  occ. eigenvalues --  -10.29255 -10.29144 -10.29045 -10.29039 -10.28764
 Alpha  occ. eigenvalues --  -10.28570 -10.28154 -10.28147 -10.28138 -10.28078
 Alpha  occ. eigenvalues --  -10.27998 -10.27997 -10.27940 -10.27901 -10.27812
 Alpha  occ. eigenvalues --  -10.27737 -10.27677 -10.27641 -10.27503 -10.27488
 Alpha  occ. eigenvalues --  -10.27374 -10.27295 -10.27272 -10.27110 -10.27108
 Alpha  occ. eigenvalues --  -10.27046 -10.26787 -10.26601 -10.26363 -10.26337
 Alpha  occ. eigenvalues --  -10.26209 -10.26194 -10.26165 -10.26119 -10.26027
 Alpha  occ. eigenvalues --  -10.25925 -10.25638 -10.25611 -10.25544 -10.25177
 Alpha  occ. eigenvalues --  -10.25161 -10.25101 -10.24835 -10.24520 -10.24476
 Alpha  occ. eigenvalues --  -10.24325  -3.16817  -3.16065  -1.91698  -1.91288
 Alpha  occ. eigenvalues --   -1.91130  -1.90947  -1.90535  -1.90372  -1.17028
 Alpha  occ. eigenvalues --   -1.15348  -1.08893  -1.08003  -1.07544  -1.07080
 Alpha  occ. eigenvalues --   -1.06679  -1.05847  -1.04970  -1.04138  -1.04095
 Alpha  occ. eigenvalues --   -1.03578  -1.03310  -1.02755  -1.02692  -1.01755
 Alpha  occ. eigenvalues --   -0.92342  -0.91481  -0.89810  -0.89687  -0.89152
 Alpha  occ. eigenvalues --   -0.88868  -0.88565  -0.88183  -0.88085  -0.87912
 Alpha  occ. eigenvalues --   -0.87643  -0.87446  -0.87325  -0.86831  -0.85478
 Alpha  occ. eigenvalues --   -0.84676  -0.84197  -0.83550  -0.83306  -0.83080
 Alpha  occ. eigenvalues --   -0.82665  -0.82320  -0.81991  -0.81057  -0.80924
 Alpha  occ. eigenvalues --   -0.79950  -0.79152  -0.78324  -0.77609  -0.77333
 Alpha  occ. eigenvalues --   -0.76850  -0.76523  -0.76305  -0.75518  -0.75174
 Alpha  occ. eigenvalues --   -0.74463  -0.73108  -0.72366  -0.72023  -0.71277
 Alpha  occ. eigenvalues --   -0.70144  -0.69505  -0.69330  -0.68611  -0.68023
 Alpha  occ. eigenvalues --   -0.67814  -0.67208  -0.66836  -0.65756  -0.65253
 Alpha  occ. eigenvalues --   -0.65042  -0.64776  -0.64555  -0.64412  -0.64143
 Alpha  occ. eigenvalues --   -0.63844  -0.62674  -0.61553  -0.60775  -0.60247
 Alpha  occ. eigenvalues --   -0.60030  -0.59449  -0.59330  -0.58866  -0.58612
 Alpha  occ. eigenvalues --   -0.58129  -0.57864  -0.57633  -0.57000  -0.56762
 Alpha  occ. eigenvalues --   -0.56579  -0.56389  -0.55887  -0.55868  -0.55651
 Alpha  occ. eigenvalues --   -0.55285  -0.55045  -0.54853  -0.54725  -0.54520
 Alpha  occ. eigenvalues --   -0.53999  -0.53713  -0.53662  -0.53613  -0.53243
 Alpha  occ. eigenvalues --   -0.53186  -0.52888  -0.52822  -0.52674  -0.52466
 Alpha  occ. eigenvalues --   -0.52396  -0.52174  -0.52073  -0.51917  -0.51530
 Alpha  occ. eigenvalues --   -0.51520  -0.51336  -0.50951  -0.50767  -0.50403
 Alpha  occ. eigenvalues --   -0.50256  -0.50231  -0.49995  -0.49796  -0.49616
 Alpha  occ. eigenvalues --   -0.49577  -0.49482  -0.49247  -0.49041  -0.48846
 Alpha  occ. eigenvalues --   -0.48740  -0.48725  -0.48671  -0.48140  -0.48083
 Alpha  occ. eigenvalues --   -0.48002  -0.47940  -0.47638  -0.47282  -0.47125
 Alpha  occ. eigenvalues --   -0.47031  -0.46857  -0.46627  -0.46557  -0.46392
 Alpha  occ. eigenvalues --   -0.46174  -0.46113  -0.45923  -0.45658  -0.45472
 Alpha  occ. eigenvalues --   -0.45417  -0.44940  -0.44912  -0.44878  -0.44519
 Alpha  occ. eigenvalues --   -0.44443  -0.44412  -0.44247  -0.44188  -0.44051
 Alpha  occ. eigenvalues --   -0.43861  -0.43796  -0.43681  -0.43550  -0.43369
 Alpha  occ. eigenvalues --   -0.43330  -0.43080  -0.42926  -0.42563  -0.42436
 Alpha  occ. eigenvalues --   -0.42312  -0.42260  -0.42036  -0.41921  -0.41647
 Alpha  occ. eigenvalues --   -0.41474  -0.41335  -0.41311  -0.41226  -0.41128
 Alpha  occ. eigenvalues --   -0.40936  -0.40848  -0.40796  -0.40627  -0.40381
 Alpha  occ. eigenvalues --   -0.40329  -0.40133  -0.39678  -0.39375  -0.39118
 Alpha  occ. eigenvalues --   -0.38778  -0.38254  -0.37981  -0.37678  -0.37633
 Alpha  occ. eigenvalues --   -0.37213  -0.37052  -0.36916  -0.36797  -0.36506
 Alpha  occ. eigenvalues --   -0.36091  -0.35393  -0.34631  -0.34252  -0.33887
 Alpha  occ. eigenvalues --   -0.33570  -0.32981  -0.32610  -0.31673  -0.31406
 Alpha  occ. eigenvalues --   -0.30977  -0.30570  -0.30300  -0.29781  -0.29651
 Alpha  occ. eigenvalues --   -0.29315  -0.28986  -0.28820  -0.24426  -0.23645
 Alpha  occ. eigenvalues --   -0.21498  -0.20782
 Alpha virt. eigenvalues --   -0.09135  -0.08428  -0.02092  -0.01347  -0.00438
 Alpha virt. eigenvalues --    0.00293   0.01900   0.02665   0.03434   0.03997
 Alpha virt. eigenvalues --    0.04112   0.04536   0.04805   0.05468   0.06173

 Mulliken charges:
               1
     1  Mg   0.761266
     2  C   -0.006077
     3  C   -0.092131
     4  C   -0.043612
     5  C   -0.062742
     6  N   -0.249947
     7  C   -0.060027
     8  C    0.035243
     9  C   -0.087182
    10  C    0.040130
    11  C    0.105130
    12  C   -0.041837
    13  C   -0.072386
    14  H    0.043947
    15  N   -0.427044
    16  C    0.158784
    17  C   -0.180455
    18  C   -0.005342
    19  C    0.149546
    20  C    0.110790
    21  C    0.011540
    22  O   -0.247953
    23  C    0.063275
    24  N   -0.335163
    25  C    0.040899
    26  C   -0.027629
    27  C   -0.024608
    28  C    0.077005
    29  C    0.075897
    30  C    0.034799
    31  C   -0.005346
    32  N   -0.308248
    33  C    0.081778
    34  C   -0.168366
    35  C    0.010443
    36  C    0.076275
    37  C    0.126360
    38  C    0.048184
    39  O   -0.184086
    40  C   -0.009208
    41  C    0.215830
    42  O   -0.245836
    43  O   -0.304591
    44  C    0.185961
    45  H   -0.018443
    46  H   -0.016584
    47  H   -0.040670
    48  H   -0.002192
    49  H   -0.005173
    50  H    0.026484
    51  H    0.018328
    52  H    0.017342
    53  H    0.014687
    54  H    0.110003
    55  H    0.019965
    56  H    0.018425
    57  H    0.005713
    58  H    0.028083
    59  H    0.036440
    60  H    0.038068
    61  H    0.036874
    62  H    0.027862
    63  H    0.017344
    64  H    0.010155
    65  H    0.023903
    66  H    0.012582
    67  H    0.005292
    68  H    0.007054
    69  H    0.005306
    70  H    0.009371
    71  H    0.019172
    72  H    0.029969
    73  H    0.051078
    74  H    0.009978
    75  H    0.046653
    76  H    0.035887
    77  H    0.040590
    78  H    0.045594
    79  H   -0.001080
    80  Mg   0.836231
    81  C   -0.018971
    82  C   -0.087928
    83  C   -0.045848
    84  C   -0.066796
    85  N   -0.253735
    86  C   -0.050805
    87  C   -0.021002
    88  C   -0.073678
    89  C    0.042497
    90  C    0.019247
    91  C    0.070157
    92  C   -0.053898
    93  H    0.026255
    94  N   -0.423252
    95  C    0.162137
    96  C   -0.174941
    97  C   -0.008554
    98  C    0.151872
    99  C    0.100173
   100  C    0.015200
   101  O   -0.254033
   102  C    0.061382
   103  N   -0.350440
   104  C    0.037096
   105  C   -0.019458
   106  C   -0.034803
   107  C    0.089761
   108  C    0.073935
   109  C    0.034951
   110  C   -0.007550
   111  N   -0.324360
   112  C    0.079442
   113  C   -0.164403
   114  C    0.003606
   115  C    0.095123
   116  C    0.131689
   117  C    0.041136
   118  O   -0.184828
   119  C    0.006470
   120  C    0.204649
   121  O   -0.260073
   122  O   -0.273302
   123  C    0.168844
   124  H   -0.020949
   125  H   -0.016530
   126  H   -0.041432
   127  H    0.018039
   128  H   -0.005521
   129  H    0.068706
   130  H    0.033889
   131  H    0.080820
   132  H    0.009027
   133  H    0.037224
   134  H   -0.020350
   135  H    0.011151
   136  H    0.005297
   137  H    0.024455
   138  H    0.038326
   139  H    0.037522
   140  H    0.035525
   141  H    0.033081
   142  H    0.013771
   143  H    0.011506
   144  H    0.024419
   145  H    0.012023
   146  H    0.004489
   147  H    0.005582
   148  H    0.003236
   149  H    0.010668
   150  H    0.017369
   151  H    0.030625
   152  H    0.046256
   153  H    0.007458
   154  H    0.046427
   155  H    0.049406
   156  H    0.056916
   157  H    0.041827
   158  H    0.043218
 Sum of Mulliken charges =  -0.00000

 Dipole moment (field-independent basis, Debye):
    X=              4.1167    Y=              6.0122    Z=             -3.5313  Tot=              8.0971
 Quadrupole moment (field-independent basis, Debye-Ang):
   XX=           -505.2607   YY=           -559.8156   ZZ=           -459.0239
   XY=             21.6768   XZ=            -38.4111   YZ=             -3.0630

 Normal termination of Gaussian 16 at Thu Sep  9 05:06:09 2021.
