 Gaussian 16, Revision A.03,
 Gaussian 16:  ES64L-G16RevA.03 25-Dec-2016

 -----------------------------------
 #p cam-b3lyp/Def2SVP td=(nstates=5)
 -----------------------------------

 --------------------------------
 TDDFT excited states in gaussian
 --------------------------------
 Symbolic Z-matrix:
 Charge =  0 Multiplicity = 1

                         Standard orientation:
 ---------------------------------------------------------------------
 Center     Atomic      Atomic             Coordinates (Angstroms)
 Number     Number       Type             X           Y           Z
 ---------------------------------------------------------------------
      1         12           0        8.111279   -0.566322    0.489776
      2          6           0        8.372525    2.453284   -1.414416
      3          6           0        8.820488    1.295140    3.260164
      4          6           0        8.334585   -3.276928    2.120533
      5          6           0        8.549551   -2.311915   -2.494597
      6          7           0        8.522782    1.591909    0.760615
      7          6           0        8.533840    2.652002   -0.041415
      8          6           0        8.657635    4.003868    0.723116
      9          6           0        9.349712    3.475307    2.058651
     10          6           0        8.839884    2.044973    2.046736
     11          6           0       10.873227    3.454317    1.988199
     12          6           0        7.262216    4.650052    1.018043
     13          6           0        7.301599    6.114154    1.465488
     14          1           0        6.234773    7.006237    1.037213
     15          7           0        8.035310   -0.901003    2.435301
     16          6           0        8.342870   -0.023576    3.420600
     17          6           0        8.126999   -0.746665    4.692300
     18          6           0        7.851794   -2.172977    4.363681
     19          6           0        8.091858   -2.179489    2.943222
     20          6           0        8.143767   -0.077575    6.032370
     21          6           0        7.448289   -3.346546    5.199176
     22          8           0        7.487572   -4.544277    4.753675
     23          6           0        7.085420   -3.062366    6.599394
     24          7           0        8.618955   -2.515560   -0.058285
     25          6           0        8.580875   -3.514366    0.830490
     26          6           0        8.704738   -4.849147    0.157470
     27          6           0        8.591466   -4.566111   -1.409952
     28          6           0        8.498761   -3.020918   -1.364640
     29          6           0        9.997476   -5.625608    0.443736
     30          6           0        7.503913   -5.347736   -2.188869
     31          6           0        6.130493   -4.894139   -1.747207
     32          7           0        8.233120   -0.060580   -1.617456
     33          6           0        8.440622   -0.944678   -2.686094
     34          6           0        8.557097   -0.126549   -3.907227
     35          6           0        8.424955    1.186241   -3.458934
     36          6           0        8.264053    1.189581   -2.043875
     37          6           0        8.816634   -0.617073   -5.217365
     38          6           0        8.406913    2.588353   -3.843138
     39          8           0        8.404817    3.193504   -4.916115
     40          6           0        8.494303    3.471382   -2.520848
     41          6           0        7.436656    4.537109   -2.615284
     42          8           0        6.224896    4.240183   -2.586329
     43          8           0        8.008773    5.743926   -2.485600
     44          6           0        7.010356    6.844965   -2.540641
     45          1           0        9.263978    1.731386    4.157352
     46          1           0        8.308939   -4.242583    2.629739
     47          1           0        8.602567   -2.792020   -3.473444
     48          1           0        9.297177    4.742540    0.239614
     49          1           0        8.984906    4.000287    2.941280
     50          1           0       11.228824    3.684563    0.983979
     51          1           0       11.163826    2.442732    2.272348
     52          1           0       11.304972    4.113044    2.742157
     53          1           0        6.836779    4.194212    1.912064
     54          1           0        6.602617    4.554489    0.154838
     55          1           0        8.276026    6.563806    1.272578
     56          1           0        7.200154    6.142565    2.550431
     57          1           0        8.535095    0.936987    5.968573
     58          1           0        8.870082   -0.610807    6.645426
     59          1           0        7.166792   -0.101691    6.515352
     60          1           0        7.930996   -2.592331    7.102004
     61          1           0        6.738923   -4.006669    7.017822
     62          1           0        6.275977   -2.331913    6.613101
     63          1           0        7.897856   -5.515672    0.459318
     64          1           0        9.516732   -4.802141   -1.936115
     65          1           0        9.828542   -6.618661    0.860883
     66          1           0       10.613139   -5.021360    1.109420
     67          1           0       10.658599   -5.744797   -0.414242
     68          1           0        7.574710   -6.413204   -1.972737
     69          1           0        7.575132   -5.223078   -3.269443
     70          1           0        5.955043   -5.487089   -0.850290
     71          1           0        5.390093   -5.119751   -2.515399
     72          1           0        6.134354   -3.845545   -1.449011
     73          1           0        8.144426   -0.076983   -5.884005
     74          1           0        8.653550   -1.692927   -5.276894
     75          1           0        9.866538   -0.347034   -5.329780
     76          1           0        9.498613    3.892808   -2.491147
     77          1           0        7.322996    7.522324   -3.335421
     78          1           0        6.938539    7.248919   -1.530657
     79          1           0        6.011302    6.573057   -2.883126
     80         12           0       -7.736621   -0.769049   -0.319673
     81          6           0      -10.255681    1.647763    0.512439
     82          6           0       -5.727031    1.846115   -1.189778
     83          6           0       -5.667521   -2.874889   -1.482320
     84          6           0      -10.273607   -3.153193   -0.478609
     85          7           0       -8.062031    1.418610   -0.296522
     86          6           0       -9.036763    2.223926    0.098052
     87          6           0       -8.657679    3.729017    0.121744
     88          6           0       -7.464538    3.693406   -0.952515
     89          6           0       -7.027206    2.239784   -0.783993
     90          6           0       -7.937340    3.887074   -2.383705
     91          6           0       -8.148239    4.194988    1.530773
     92          6           0       -8.054321    5.711662    1.711377
     93          1           0       -8.364173    6.277102    3.021623
     94          7           0       -5.807215   -0.575151   -0.742023
     95          6           0       -5.152166    0.563756   -1.050368
     96          6           0       -3.755957    0.170900   -1.296183
     97          6           0       -3.674986   -1.314835   -1.269063
     98          6           0       -5.081247   -1.653927   -1.182187
     99          6           0       -2.644526    1.168533   -1.447435
    100          6           0       -2.523396   -2.272299   -1.326396
    101          8           0       -2.699281   -3.525764   -1.528216
    102          6           0       -1.178302   -1.686291   -1.232601
    103          7           0       -7.961378   -2.681283   -1.104001
    104          6           0       -6.892588   -3.400726   -1.488749
    105          6           0       -7.270631   -4.837660   -1.758336
    106          6           0       -8.775588   -4.990580   -1.239359
    107          6           0       -9.049471   -3.528715   -0.823029
    108          6           0       -7.187918   -5.284742   -3.217669
    109          6           0       -9.052943   -6.117479   -0.206973
    110          6           0       -8.365572   -5.799419    1.101371
    111          7           0       -9.847420   -0.827017    0.137720
    112          6           0      -10.726122   -1.920142   -0.026711
    113          6           0      -12.082869   -1.442662    0.310470
    114          6           0      -11.901357   -0.088149    0.627991
    115          6           0      -10.531575    0.259428    0.478369
    116          6           0      -13.275837   -2.216917    0.251374
    117          6           0      -12.558752    1.129336    1.045446
    118          8           0      -13.697783    1.421344    1.407507
    119          6           0      -11.543035    2.338833    0.867080
    120          6           0      -11.573293    3.160398    2.126691
    121          8           0      -11.170314    2.683463    3.202214
    122          8           0      -11.866586    4.435774    1.813982
    123          6           0      -11.897343    5.292149    3.029502
    124          1           0       -5.100106    2.576353   -1.702219
    125          1           0       -4.978401   -3.667867   -1.781910
    126          1           0      -11.103164   -3.860049   -0.408956
    127          1           0       -9.439745    4.399772   -0.213277
    128          1           0       -6.660233    4.368535   -0.672045
    129          1           0       -9.014873    3.898751   -2.453944
    130          1           0       -7.530736    3.054671   -2.943019
    131          1           0       -7.485801    4.786814   -2.811386
    132          1           0       -7.088858    3.927405    1.634974
    133          1           0       -8.751221    3.774699    2.312053
    134          1           0       -8.588776    6.254607    0.922377
    135          1           0       -7.011481    6.012326    1.584446
    136          1           0       -3.032651    2.185002   -1.587252
    137          1           0       -2.135798    0.939980   -2.390213
    138          1           0       -1.918895    1.117429   -0.632874
    139          1           0       -1.039199   -0.970433   -2.039244
    140          1           0       -0.491520   -2.534396   -1.202113
    141          1           0       -1.106833   -1.122554   -0.295738
    142          1           0       -6.636064   -5.515608   -1.200837
    143          1           0       -9.469170   -5.218198   -2.062141
    144          1           0       -6.524275   -6.156767   -3.370054
    145          1           0       -6.855452   -4.445144   -3.813556
    146          1           0       -8.142108   -5.532441   -3.679576
    147          1           0       -8.632185   -7.063426   -0.556689
    148          1           0      -10.108985   -6.283542   -0.022078
    149          1           0       -7.343436   -6.152653    0.935374
    150          1           0       -8.839232   -6.333421    1.922670
    151          1           0       -8.317348   -4.716981    1.267645
    152          1           0      -13.839186   -1.989610    1.146617
    153          1           0      -13.056577   -3.280069    0.177898
    154          1           0      -13.717726   -1.824405   -0.668378
    155          1           0      -11.865432    2.911743   -0.003206
    156          1           0      -12.877228    5.778938    3.052661
    157          1           0      -11.010277    5.948876    2.954778
    158          1           0      -11.884974    4.795745    3.992768
 ---------------------------------------------------------------------

 SCF Done:  E(RCAM-B3LYP) =  -4069.81201104     A.U. after   19 cycles

 Excitation energies and oscillator strengths:

 Excited State   1:      Singlet-A      1.6736 eV  740.83 nm  f=0.3124  <S**2>=0.000
     310 -> 316        0.14889
     311 -> 313        0.35137
     312 -> 314        0.58933
 This state for optimization and/or second-order correction.
 Total Energy, E(TD-HF/TD-DFT) =  -4069.75050770
 Copying the excited state density for this state as the 1-particle RhoCI density.

 Excited State   2:      Singlet-A      1.6817 eV  737.24 nm  f=0.4711  <S**2>=0.000
     309 -> 315        0.15136
     311 -> 313        0.58886
     312 -> 314       -0.35123

 Excited State   3:      Singlet-A      2.1869 eV  566.93 nm  f=0.0527  <S**2>=0.000
     309 -> 313       -0.15796
     310 -> 314        0.62279
     312 -> 316       -0.26521

 Excited State   4:      Singlet-A      2.1937 eV  565.18 nm  f=0.1398  <S**2>=0.000
     309 -> 313        0.62099
     310 -> 314        0.15694
     311 -> 315       -0.27044

 Excited State   5:      Singlet-A      2.7405 eV  452.41 nm  f=0.0000  <S**2>=0.000
     312 -> 313        0.70700

 The electronic state is 1-A.
 Alpha  occ. eigenvalues --  -46.87894 -46.87570 -19.26448 -19.26297 -19.19189
 Alpha  occ. eigenvalues --  -19.19104 -19.18880 -19.18585 -19.18281 -19.17970
 Alpha  occ. eigenvalues --  -14.42548 -14.42407 -14.41537 -14.41270 -14.39496
 Alpha  occ. eigenvalues --  -14.39256 -14.38686 -14.38510 -10.39242 -10.39032
 Alpha  occ. eigenvalues --  -10.35512 -10.35256 -10.34503 -10.34149 -10.31855
 Alpha  occ. eigenvalues --  -10.31715 -10.31508 -10.31223 -10.31011 -10.30926
 Alpha  occ. eigenvalues --  -10.30669 -10.30598 -10.30308 -10.30282 -10.30270
 Alpha  occ. eigenvalues --  -10.30044 -10.30004 -10.29813 -10.29721 -10.29341
 Alpha  occ. eigenvalues --  -10.29334 -10.29298 -10.28870 -10.28694 -10.28639
 Alpha  occ. eigenvalues --  -10.28601 -10.28464 -10.28308 -10.28226 -10.28054
 Alpha  occ. eigenvalues --  -10.27904 -10.27886 -10.27821 -10.27673 -10.27572
 Alpha  occ. eigenvalues --  -10.27559 -10.27549 -10.27505 -10.27499 -10.27440
 Alpha  occ. eigenvalues --  -10.27394 -10.27358 -10.27298 -10.27281 -10.27279
 Alpha  occ. eigenvalues --  -10.26976 -10.26856 -10.26627 -10.26460 -10.26330
 Alpha  occ. eigenvalues --  -10.26229 -10.26207 -10.26102 -10.26070 -10.25934
 Alpha  occ. eigenvalues --  -10.25931 -10.25844 -10.25777 -10.25477 -10.25322
 Alpha  occ. eigenvalues --  -10.24931 -10.24873 -10.24780 -10.24699 -10.24667
 Alpha  occ. eigenvalues --  -10.24600  -3.16637  -3.16320  -1.91519  -1.91202
 Alpha  occ. eigenvalues --   -1.91105  -1.90947  -1.90791  -1.90628  -1.16797
 Alpha  occ. eigenvalues --   -1.16590  -1.08744  -1.08581  -1.07279  -1.06888
 Alpha  occ. eigenvalues --   -1.06836  -1.06809  -1.04681  -1.04404  -1.03850
 Alpha  occ. eigenvalues --   -1.03571  -1.03326  -1.02947  -1.02503  -1.02020
 Alpha  occ. eigenvalues --   -0.92077  -0.91900  -0.89589  -0.89410  -0.89301
 Alpha  occ. eigenvalues --   -0.89069  -0.88352  -0.88139  -0.87964  -0.87770
 Alpha  occ. eigenvalues --   -0.87707  -0.87594  -0.87354  -0.86986  -0.85091
 Alpha  occ. eigenvalues --   -0.84914  -0.83998  -0.83799  -0.83032  -0.82802
 Alpha  occ. eigenvalues --   -0.82750  -0.82551  -0.81708  -0.81523  -0.80700
 Alpha  occ. eigenvalues --   -0.80355  -0.78883  -0.78519  -0.77307  -0.77052
 Alpha  occ. eigenvalues --   -0.77041  -0.76823  -0.76033  -0.75752  -0.74970
 Alpha  occ. eigenvalues --   -0.74720  -0.72864  -0.72608  -0.71764  -0.71494
 Alpha  occ. eigenvalues --   -0.69956  -0.69681  -0.68976  -0.68738  -0.67736
 Alpha  occ. eigenvalues --   -0.67510  -0.67331  -0.67105  -0.65399  -0.65190
 Alpha  occ. eigenvalues --   -0.64956  -0.64720  -0.64685  -0.64573  -0.64341
 Alpha  occ. eigenvalues --   -0.64122  -0.62423  -0.62208  -0.60520  -0.60223
 Alpha  occ. eigenvalues --   -0.59911  -0.59709  -0.59080  -0.58906  -0.58599
 Alpha  occ. eigenvalues --   -0.58338  -0.57707  -0.57480  -0.57393  -0.57142
 Alpha  occ. eigenvalues --   -0.56405  -0.56113  -0.56106  -0.55812  -0.55608
 Alpha  occ. eigenvalues --   -0.55425  -0.55346  -0.55172  -0.54623  -0.54416
 Alpha  occ. eigenvalues --   -0.54010  -0.53829  -0.53384  -0.53323  -0.53133
 Alpha  occ. eigenvalues --   -0.53044  -0.53026  -0.52842  -0.52819  -0.52531
 Alpha  occ. eigenvalues --   -0.52485  -0.52326  -0.52009  -0.51806  -0.51726
 Alpha  occ. eigenvalues --   -0.51561  -0.51293  -0.51119  -0.50641  -0.50328
 Alpha  occ. eigenvalues --   -0.50094  -0.49999  -0.49874  -0.49772  -0.49612
 Alpha  occ. eigenvalues --   -0.49379  -0.49315  -0.49202  -0.49102  -0.49021
 Alpha  occ. eigenvalues --   -0.48703  -0.48540  -0.48526  -0.48475  -0.48297
 Alpha  occ. eigenvalues --   -0.48217  -0.47786  -0.47495  -0.47384  -0.47008
 Alpha  occ. eigenvalues --   -0.46885  -0.46668  -0.46624  -0.46466  -0.46450
 Alpha  occ. eigenvalues --   -0.46255  -0.46174  -0.46004  -0.45934  -0.45749
 Alpha  occ. eigenvalues --   -0.45268  -0.45125  -0.44684  -0.44590  -0.44432
 Alpha  occ. eigenvalues --   -0.44386  -0.44228  -0.44185  -0.44116  -0.44039
 Alpha  occ. eigenvalues --   -0.43986  -0.43823  -0.43611  -0.43484  -0.43479
 Alpha  occ. eigenvalues --   -0.43301  -0.43121  -0.42859  -0.42836  -0.42819
 Alpha  occ. eigenvalues --   -0.42721  -0.42464  -0.42090  -0.41888  -0.41801
 Alpha  occ. eigenvalues --   -0.41640  -0.41585  -0.41377  -0.41234  -0.40965
 Alpha  occ. eigenvalues --   -0.40902  -0.40901  -0.40640  -0.40632  -0.40590
 Alpha  occ. eigenvalues --   -0.40415  -0.40361  -0.40142  -0.39484  -0.39351
 Alpha  occ. eigenvalues --   -0.38540  -0.38271  -0.37872  -0.37579  -0.37396
 Alpha  occ. eigenvalues --   -0.37377  -0.37183  -0.37112  -0.36847  -0.36710
 Alpha  occ. eigenvalues --   -0.36297  -0.36140  -0.34382  -0.34165  -0.33927
 Alpha  occ. eigenvalues --   -0.33799  -0.33284  -0.33085  -0.31410  -0.31147
 Alpha  occ. eigenvalues --   -0.31129  -0.30881  -0.30143  -0.29877  -0.29539
 Alpha  occ. eigenvalues --   -0.29419  -0.29221  -0.29118  -0.24176  -0.23947
 Alpha  occ. eigenvalues --   -0.21219  -0.21023
 Alpha virt. eigenvalues --   -0.08866  -0.08694  -0.01838  -0.01591  -0.00145
 Alpha virt. eigenvalues --    0.00083   0.02102   0.02294   0.02987   0.03305
 Alpha virt. eigenvalues --    0.04612   0.04812   0.04944   0.05227   0.06044

 Mulliken charges:
               1
     1  Mg   0.837910
     2  C   -0.003464
     3  C   -0.094295
     4  C   -0.045625
     5  C   -0.063717
     6  N   -0.256808
     7  C   -0.052702
     8  C   -0.013942
     9  C   -0.086960
    10  C    0.046161
    11  C    0.104754
    12  C    0.053524
    13  C   -0.071619
    14  H    0.035231
    15  N   -0.433227
    16  C    0.168358
    17  C   -0.177152
    18  C   -0.003837
    19  C    0.148654
    20  C    0.110142
    21  C    0.012425
    22  O   -0.249093
    23  C    0.062437
    24  N   -0.341132
    25  C    0.041277
    26  C   -0.028260
    27  C   -0.024054
    28  C    0.074805
    29  C    0.076079
    30  C    0.035030
    31  C   -0.004625
    32  N   -0.310361
    33  C    0.080107
    34  C   -0.169822
    35  C    0.008227
    36  C    0.082601
    37  C    0.127370
    38  C    0.045768
    39  O   -0.188720
    40  C   -0.005196
    41  C    0.213007
    42  O   -0.258210
    43  O   -0.304469
    44  C    0.157886
    45  H   -0.017439
    46  H   -0.016375
    47  H   -0.041200
    48  H    0.000990
    49  H   -0.004076
    50  H    0.025540
    51  H    0.016675
    52  H    0.016826
    53  H    0.010955
    54  H    0.043306
    55  H    0.018265
    56  H    0.018144
    57  H    0.005850
    58  H    0.027154
    59  H    0.039625
    60  H    0.037412
    61  H    0.036170
    62  H    0.031413
    63  H    0.017042
    64  H    0.009580
    65  H    0.023596
    66  H    0.012477
    67  H    0.004901
    68  H    0.006878
    69  H    0.004786
    70  H    0.009368
    71  H    0.019073
    72  H    0.028001
    73  H    0.047261
    74  H    0.009405
    75  H    0.046159
    76  H    0.035350
    77  H    0.043149
    78  H    0.046454
    79  H    0.052819
    80  Mg   0.837579
    81  C   -0.016898
    82  C   -0.087717
    83  C   -0.045497
    84  C   -0.064908
    85  N   -0.254554
    86  C   -0.050045
    87  C   -0.015115
    88  C   -0.090459
    89  C    0.045670
    90  C    0.114310
    91  C    0.062557
    92  C   -0.077727
    93  H    0.034336
    94  N   -0.423581
    95  C    0.162810
    96  C   -0.174281
    97  C   -0.007640
    98  C    0.152151
    99  C    0.099141
   100  C    0.015566
   101  O   -0.253466
   102  C    0.061268
   103  N   -0.350044
   104  C    0.037612
   105  C   -0.019865
   106  C   -0.034696
   107  C    0.088727
   108  C    0.073677
   109  C    0.034797
   110  C   -0.007639
   111  N   -0.324010
   112  C    0.078165
   113  C   -0.163398
   114  C    0.002113
   115  C    0.096008
   116  C    0.131549
   117  C    0.042179
   118  O   -0.188344
   119  C    0.000965
   120  C    0.211226
   121  O   -0.251185
   122  O   -0.305603
   123  C    0.152120
   124  H   -0.019008
   125  H   -0.015546
   126  H   -0.040733
   127  H   -0.000792
   128  H   -0.004222
   129  H    0.022302
   130  H    0.014673
   131  H    0.016477
   132  H    0.013892
   133  H    0.037496
   134  H    0.020803
   135  H    0.019613
   136  H    0.009097
   137  H    0.027885
   138  H    0.040453
   139  H    0.039922
   140  H    0.036431
   141  H    0.033737
   142  H    0.014337
   143  H    0.012258
   144  H    0.025036
   145  H    0.011833
   146  H    0.005549
   147  H    0.006101
   148  H    0.003482
   149  H    0.010932
   150  H    0.017698
   151  H    0.030157
   152  H    0.045719
   153  H    0.008324
   154  H    0.046749
   155  H    0.034914
   156  H    0.043744
   157  H    0.049437
   158  H    0.053395
 Sum of Mulliken charges =  -0.00000

 Dipole moment (field-independent basis, Debye):
    X=              5.1614    Y=              2.8454    Z=              1.8262  Tot=              6.1701
 Quadrupole moment (field-independent basis, Debye-Ang):
   XX=           -551.7679   YY=           -470.0555   ZZ=           -516.4954
   XY=             14.4365   XZ=             61.5707   YZ=             33.8703

 Normal termination of Gaussian 16 at Sat Sep 11 18:53:13 2021.
