 Gaussian 16, Revision A.03,
 Gaussian 16:  ES64L-G16RevA.03 25-Dec-2016

 -----------------------------------
 #p cam-b3lyp/Def2SVP td=(nstates=5)
 -----------------------------------

 --------------------------------
 TDDFT excited states in gaussian
 --------------------------------
 Symbolic Z-matrix:
 Charge =  0 Multiplicity = 1

                         Standard orientation:
 ---------------------------------------------------------------------
 Center     Atomic      Atomic             Coordinates (Angstroms)
 Number     Number       Type             X           Y           Z
 ---------------------------------------------------------------------
      1         12           0       -5.233222   -0.707131   -0.336099
      2          6           0       -5.624536    1.883163    2.103053
      3          6           0       -5.983672    1.622882   -2.713267
      4          6           0       -5.340202   -3.063107   -2.456136
      5          6           0       -5.635787   -3.003791    2.254066
      6          7           0       -5.721580    1.447669   -0.198302
      7          6           0       -5.779665    2.334361    0.790422
      8          6           0       -5.945887    3.802123    0.295024
      9          6           0       -6.604864    3.514404   -1.127988
     10          6           0       -6.042637    2.126462   -1.379865
     11          6           0       -8.127177    3.427912   -1.088170
     12          6           0       -4.572501    4.540352    0.151644
     13          6           0       -4.661620    6.060670   -0.009749
     14          1           0       -3.632745    6.890922    0.598071
     15          7           0       -5.125924   -0.661883   -2.308228
     16          6           0       -5.456075    0.376199   -3.113629
     17          6           0       -5.201200   -0.083267   -4.495878
     18          6           0       -4.876667   -1.535731   -4.440013
     19          6           0       -5.130194   -1.821238   -3.050917
     20          6           0       -5.229602    0.828088   -5.684311
     21          6           0       -4.421899   -2.513852   -5.476641
     22          8           0       -4.421219   -3.775185   -5.267800
     23          6           0       -4.056123   -1.955571   -6.791012
     24          7           0       -5.673805   -2.741414   -0.177316
     25          6           0       -5.590137   -3.550510   -1.239083
     26          6           0       -5.671130   -4.992590   -0.834384
     27          6           0       -5.583721   -5.009892    0.759923
     28          6           0       -5.547777   -3.482150    1.010886
     29          6           0       -6.931414   -5.744270   -1.284574
     30          6           0       -4.475673   -5.887773    1.393936
     31          6           0       -3.115715   -5.311259    1.069523
     32          7           0       -5.394263   -0.616973    1.826534
     33          6           0       -5.579364   -1.695228    2.703904
     34          6           0       -5.737937   -1.129459    4.056245
     35          6           0       -5.650054    0.248482    3.868093
     36          6           0       -5.475567    0.527121    2.482377
     37          6           0       -5.991947   -1.869439    5.244665
     38          6           0       -5.687624    1.551384    4.512214
     39          8           0       -5.718389    1.940544    5.680589
     40          6           0       -5.794680    2.666800    3.380750
     41          6           0       -4.778137    3.730746    3.693748
     42          8           0       -3.556001    3.486698    3.629008
     43          8           0       -5.393192    4.919717    3.786471
     44          6           0       -4.436755    6.023777    4.066530
     45          1           0       -6.434203    2.206663   -3.518353
     46          1           0       -5.273893   -3.912483   -3.139218
     47          1           0       -5.680575   -3.663267    3.122707
     48          1           0       -6.616998    4.412579    0.899489
     49          1           0       -6.251113    4.210296   -1.888460
     50          1           0       -8.500839    3.450065   -0.064546
     51          1           0       -8.377382    2.479672   -1.564333
     52          1           0       -8.575597    4.203050   -1.710150
     53          1           0       -4.121784    4.278273   -0.805555
     54          1           0       -3.918285    4.304721    0.991766
     55          1           0       -5.653845    6.431459    0.248925
     56          1           0       -4.550699    6.298911   -1.067642
     57          1           0       -5.658783    1.797781   -5.435226
     58          1           0       -5.929679    0.396845   -6.399595
     59          1           0       -4.247731    0.930168   -6.146742
     60          1           0       -4.913550   -1.427726   -7.209042
     61          1           0       -3.670874   -2.790260   -7.375587
     62          1           0       -3.274147   -1.208471   -6.652067
     63          1           0       -4.837243   -5.561140   -1.244030
     64          1           0       -6.504724   -5.373640    1.216120
     65          1           0       -6.721809   -6.633145   -1.880118
     66          1           0       -7.562466   -5.045744   -1.833325
     67          1           0       -7.596030   -6.047566   -0.476048
     68          1           0       -4.504909   -6.894274    0.977948
     69          1           0       -4.562007   -5.973972    2.477157
     70          1           0       -2.909705   -5.715907    0.079244
     71          1           0       -2.375020   -5.653576    1.792989
     72          1           0       -3.155432   -4.225811    0.976194
     73          1           0       -5.346715   -1.443550    6.012951
     74          1           0       -5.789783   -2.930639    5.101182
     75          1           0       -7.052166   -1.662110    5.388908
     76          1           0       -6.813549    3.051316    3.415044
     77          1           0       -4.781978    6.525986    4.970323
     78          1           0       -4.370059    6.615131    3.153153
     79          1           0       -3.431724    5.726123    4.367617
     80         12           0        5.320496   -0.576500    0.352195
     81          6           0        5.264001    2.000570   -2.144722
     82          6           0        6.383904    1.794683    2.561550
     83          6           0        5.812564   -2.899938    2.456221
     84          6           0        5.369487   -2.899462   -2.245329
     85          7           0        5.732789    1.584066    0.119300
     86          6           0        5.616764    2.466979   -0.861185
     87          6           0        5.816128    3.943125   -0.424399
     88          6           0        6.705786    3.687547    0.887872
     89          6           0        6.224313    2.281419    1.239543
     90          6           0        8.196796    3.624083    0.601149
     91          6           0        4.460720    4.650089   -0.070721
     92          6           0        4.545387    6.172009    0.064681
     93          1           0        3.408453    6.974487   -0.377896
     94          7           0        5.521872   -0.501059    2.325092
     95          6           0        5.944132    0.548848    3.060391
     96          6           0        5.935617    0.090451    4.458227
     97          6           0        5.631633   -1.366294    4.472315
     98          6           0        5.664819   -1.656245    3.052836
     99          6           0        6.121185    1.021497    5.621037
    100          6           0        5.368835   -2.340197    5.580770
    101          8           0        5.362629   -3.605737    5.377794
    102          6           0        5.211611   -1.773199    6.928090
    103          7           0        5.770215   -2.595557    0.143666
    104          6           0        5.880129   -3.394079    1.219868
    105          6           0        5.932740   -4.848458    0.816885
    106          6           0        5.590487   -4.874126   -0.745097
    107          6           0        5.482159   -3.355605   -1.005411
    108          6           0        7.265277   -5.557610    1.057356
    109          6           0        4.416063   -5.786534   -1.193343
    110          6           0        3.109628   -5.246906   -0.657242
    111          7           0        5.132459   -0.508374   -1.799100
    112          6           0        5.208049   -1.595811   -2.696796
    113          6           0        5.137648   -1.038227   -4.063018
    114          6           0        5.048458    0.347782   -3.864261
    115          6           0        5.082632    0.635250   -2.472971
    116          6           0        5.207805   -1.786812   -5.271659
    117          6           0        4.943861    1.633782   -4.515377
    118          8           0        4.788147    2.009443   -5.676568
    119          6           0        5.206159    2.769931   -3.435208
    120          6           0        4.129113    3.809408   -3.583520
    121          8           0        2.942969    3.530466   -3.334814
    122          8           0        4.700850    5.011053   -3.782372
    123          6           0        3.673126    6.076632   -3.924340
    124          1           0        6.935340    2.406003    3.276460
    125          1           0        5.874503   -3.747717    3.142451
    126          1           0        5.279953   -3.565234   -3.106385
    127          1           0        6.363059    4.555977   -1.130836
    128          1           0        6.451305    4.386941    1.679983
    129          1           0        8.404499    3.643605   -0.458392
    130          1           0        8.540920    2.695336    1.037098
    131          1           0        8.718342    4.420969    1.139018
    132          1           0        4.176157    4.385668    0.955853
    133          1           0        3.699754    4.392314   -0.781445
    134          1           0        5.480656    6.571004   -0.346443
    135          1           0        4.590601    6.423892    1.126998
    136          1           0        6.489764    2.002318    5.296170
    137          1           0        6.934963    0.613753    6.230445
    138          1           0        5.225118    1.106842    6.239473
    139          1           0        6.109488   -1.220597    7.194370
    140          1           0        4.941946   -2.614444    7.569537
    141          1           0        4.390068   -1.048405    6.908957
    142          1           0        5.186263   -5.424635    1.349703
    143          1           0        6.440349   -5.235538   -1.342553
    144          1           0        7.172649   -6.455524    1.697072
    145          1           0        7.955240   -4.848425    1.495027
    146          1           0        7.792697   -5.867363    0.156747
    147          1           0        4.533513   -6.788624   -0.773633
    148          1           0        4.340214   -5.895227   -2.270104
    149          1           0        3.077961   -5.644427    0.361607
    150          1           0        2.272726   -5.611586   -1.249391
    151          1           0        3.135992   -4.153482   -0.583788
    152          1           0        4.447118   -1.387973   -5.929513
    153          1           0        5.060360   -2.849422   -5.090320
    154          1           0        6.231779   -1.561481   -5.581475
    155          1           0        6.199132    3.179331   -3.624889
    156          1           0        3.862768    6.578346   -4.878290
    157          1           0        3.751284    6.691072   -3.007771
    158          1           0        2.642671    5.765546   -4.050176
 ---------------------------------------------------------------------

 SCF Done:  E(RCAM-B3LYP) =  -4069.81217083     A.U. after   19 cycles

 Excitation energies and oscillator strengths:

 Excited State   1:      Singlet-A      1.6582 eV  747.73 nm  f=0.0114  <S**2>=0.000
     309 -> 315        0.12739
     310 -> 316        0.11183
     311 -> 313        0.51705
     312 -> 314        0.45253
 This state for optimization and/or second-order correction.
 Total Energy, E(TD-HF/TD-DFT) =  -4069.75123492
 Copying the excited state density for this state as the 1-particle RhoCI density.

 Excited State   2:      Singlet-A      1.6963 eV  730.90 nm  f=0.7131  <S**2>=0.000
     309 -> 315       -0.11788
     310 -> 316        0.13519
     311 -> 313       -0.45099
     312 -> 314        0.51524

 Excited State   3:      Singlet-A      2.1845 eV  567.57 nm  f=0.0251  <S**2>=0.000
     309 -> 313        0.58561
     310 -> 314       -0.26714
     311 -> 315       -0.24691
     312 -> 316        0.11184

 Excited State   4:      Singlet-A      2.1950 eV  564.84 nm  f=0.1573  <S**2>=0.000
     309 -> 313        0.26457
     310 -> 314        0.58236
     311 -> 315       -0.11648
     312 -> 316       -0.25493

 Excited State   5:      Singlet-A      2.5587 eV  484.56 nm  f=0.0000  <S**2>=0.000
     312 -> 313        0.70709

 The electronic state is 1-A.
 Alpha  occ. eigenvalues --  -46.87563 -46.87532 -19.26354 -19.26173 -19.19150
 Alpha  occ. eigenvalues --  -19.18891 -19.18565 -19.18561 -19.17990 -19.17986
 Alpha  occ. eigenvalues --  -14.42372 -14.42221 -14.41239 -14.41227 -14.39220
 Alpha  occ. eigenvalues --  -14.39163 -14.38482 -14.38364 -10.39073 -10.38946
 Alpha  occ. eigenvalues --  -10.35239 -10.35190 -10.34212 -10.34165 -10.31801
 Alpha  occ. eigenvalues --  -10.31608 -10.31200 -10.31191 -10.30897 -10.30675
 Alpha  occ. eigenvalues --  -10.30348 -10.30288 -10.30280 -10.30247 -10.30008
 Alpha  occ. eigenvalues --  -10.29975 -10.29788 -10.29718 -10.29404 -10.29303
 Alpha  occ. eigenvalues --  -10.29280 -10.29014 -10.28610 -10.28567 -10.28536
 Alpha  occ. eigenvalues --  -10.28354 -10.28285 -10.28136 -10.28032 -10.27905
 Alpha  occ. eigenvalues --  -10.27886 -10.27568 -10.27544 -10.27497 -10.27404
 Alpha  occ. eigenvalues --  -10.27370 -10.27344 -10.27336 -10.27308 -10.27289
 Alpha  occ. eigenvalues --  -10.27271 -10.27266 -10.27187 -10.27173 -10.26989
 Alpha  occ. eigenvalues --  -10.26986 -10.26567 -10.26470 -10.26220 -10.26094
 Alpha  occ. eigenvalues --  -10.26048 -10.26018 -10.26002 -10.25936 -10.25813
 Alpha  occ. eigenvalues --  -10.25798 -10.25776 -10.25668 -10.25309 -10.25272
 Alpha  occ. eigenvalues --  -10.24765 -10.24617 -10.24596 -10.24574 -10.24570
 Alpha  occ. eigenvalues --  -10.24497  -3.16305  -3.16281  -1.91186  -1.91163
 Alpha  occ. eigenvalues --   -1.90773  -1.90752  -1.90615  -1.90589  -1.16643
 Alpha  occ. eigenvalues --   -1.16517  -1.08603  -1.08456  -1.06962  -1.06935
 Alpha  occ. eigenvalues --   -1.06816  -1.06514  -1.04373  -1.04354  -1.03540
 Alpha  occ. eigenvalues --   -1.03537  -1.03006  -1.02918  -1.02187  -1.01993
 Alpha  occ. eigenvalues --   -0.91887  -0.91766  -0.89380  -0.89315  -0.89041
 Alpha  occ. eigenvalues --   -0.88975  -0.88108  -0.88087  -0.87693  -0.87663
 Alpha  occ. eigenvalues --   -0.87565  -0.87449  -0.87011  -0.86970  -0.84888
 Alpha  occ. eigenvalues --   -0.84767  -0.83771  -0.83748  -0.82786  -0.82713
 Alpha  occ. eigenvalues --   -0.82536  -0.82432  -0.81535  -0.81417  -0.80391
 Alpha  occ. eigenvalues --   -0.80348  -0.78554  -0.78505  -0.77031  -0.77007
 Alpha  occ. eigenvalues --   -0.76812  -0.76748  -0.75751  -0.75732  -0.74708
 Alpha  occ. eigenvalues --   -0.74704  -0.72586  -0.72559  -0.71478  -0.71469
 Alpha  occ. eigenvalues --   -0.69713  -0.69641  -0.68717  -0.68658  -0.67492
 Alpha  occ. eigenvalues --   -0.67425  -0.67074  -0.66990  -0.65169  -0.65078
 Alpha  occ. eigenvalues --   -0.64671  -0.64656  -0.64559  -0.64423  -0.64095
 Alpha  occ. eigenvalues --   -0.64066  -0.62224  -0.62140  -0.60205  -0.60200
 Alpha  occ. eigenvalues --   -0.59684  -0.59587  -0.58887  -0.58780  -0.58327
 Alpha  occ. eigenvalues --   -0.58298  -0.57494  -0.57412  -0.57126  -0.57104
 Alpha  occ. eigenvalues --   -0.56100  -0.56096  -0.55827  -0.55822  -0.55347
 Alpha  occ. eigenvalues --   -0.55292  -0.55162  -0.55161  -0.54413  -0.54357
 Alpha  occ. eigenvalues --   -0.53803  -0.53682  -0.53116  -0.53083  -0.53039
 Alpha  occ. eigenvalues --   -0.52996  -0.52810  -0.52725  -0.52518  -0.52500
 Alpha  occ. eigenvalues --   -0.52285  -0.52247  -0.51802  -0.51725  -0.51540
 Alpha  occ. eigenvalues --   -0.51391  -0.51111  -0.51002  -0.50312  -0.50287
 Alpha  occ. eigenvalues --   -0.49854  -0.49822  -0.49749  -0.49678  -0.49365
 Alpha  occ. eigenvalues --   -0.49292  -0.49099  -0.49013  -0.49004  -0.48899
 Alpha  occ. eigenvalues --   -0.48477  -0.48410  -0.48288  -0.48276  -0.48208
 Alpha  occ. eigenvalues --   -0.48205  -0.47485  -0.47479  -0.47077  -0.47002
 Alpha  occ. eigenvalues --   -0.46602  -0.46590  -0.46444  -0.46346  -0.46161
 Alpha  occ. eigenvalues --   -0.46146  -0.45995  -0.45973  -0.45754  -0.45651
 Alpha  occ. eigenvalues --   -0.45104  -0.45006  -0.44431  -0.44395  -0.44364
 Alpha  occ. eigenvalues --   -0.44276  -0.44034  -0.43968  -0.43936  -0.43889
 Alpha  occ. eigenvalues --   -0.43815  -0.43798  -0.43498  -0.43325  -0.43285
 Alpha  occ. eigenvalues --   -0.43175  -0.42888  -0.42825  -0.42809  -0.42557
 Alpha  occ. eigenvalues --   -0.42465  -0.42432  -0.41854  -0.41814  -0.41576
 Alpha  occ. eigenvalues --   -0.41503  -0.41349  -0.41325  -0.40936  -0.40886
 Alpha  occ. eigenvalues --   -0.40662  -0.40603  -0.40570  -0.40562  -0.40386
 Alpha  occ. eigenvalues --   -0.40376  -0.40101  -0.40006  -0.39306  -0.39247
 Alpha  occ. eigenvalues --   -0.38270  -0.38240  -0.37549  -0.37539  -0.37154
 Alpha  occ. eigenvalues --   -0.37113  -0.37086  -0.37046  -0.36740  -0.36566
 Alpha  occ. eigenvalues --   -0.36125  -0.36010  -0.34141  -0.34067  -0.33831
 Alpha  occ. eigenvalues --   -0.33624  -0.33060  -0.32969  -0.31128  -0.31095
 Alpha  occ. eigenvalues --   -0.30857  -0.30817  -0.29895  -0.29854  -0.29211
 Alpha  occ. eigenvalues --   -0.29199  -0.29099  -0.29099  -0.23918  -0.23858
 Alpha  occ. eigenvalues --   -0.20995  -0.20902
 Alpha virt. eigenvalues --   -0.08671  -0.08544  -0.01559  -0.01522   0.00104
 Alpha virt. eigenvalues --    0.00184   0.02301   0.02401   0.03329   0.03506
 Alpha virt. eigenvalues --    0.04840   0.04931   0.05191   0.05240   0.06267

 Mulliken charges:
               1
     1  Mg   0.840213
     2  C   -0.002858
     3  C   -0.092911
     4  C   -0.046048
     5  C   -0.064112
     6  N   -0.256798
     7  C   -0.052403
     8  C   -0.014257
     9  C   -0.087280
    10  C    0.046919
    11  C    0.104883
    12  C    0.053132
    13  C   -0.071218
    14  H    0.034568
    15  N   -0.433245
    16  C    0.169472
    17  C   -0.175825
    18  C   -0.003367
    19  C    0.149149
    20  C    0.109994
    21  C    0.012892
    22  O   -0.250444
    23  C    0.061756
    24  N   -0.341186
    25  C    0.041429
    26  C   -0.028078
    27  C   -0.023776
    28  C    0.074636
    29  C    0.076340
    30  C    0.035240
    31  C   -0.004479
    32  N   -0.310253
    33  C    0.080085
    34  C   -0.170199
    35  C    0.007837
    36  C    0.082810
    37  C    0.127465
    38  C    0.045582
    39  O   -0.189853
    40  C   -0.005275
    41  C    0.212654
    42  O   -0.257286
    43  O   -0.304698
    44  C    0.158211
    45  H   -0.017677
    46  H   -0.017218
    47  H   -0.042013
    48  H    0.000193
    49  H   -0.003616
    50  H    0.025095
    51  H    0.016367
    52  H    0.016345
    53  H    0.013675
    54  H    0.044021
    55  H    0.017128
    56  H    0.018425
    57  H    0.005815
    58  H    0.026189
    59  H    0.042642
    60  H    0.036891
    61  H    0.035209
    62  H    0.034544
    63  H    0.016192
    64  H    0.009005
    65  H    0.022771
    66  H    0.012512
    67  H    0.004432
    68  H    0.005678
    69  H    0.004603
    70  H    0.008066
    71  H    0.018425
    72  H    0.029609
    73  H    0.046759
    74  H    0.008955
    75  H    0.045464
    76  H    0.034725
    77  H    0.042193
    78  H    0.046498
    79  H    0.052677
    80  Mg   0.839079
    81  C   -0.016846
    82  C   -0.087142
    83  C   -0.045449
    84  C   -0.064806
    85  N   -0.254605
    86  C   -0.049723
    87  C   -0.015380
    88  C   -0.090689
    89  C    0.046291
    90  C    0.114420
    91  C    0.062280
    92  C   -0.077450
    93  H    0.033647
    94  N   -0.423565
    95  C    0.163880
    96  C   -0.173899
    97  C   -0.007202
    98  C    0.152512
    99  C    0.099312
   100  C    0.016196
   101  O   -0.253506
   102  C    0.060669
   103  N   -0.350060
   104  C    0.037689
   105  C   -0.019821
   106  C   -0.034712
   107  C    0.088764
   108  C    0.073780
   109  C    0.034787
   110  C   -0.007801
   111  N   -0.323886
   112  C    0.078192
   113  C   -0.163519
   114  C    0.001606
   115  C    0.096141
   116  C    0.131676
   117  C    0.041751
   118  O   -0.189509
   119  C    0.001062
   120  C    0.210915
   121  O   -0.251364
   122  O   -0.305439
   123  C    0.152619
   124  H   -0.019678
   125  H   -0.015679
   126  H   -0.040653
   127  H   -0.001295
   128  H   -0.003978
   129  H    0.022138
   130  H    0.014397
   131  H    0.016099
   132  H    0.015852
   133  H    0.037583
   134  H    0.020161
   135  H    0.020140
   136  H    0.008744
   137  H    0.025799
   138  H    0.041769
   139  H    0.037892
   140  H    0.036353
   141  H    0.035897
   142  H    0.014342
   143  H    0.012068
   144  H    0.024913
   145  H    0.011549
   146  H    0.005455
   147  H    0.005770
   148  H    0.003760
   149  H    0.010415
   150  H    0.018674
   151  H    0.030497
   152  H    0.044956
   153  H    0.008742
   154  H    0.046505
   155  H    0.034707
   156  H    0.043145
   157  H    0.049806
   158  H    0.052259
 Sum of Mulliken charges =  -0.00000

 Dipole moment (field-independent basis, Debye):
    X=              0.5588    Y=              3.1460    Z=             -0.5443  Tot=              3.2413
 Quadrupole moment (field-independent basis, Debye-Ang):
   XX=           -476.1325   YY=           -461.3302   ZZ=           -540.1125
   XY=              4.6166   XZ=             37.9337   YZ=             -0.2011

 Normal termination of Gaussian 16 at Fri Sep 10 13:44:26 2021.
