 Gaussian 16, Revision A.03,
 Gaussian 16:  ES64L-G16RevA.03 25-Dec-2016

 -----------------------------------
 #p cam-b3lyp/Def2SVP td=(nstates=5)
 -----------------------------------

 --------------------------------
 TDDFT excited states in gaussian
 --------------------------------
 Symbolic Z-matrix:
 Charge =  0 Multiplicity = 1

                         Standard orientation:
 ---------------------------------------------------------------------
 Center     Atomic      Atomic             Coordinates (Angstroms)
 Number     Number       Type             X           Y           Z
 ---------------------------------------------------------------------
      1         12           0        4.673010   -0.147773   -0.094903
      2          6           0        4.181676   -3.655657   -0.610220
      3          6           0        5.393094    0.088787   -3.421851
      4          6           0        5.552006    2.855379    0.419942
      5          6           0        5.028850   -0.846488    3.300805
      6          7           0        4.743101   -1.662034   -1.708206
      7          6           0        4.475257   -2.961781   -1.786226
      8          6           0        4.461627   -3.503171   -3.247077
      9          6           0        5.392783   -2.404657   -3.931340
     10          6           0        5.135181   -1.244747   -2.985733
     11          6           0        6.877295   -2.752426   -3.889119
     12          6           0        3.024142   -3.502856   -3.867856
     13          6           0        2.869807   -4.311926   -5.158957
     14          1           0        1.622652   -5.023569   -5.394575
     15          7           0        4.895653    1.356204   -1.356385
     16          6           0        5.169353    1.269008   -2.680307
     17          6           0        5.237821    2.660908   -3.174884
     18          6           0        5.169843    3.566964   -1.994827
     19          6           0        5.230293    2.616382   -0.914032
     20          6           0        5.306298    3.015114   -4.628707
     21          6           0        5.077322    5.054236   -1.862188
     22          8           0        5.263679    5.650523   -0.746711
     23          6           0        4.847249    5.811629   -3.105757
     24          7           0        5.432027    0.842678    1.578577
     25          6           0        5.673775    2.157896    1.551285
     26          6           0        5.937963    2.693167    2.927376
     27          6           0        5.585720    1.508011    3.937863
     28          6           0        5.238841    0.410128    2.902200
     29          6           0        7.368883    3.181330    3.192281
     30          6           0        4.558611    1.818702    5.055422
     31          6           0        3.193387    2.050780    4.447639
     32          7           0        4.446268   -1.891273    1.177826
     33          6           0        4.667023   -1.959896    2.561023
     34          6           0        4.491507   -3.369290    2.957091
     35          6           0        4.195204   -4.029733    1.766350
     36          6           0        4.212028   -3.096785    0.690423
     37          6           0        4.666632   -3.894623    4.267736
     38          6           0        3.892541   -5.310815    1.149033
     39          8           0        3.655471   -6.443034    1.572555
     40          6           0        3.991623   -5.141388   -0.431253
     41          6           0        2.765239   -5.771000   -1.033647
     42          8           0        1.634299   -5.279027   -0.843112
     43          8           0        3.136161   -6.703084   -1.924814
     44          6           0        1.966570   -7.346163   -2.581062
     45          1           0        5.863582    0.244270   -4.394686
     46          1           0        5.753429    3.901516    0.659662
     47          1           0        5.041182   -1.125258    4.356072
     48          1           0        4.902091   -4.492878   -3.369124
     49          1           0        5.056106   -2.155322   -4.937423
     50          1           0        7.061984   -3.637507   -3.280480
     51          1           0        7.367930   -1.881746   -3.453587
     52          1           0        7.280916   -2.850788   -4.897183
     53          1           0        2.795785   -2.506072   -4.245130
     54          1           0        2.288817   -3.844211   -3.138405
     55          1           0        3.722566   -4.972061   -5.319990
     56          1           0        2.899759   -3.620380   -6.001018
     57          1           0        5.509137    2.140119   -5.244973
     58          1           0        6.182519    3.649514   -4.760929
     59          1           0        4.414757    3.545002   -4.964423
     60          1           0        5.656442    5.606549   -3.806968
     61          1           0        4.720125    6.851139   -2.805577
     62          1           0        3.933714    5.447742   -3.576916
     63          1           0        5.299224    3.548571    3.143529
     64          1           0        6.465451    1.154374    4.476090
     65          1           0        7.423479    4.219070    3.522158
     66          1           0        7.950666    3.028678    2.283702
     67          1           0        7.929575    2.584777    3.911424
     68          1           0        4.835060    2.731944    5.581264
     69          1           0        4.473706    1.022720    5.795324
     70          1           0        3.233051    3.098858    4.153036
     71          1           0        2.412824    1.883327    5.190534
     72          1           0        3.056298    1.462222    3.540285
     73          1           0        3.835538   -4.579567    4.435381
     74          1           0        4.682124   -3.100466    5.013844
     75          1           0        5.633564   -4.386010    4.160791
     76          1           0        4.905870   -5.644967   -0.743795
     77          1           0        2.059353   -8.420436   -2.421178
     78          1           0        1.952602   -6.987136   -3.610289
     79          1           0        0.993508   -7.153918   -2.127706
     80         12           0       -4.157301    1.526347    0.478687
     81          6           0       -6.120441   -1.475474    0.359418
     82          6           0       -4.985958    2.020347   -2.793002
     83          6           0       -2.081523    3.925293    0.418296
     84          6           0       -2.592153    0.224948    3.307526
     85          7           0       -5.400138    0.354141   -0.926153
     86          6           0       -6.146322   -0.736937   -0.841965
     87          6           0       -7.028722   -1.010519   -2.089399
     88          6           0       -6.164157   -0.205010   -3.176851
     89          6           0       -5.497680    0.813071   -2.253823
     90          6           0       -5.076822   -1.046349   -3.824305
     91          6           0       -8.471463   -0.411011   -1.944107
     92          6           0       -9.479908   -0.902500   -2.984885
     93          1           0      -10.868883   -1.088904   -2.574418
     94          7           0       -3.985484    3.044394   -0.788046
     95          6           0       -4.396929    3.082729   -2.072767
     96          6           0       -4.020926    4.412928   -2.576117
     97          6           0       -3.207329    5.096066   -1.533955
     98          6           0       -3.038695    4.016769   -0.581703
     99          6           0       -4.498007    4.948730   -3.894727
    100          6           0       -2.659499    6.486424   -1.420050
    101          8           0       -1.779317    6.793375   -0.540341
    102          6           0       -3.114406    7.454949   -2.428274
    103          7           0       -2.423123    1.917787    1.556525
    104          6           0       -1.736800    3.059088    1.371280
    105          6           0       -0.690132    3.246361    2.443560
    106          6           0       -0.979500    2.108786    3.529739
    107          6           0       -2.138623    1.372710    2.822619
    108          6           0        0.762859    3.148480    1.979212
    109          6           0       -1.185058    2.573250    4.997628
    110          6           0       -2.467428    3.365373    5.113543
    111          7           0       -4.428466   -0.198345    1.751458
    112          6           0       -3.645208   -0.566620    2.867238
    113          6           0       -4.145701   -1.874448    3.337906
    114          6           0       -5.178559   -2.189632    2.442169
    115          6           0       -5.298975   -1.161098    1.468978
    116          6           0       -3.618432   -2.623912    4.427129
    117          6           0       -6.187317   -3.163622    2.092250
    118          8           0       -6.611181   -4.198144    2.605916
    119          6           0       -6.758325   -2.804978    0.652909
    120          6           0       -8.259857   -2.861753    0.721510
    121          8           0       -8.891540   -2.052509    1.423438
    122          8           0       -8.711797   -3.715233   -0.215347
    123          6           0      -10.196599   -3.797280   -0.194035
    124          1           0       -4.997395    2.151051   -3.875432
    125          1           0       -1.410714    4.782791    0.508761
    126          1           0       -2.221709   -0.200792    4.242506
    127          1           0       -7.103962   -2.053515   -2.372700
    128          1           0       -6.804534    0.296086   -3.898084
    129          1           0       -4.988067   -2.017040   -3.359507
    130          1           0       -4.159764   -0.484406   -3.704867
    131          1           0       -5.247758   -1.118649   -4.902211
    132          1           0       -8.443126    0.656155   -2.199260
    133          1           0       -8.857535   -0.581901   -0.958021
    134          1           0       -9.117202   -1.785144   -3.525567
    135          1           0       -9.581193   -0.137290   -3.758332
    136          1           0       -4.943088    4.159009   -4.512518
    137          1           0       -3.609173    5.261897   -4.453080
    138          1           0       -5.166106    5.805550   -3.784367
    139          1           0       -2.858160    7.090771   -3.420321
    140          1           0       -2.684601    8.412653   -2.128341
    141          1           0       -4.207748    7.514754   -2.387673
    142          1           0       -0.789185    4.216190    2.915489
    143          1           0       -0.148395    1.391754    3.600122
    144          1           0        1.357787    4.051329    2.213740
    145          1           0        0.768733    2.955142    0.914732
    146          1           0        1.316769    2.297374    2.371661
    147          1           0       -0.377233    3.244607    5.299062
    148          1           0       -1.207098    1.755583    5.710318
    149          1           0       -2.166629    4.369290    4.799311
    150          1           0       -2.826803    3.364369    6.140621
    151          1           0       -3.217325    3.007068    4.398746
    152          1           0       -4.465469   -2.996177    4.987895
    153          1           0       -2.965244   -2.015467    5.049157
    154          1           0       -3.066185   -3.395374    3.883854
    155          1           0       -6.352868   -3.532736   -0.051049
    156          1           0      -10.456479   -4.852948   -0.068670
    157          1           0      -10.536547   -3.301694   -1.122786
    158          1           0      -10.711156   -3.351245    0.649017
 ---------------------------------------------------------------------

 SCF Done:  E(RCAM-B3LYP) =  -4069.81117281     A.U. after   19 cycles

 Excitation energies and oscillator strengths:

 Excited State   1:      Singlet-A      1.6465 eV  753.03 nm  f=0.0022  <S**2>=0.000
     309 -> 315       -0.11223
     310 -> 316        0.12296
     311 -> 313       -0.46195
     312 -> 314        0.50941
 This state for optimization and/or second-order correction.
 Total Energy, E(TD-HF/TD-DFT) =  -4069.75066619
 Copying the excited state density for this state as the 1-particle RhoCI density.

 Excited State   2:      Singlet-A      1.7051 eV  727.14 nm  f=0.6898  <S**2>=0.000
     309 -> 315        0.13495
     310 -> 316        0.12140
     311 -> 313        0.50676
     312 -> 314        0.45955

 Excited State   3:      Singlet-A      2.1811 eV  568.44 nm  f=0.0431  <S**2>=0.000
     309 -> 313       -0.27675
     310 -> 314        0.58258
     311 -> 315        0.11394
     312 -> 316       -0.24247

 Excited State   4:      Singlet-A      2.1969 eV  564.36 nm  f=0.1400  <S**2>=0.000
     309 -> 313        0.57782
     310 -> 314        0.27203
     311 -> 315       -0.25455
     312 -> 316       -0.12288

 Excited State   5:      Singlet-A      2.3472 eV  528.22 nm  f=0.0000  <S**2>=0.000
     312 -> 313        0.70667

 The electronic state is 1-A.
 Alpha  occ. eigenvalues --  -46.87878 -46.87426 -19.26309 -19.26162 -19.19047
 Alpha  occ. eigenvalues --  -19.18965 -19.18786 -19.18524 -19.18208 -19.17797
 Alpha  occ. eigenvalues --  -14.42527 -14.42270 -14.41548 -14.41124 -14.39468
 Alpha  occ. eigenvalues --  -14.39126 -14.38667 -14.38353 -10.39110 -10.38889
 Alpha  occ. eigenvalues --  -10.35417 -10.35207 -10.34430 -10.33973 -10.31696
 Alpha  occ. eigenvalues --  -10.31595 -10.31489 -10.31074 -10.30967 -10.30819
 Alpha  occ. eigenvalues --  -10.30652 -10.30582 -10.30309 -10.30152 -10.30117
 Alpha  occ. eigenvalues --  -10.30026 -10.29922 -10.29694 -10.29636 -10.29318
 Alpha  occ. eigenvalues --  -10.29212 -10.29166 -10.28818 -10.28627 -10.28533
 Alpha  occ. eigenvalues --  -10.28524 -10.28423 -10.28190 -10.28176 -10.27951
 Alpha  occ. eigenvalues --  -10.27849 -10.27806 -10.27761 -10.27667 -10.27636
 Alpha  occ. eigenvalues --  -10.27585 -10.27526 -10.27471 -10.27452 -10.27336
 Alpha  occ. eigenvalues --  -10.27287 -10.27252 -10.27246 -10.27203 -10.27123
 Alpha  occ. eigenvalues --  -10.26807 -10.26782 -10.26534 -10.26440 -10.26327
 Alpha  occ. eigenvalues --  -10.26300 -10.26295 -10.26126 -10.25996 -10.25918
 Alpha  occ. eigenvalues --  -10.25837 -10.25696 -10.25532 -10.25499 -10.25119
 Alpha  occ. eigenvalues --  -10.25049 -10.24889 -10.24870 -10.24619 -10.24590
 Alpha  occ. eigenvalues --  -10.24448  -3.16621  -3.16176  -1.91502  -1.91089
 Alpha  occ. eigenvalues --   -1.91058  -1.90930  -1.90647  -1.90484  -1.16659
 Alpha  occ. eigenvalues --   -1.16453  -1.08664  -1.08403  -1.07178  -1.06779
 Alpha  occ. eigenvalues --   -1.06748  -1.06669  -1.04654  -1.04270  -1.03848
 Alpha  occ. eigenvalues --   -1.03432  -1.03309  -1.02801  -1.02491  -1.01872
 Alpha  occ. eigenvalues --   -0.92037  -0.91750  -0.89671  -0.89276  -0.89263
 Alpha  occ. eigenvalues --   -0.88959  -0.88425  -0.87994  -0.87938  -0.87754
 Alpha  occ. eigenvalues --   -0.87520  -0.87458  -0.87304  -0.86933  -0.85054
 Alpha  occ. eigenvalues --   -0.84803  -0.84112  -0.83656  -0.83007  -0.82759
 Alpha  occ. eigenvalues --   -0.82699  -0.82461  -0.81644  -0.81383  -0.80655
 Alpha  occ. eigenvalues --   -0.80231  -0.78849  -0.78421  -0.77332  -0.77026
 Alpha  occ. eigenvalues --   -0.76937  -0.76694  -0.75993  -0.75633  -0.75022
 Alpha  occ. eigenvalues --   -0.74565  -0.72861  -0.72459  -0.71751  -0.71361
 Alpha  occ. eigenvalues --   -0.70167  -0.69529  -0.68940  -0.68630  -0.67701
 Alpha  occ. eigenvalues --   -0.67379  -0.67271  -0.67021  -0.65367  -0.65071
 Alpha  occ. eigenvalues --   -0.64941  -0.64718  -0.64549  -0.64453  -0.64396
 Alpha  occ. eigenvalues --   -0.63982  -0.62360  -0.62071  -0.60500  -0.60133
 Alpha  occ. eigenvalues --   -0.59874  -0.59587  -0.59071  -0.58762  -0.58581
 Alpha  occ. eigenvalues --   -0.58201  -0.57638  -0.57394  -0.57320  -0.57016
 Alpha  occ. eigenvalues --   -0.56370  -0.56026  -0.55981  -0.55693  -0.55568
 Alpha  occ. eigenvalues --   -0.55459  -0.55252  -0.55025  -0.54631  -0.54280
 Alpha  occ. eigenvalues --   -0.53967  -0.53723  -0.53376  -0.53257  -0.53024
 Alpha  occ. eigenvalues --   -0.52994  -0.52941  -0.52796  -0.52707  -0.52646
 Alpha  occ. eigenvalues --   -0.52506  -0.52227  -0.51986  -0.51665  -0.51573
 Alpha  occ. eigenvalues --   -0.51472  -0.51296  -0.50978  -0.50599  -0.50321
 Alpha  occ. eigenvalues --   -0.50194  -0.49958  -0.49795  -0.49677  -0.49551
 Alpha  occ. eigenvalues --   -0.49300  -0.49263  -0.49160  -0.48995  -0.48888
 Alpha  occ. eigenvalues --   -0.48662  -0.48548  -0.48453  -0.48343  -0.48167
 Alpha  occ. eigenvalues --   -0.48142  -0.47769  -0.47403  -0.47358  -0.46994
 Alpha  occ. eigenvalues --   -0.46873  -0.46625  -0.46510  -0.46444  -0.46363
 Alpha  occ. eigenvalues --   -0.46276  -0.46040  -0.45902  -0.45823  -0.45588
 Alpha  occ. eigenvalues --   -0.45327  -0.45053  -0.44621  -0.44542  -0.44326
 Alpha  occ. eigenvalues --   -0.44286  -0.44202  -0.44147  -0.44053  -0.43918
 Alpha  occ. eigenvalues --   -0.43876  -0.43735  -0.43563  -0.43473  -0.43345
 Alpha  occ. eigenvalues --   -0.43165  -0.43106  -0.42866  -0.42722  -0.42718
 Alpha  occ. eigenvalues --   -0.42652  -0.42354  -0.42128  -0.41773  -0.41765
 Alpha  occ. eigenvalues --   -0.41611  -0.41441  -0.41268  -0.41216  -0.40963
 Alpha  occ. eigenvalues --   -0.40820  -0.40782  -0.40670  -0.40541  -0.40516
 Alpha  occ. eigenvalues --   -0.40303  -0.40271  -0.40060  -0.39656  -0.39227
 Alpha  occ. eigenvalues --   -0.38594  -0.38111  -0.37827  -0.37472  -0.37438
 Alpha  occ. eigenvalues --   -0.37333  -0.37032  -0.36989  -0.36773  -0.36566
 Alpha  occ. eigenvalues --   -0.36270  -0.35994  -0.34365  -0.34018  -0.33805
 Alpha  occ. eigenvalues --   -0.33658  -0.33261  -0.32942  -0.31326  -0.31102
 Alpha  occ. eigenvalues --   -0.31080  -0.30742  -0.30069  -0.29701  -0.29495
 Alpha  occ. eigenvalues --   -0.29381  -0.29110  -0.28951  -0.24161  -0.23799
 Alpha  occ. eigenvalues --   -0.21207  -0.20883
 Alpha virt. eigenvalues --   -0.08838  -0.08559  -0.01826  -0.01459  -0.00081
 Alpha virt. eigenvalues --    0.00176   0.02138   0.02454   0.02774   0.03487
 Alpha virt. eigenvalues --    0.04633   0.04938   0.05064   0.05370   0.06069

 Mulliken charges:
               1
     1  Mg   0.836348
     2  C   -0.002535
     3  C   -0.094126
     4  C   -0.046779
     5  C   -0.064156
     6  N   -0.256601
     7  C   -0.052612
     8  C   -0.013918
     9  C   -0.087071
    10  C    0.046565
    11  C    0.104776
    12  C    0.053562
    13  C   -0.071600
    14  H    0.035669
    15  N   -0.433668
    16  C    0.169133
    17  C   -0.177082
    18  C   -0.003058
    19  C    0.149840
    20  C    0.110346
    21  C    0.014618
    22  O   -0.248534
    23  C    0.061996
    24  N   -0.341134
    25  C    0.041466
    26  C   -0.028677
    27  C   -0.023493
    28  C    0.072632
    29  C    0.076092
    30  C    0.050143
    31  C   -0.041626
    32  N   -0.310246
    33  C    0.078285
    34  C   -0.170095
    35  C    0.008320
    36  C    0.082951
    37  C    0.127341
    38  C    0.046200
    39  O   -0.187876
    40  C   -0.005436
    41  C    0.212986
    42  O   -0.256851
    43  O   -0.304867
    44  C    0.157461
    45  H   -0.017473
    46  H   -0.016552
    47  H   -0.042322
    48  H    0.001132
    49  H   -0.004208
    50  H    0.025687
    51  H    0.016546
    52  H    0.016731
    53  H    0.010864
    54  H    0.044336
    55  H    0.018160
    56  H    0.017537
    57  H    0.005499
    58  H    0.027123
    59  H    0.039754
    60  H    0.036309
    61  H    0.037449
    62  H    0.032403
    63  H    0.016260
    64  H    0.010206
    65  H    0.023683
    66  H    0.013146
    67  H    0.004921
    68  H    0.006331
    69  H    0.002769
    70  H    0.012012
    71  H    0.020663
    72  H    0.050922
    73  H    0.047591
    74  H    0.008333
    75  H    0.046367
    76  H    0.035309
    77  H    0.043390
    78  H    0.045974
    79  H    0.054204
    80  Mg   0.838277
    81  C   -0.016567
    82  C   -0.088384
    83  C   -0.047046
    84  C   -0.062476
    85  N   -0.254464
    86  C   -0.049146
    87  C   -0.015111
    88  C   -0.090647
    89  C    0.045905
    90  C    0.114577
    91  C    0.062630
    92  C   -0.077510
    93  H    0.034369
    94  N   -0.423225
    95  C    0.162674
    96  C   -0.176003
    97  C   -0.008366
    98  C    0.151569
    99  C    0.100040
   100  C    0.014463
   101  O   -0.252590
   102  C    0.061465
   103  N   -0.349741
   104  C    0.038919
   105  C   -0.027821
   106  C   -0.031392
   107  C    0.086781
   108  C    0.086753
   109  C    0.031128
   110  C   -0.005922
   111  N   -0.324623
   112  C    0.079257
   113  C   -0.160928
   114  C    0.003138
   115  C    0.096674
   116  C    0.130941
   117  C    0.043482
   118  O   -0.187415
   119  C    0.000511
   120  C    0.211050
   121  O   -0.251431
   122  O   -0.305484
   123  C    0.152202
   124  H   -0.021097
   125  H   -0.014828
   126  H   -0.040273
   127  H   -0.000663
   128  H   -0.005197
   129  H    0.023706
   130  H    0.014407
   131  H    0.014675
   132  H    0.013704
   133  H    0.037655
   134  H    0.020580
   135  H    0.019113
   136  H    0.008060
   137  H    0.024118
   138  H    0.039170
   139  H    0.036772
   140  H    0.036081
   141  H    0.033743
   142  H    0.013506
   143  H    0.013449
   144  H    0.030554
   145  H    0.008686
   146  H   -0.007486
   147  H    0.007526
   148  H    0.002657
   149  H    0.010615
   150  H    0.016991
   151  H    0.030350
   152  H    0.045122
   153  H    0.007458
   154  H    0.052266
   155  H    0.036211
   156  H    0.043731
   157  H    0.049061
   158  H    0.053318
 Sum of Mulliken charges =  -0.00000

 Dipole moment (field-independent basis, Debye):
    X=              2.9543    Y=              2.7630    Z=             -7.8400  Tot=              8.8220
 Quadrupole moment (field-independent basis, Debye-Ang):
   XX=           -497.8442   YY=           -558.2672   ZZ=           -448.4837
   XY=            -15.8910   XZ=             29.9113   YZ=             16.7256

 Normal termination of Gaussian 16 at Fri Sep 10 04:47:39 2021.
