 Gaussian 16, Revision A.03,
 Gaussian 16:  ES64L-G16RevA.03 25-Dec-2016

 -----------------------------------
 #p cam-b3lyp/Def2SVP td=(nstates=5)
 -----------------------------------

 --------------------------------
 TDDFT excited states in gaussian
 --------------------------------
 Symbolic Z-matrix:
 Charge =  0 Multiplicity = 1

                         Standard orientation:
 ---------------------------------------------------------------------
 Center     Atomic      Atomic             Coordinates (Angstroms)
 Number     Number       Type             X           Y           Z
 ---------------------------------------------------------------------
      1         12           0        3.454152    1.767823    0.431948
      2          6           0        5.163610   -1.001017   -1.059190
      3          6           0        3.677809    3.340530   -2.587926
      4          6           0        2.358254    4.390117    1.838790
      5          6           0        4.367645    0.470634    3.534929
      6          7           0        4.330702    1.144810   -1.503035
      7          6           0        4.903025    0.034951   -1.958919
      8          6           0        5.131793    0.045930   -3.499996
      9          6           0        5.160583    1.622018   -3.738985
     10          6           0        4.309904    2.061962   -2.560546
     11          6           0        6.550322    2.234442   -3.597340
     12          6           0        3.954973   -0.630473   -4.280576
     13          6           0        4.245190   -0.953038   -5.749276
     14          1           0        3.674990   -2.160745   -6.326912
     15          7           0        2.640225    3.392680   -0.342787
     16          6           0        2.829161    3.875137   -1.594516
     17          6           0        2.007983    5.101435   -1.686923
     18          6           0        1.475983    5.396315   -0.327468
     19          6           0        2.167089    4.406916    0.459195
     20          6           0        1.758378    5.829664   -2.971886
     21          6           0        0.507654    6.415840    0.183453
     22          8           0        0.361292    6.649241    1.431922
     23          6           0       -0.210448    7.206798   -0.832302
     24          7           0        3.556147    2.475561    2.393156
     25          6           0        2.947328    3.612032    2.749186
     26          6           0        2.915585    3.770463    4.240437
     27          6           0        3.417920    2.379885    4.843516
     28          6           0        3.746585    1.652166    3.516612
     29          6           0        3.768853    4.911942    4.810499
     30          6           0        2.483844    1.675511    5.859280
     31          6           0        1.224323    1.211884    5.162319
     32          7           0        4.410967   -0.042026    1.153056
     33          6           0        4.711960   -0.363560    2.484481
     34          6           0        5.452948   -1.638155    2.464167
     35          6           0        5.546577   -1.963259    1.112358
     36          6           0        4.927691   -0.942407    0.335742
     37          6           0        5.990700   -2.307660    3.598636
     38          6           0        6.047057   -2.923257    0.141905
     39          8           0        6.572646   -4.035059    0.213629
     40          6           0        5.926182   -2.278354   -1.309066
     41          6           0        5.300230   -3.305743   -2.212374
     42          8           0        4.117222   -3.667058   -2.047115
     43          8           0        6.105655   -3.523420   -3.263302
     44          6           0        5.529582   -4.511389   -4.214203
     45          1           0        3.896703    4.019964   -3.413998
     46          1           0        1.897191    5.223586    2.372820
     47          1           0        4.611122   -0.037190    4.469962
     48          1           0        6.074255   -0.396823   -3.822733
     49          1           0        4.681046    1.900167   -4.677282
     50          1           0        7.271245    1.505280   -3.227863
     51          1           0        6.436863    3.052120   -2.885285
     52          1           0        6.868242    2.694245   -4.533441
     53          1           0        3.145752    0.089061   -4.405053
     54          1           0        3.624293   -1.536218   -3.771064
     55          1           0        5.311749   -0.891996   -5.967531
     56          1           0        3.797570   -0.172976   -6.365182
     57          1           0        2.412771    5.474666   -3.767054
     58          1           0        2.059185    6.865269   -2.814575
     59          1           0        0.709862    5.792303   -3.267773
     60          1           0        0.512290    7.739376   -1.450815
     61          1           0       -0.924060    7.821884   -0.285239
     62          1           0       -0.741918    6.526687   -1.498589
     63          1           0        1.903355    3.967156    4.591336
     64          1           0        4.362419    2.483304    5.378214
     65          1           0        3.202081    5.625409    5.409198
     66          1           0        4.266947    5.408425    3.978215
     67          1           0        4.619173    4.590797    5.411531
     68          1           0        2.180383    2.371128    6.640928
     69          1           0        2.945113    0.814194    6.342618
     70          1           0        0.601320    2.105578    5.165483
     71          1           0        0.753028    0.405430    5.725101
     72          1           0        1.417728    0.953185    4.121091
     73          1           0        5.758497   -3.364483    3.467579
     74          1           0        5.566278   -1.920726    4.524784
     75          1           0        7.048534   -2.067959    3.491923
     76          1           0        6.937131   -2.019469   -1.622245
     77          1           0        6.265189   -5.306599   -4.335687
     78          1           0        5.237663   -3.952031   -5.103195
     79          1           0        4.669694   -5.079269   -3.857211
     80         12           0       -3.584426   -1.914805    0.297817
     81          6           0       -4.789274    0.898644   -1.576188
     82          6           0       -3.691095    0.073851    3.067012
     83          6           0       -2.103685   -4.224461    1.891651
     84          6           0       -2.504601   -3.285357   -2.719012
     85          7           0       -4.181650    0.195893    0.581584
     86          6           0       -4.681031    1.147900   -0.192145
     87          6           0       -5.162150    2.410898    0.571356
     88          6           0       -4.250862    2.259506    1.884938
     89          6           0       -4.052667    0.745178    1.871733
     90          6           0       -2.889015    2.920631    1.752094
     91          6           0       -6.690298    2.351186    0.922392
     92          6           0       -7.294757    3.676634    1.390978
     93          1           0       -8.670911    3.986249    1.013060
     94          7           0       -3.436188   -2.236518    2.250528
     95          6           0       -3.527108   -1.318622    3.235665
     96          6           0       -3.328519   -2.056557    4.492715
     97          6           0       -2.949225   -3.456585    4.159877
     98          6           0       -2.791250   -3.352421    2.723121
     99          6           0       -3.577641   -1.447445    5.841916
    100          6           0       -2.747928   -4.682818    4.997753
    101          8           0       -2.187942   -5.735369    4.527231
    102          6           0       -3.140779   -4.582938    6.410964
    103          7           0       -2.279780   -3.422277   -0.291882
    104          6           0       -1.823496   -4.326702    0.592282
    105          6           0       -1.126674   -5.469548   -0.106819
    106          6           0       -1.422801   -5.264634   -1.664990
    107          6           0       -2.198747   -3.930730   -1.601820
    108          6           0        0.382538   -5.564605    0.115940
    109          6           0       -2.065906   -6.458717   -2.422128
    110          6           0       -3.475278   -6.686321   -1.924869
    111          7           0       -3.785067   -1.419762   -1.795677
    112          6           0       -3.232186   -2.115060   -2.893387
    113          6           0       -3.545683   -1.332875   -4.106791
    114          6           0       -4.244856   -0.216134   -3.624563
    115          6           0       -4.341494   -0.286438   -2.208507
    116          6           0       -3.149402   -1.661545   -5.433842
    117          6           0       -4.913880    1.011555   -3.990464
    118          8           0       -5.222182    1.549419   -5.053192
    119          6           0       -5.186135    1.851910   -2.669080
    120          6           0       -6.614377    2.322471   -2.703884
    121          8           0       -7.550488    1.505581   -2.649222
    122          8           0       -6.640294    3.661708   -2.576805
    123          6           0       -8.036075    4.174828   -2.594562
    124          1           0       -3.470439    0.671962    3.951583
    125          1           0       -1.668669   -5.098673    2.381560
    126          1           0       -2.287876   -3.695067   -3.707875
    127          1           0       -4.947527    3.350307    0.076165
    128          1           0       -4.790413    2.565674    2.777413
    129          1           0       -2.712932    3.282630    0.750056
    130          1           0       -2.165617    2.158847    2.011739
    131          1           0       -2.778200    3.709455    2.501637
    132          1           0       -6.825683    1.751146    1.831439
    133          1           0       -7.256425    1.968049    0.095745
    134          1           0       -6.636878    4.527922    1.177772
    135          1           0       -7.365925    3.659376    2.481229
    136          1           0       -3.686690   -0.357796    5.777394
    137          1           0       -2.666868   -1.594785    6.432372
    138          1           0       -4.416770   -1.911102    6.364942
    139          1           0       -2.584379   -3.777504    6.884403
    140          1           0       -3.005350   -5.584649    6.823421
    141          1           0       -4.199682   -4.305736    6.460971
    142          1           0       -1.536356   -6.421974    0.206472
    143          1           0       -0.501571   -5.065748   -2.232103
    144          1           0        0.701659   -6.538235    0.533396
    145          1           0        0.683118   -4.754711    0.767294
    146          1           0        0.991953   -5.387915   -0.768705
    147          1           0       -1.512492   -7.378677   -2.218249
    148          1           0       -2.086165   -6.326968   -3.498794
    149          1           0       -3.324950   -7.290276   -1.025021
    150          1           0       -4.061421   -7.223766   -2.667578
    151          1           0       -3.940403   -5.743290   -1.615028
    152          1           0       -4.008757   -1.487232   -6.067581
    153          1           0       -2.806124   -2.691686   -5.502654
    154          1           0       -2.334454   -0.946890   -5.576682
    155          1           0       -4.481082    2.683995   -2.658937
    156          1           0       -8.091595    4.922199   -3.392078
    157          1           0       -8.239983    4.521685   -1.564099
    158          1           0       -8.818896    3.487714   -2.893758
 ---------------------------------------------------------------------

 SCF Done:  E(RCAM-B3LYP) =  -4069.81315630     A.U. after   19 cycles

 Excitation energies and oscillator strengths:

 Excited State   1:      Singlet-A      1.6508 eV  751.06 nm  f=0.1369  <S**2>=0.000
     309 -> 315        0.10691
     310 -> 316        0.12923
     311 -> 313       -0.43992
     312 -> 314        0.52806
 This state for optimization and/or second-order correction.
 Total Energy, E(TD-HF/TD-DFT) =  -4069.75249122
 Copying the excited state density for this state as the 1-particle RhoCI density.

 Excited State   2:      Singlet-A      1.6902 eV  733.53 nm  f=0.5223  <S**2>=0.000
     309 -> 315       -0.13648
     310 -> 316        0.11325
     311 -> 313        0.52577
     312 -> 314        0.43809

 Excited State   3:      Singlet-A      2.1794 eV  568.89 nm  f=0.0585  <S**2>=0.000
     309 -> 313        0.28852
     310 -> 314        0.57714
     311 -> 315        0.11899
     312 -> 316       -0.23820

 Excited State   4:      Singlet-A      2.1951 eV  564.83 nm  f=0.1283  <S**2>=0.000
     309 -> 313        0.57196
     310 -> 314       -0.28492
     311 -> 315        0.25048
     312 -> 316        0.12602

 Excited State   5:      Singlet-A      2.2210 eV  558.24 nm  f=0.0000  <S**2>=0.000
     312 -> 313        0.70696

 The electronic state is 1-A.
 Alpha  occ. eigenvalues --  -46.87953 -46.87374 -19.26536 -19.26268 -19.19334
 Alpha  occ. eigenvalues --  -19.19050 -19.19026 -19.18484 -19.18331 -19.17899
 Alpha  occ. eigenvalues --  -14.42599 -14.42211 -14.41623 -14.41021 -14.39561
 Alpha  occ. eigenvalues --  -14.39079 -14.38739 -14.38336 -10.39363 -10.38976
 Alpha  occ. eigenvalues --  -10.35654 -10.35165 -10.34555 -10.34078 -10.31922
 Alpha  occ. eigenvalues --  -10.31699 -10.31545 -10.31061 -10.31048 -10.30756
 Alpha  occ. eigenvalues --  -10.30715 -10.30681 -10.30387 -10.30128 -10.30122
 Alpha  occ. eigenvalues --  -10.30110 -10.29788 -10.29768 -10.29527 -10.29407
 Alpha  occ. eigenvalues --  -10.29171 -10.29150 -10.28882 -10.28661 -10.28520
 Alpha  occ. eigenvalues --  -10.28473 -10.28469 -10.28232 -10.28156 -10.27940
 Alpha  occ. eigenvalues --  -10.27866 -10.27831 -10.27764 -10.27742 -10.27742
 Alpha  occ. eigenvalues --  -10.27697 -10.27569 -10.27546 -10.27387 -10.27347
 Alpha  occ. eigenvalues --  -10.27303 -10.27236 -10.27220 -10.26950 -10.26909
 Alpha  occ. eigenvalues --  -10.26839 -10.26736 -10.26580 -10.26496 -10.26484
 Alpha  occ. eigenvalues --  -10.26337 -10.26243 -10.26184 -10.25947 -10.25717
 Alpha  occ. eigenvalues --  -10.25706 -10.25658 -10.25614 -10.25601 -10.25085
 Alpha  occ. eigenvalues --  -10.24982 -10.24973 -10.24649 -10.24369 -10.24357
 Alpha  occ. eigenvalues --  -10.24325  -3.16695  -3.16125  -1.91576  -1.91163
 Alpha  occ. eigenvalues --   -1.91008  -1.91005  -1.90595  -1.90433  -1.16890
 Alpha  occ. eigenvalues --   -1.16554  -1.08795  -1.08521  -1.07432  -1.06925
 Alpha  occ. eigenvalues --   -1.06837  -1.06734  -1.04732  -1.04221  -1.03930
 Alpha  occ. eigenvalues --   -1.03395  -1.03372  -1.02725  -1.02574  -1.01812
 Alpha  occ. eigenvalues --   -0.92140  -0.91751  -0.89740  -0.89318  -0.89140
 Alpha  occ. eigenvalues --   -0.88861  -0.88506  -0.88005  -0.87823  -0.87769
 Alpha  occ. eigenvalues --   -0.87579  -0.87418  -0.87368  -0.86905  -0.85131
 Alpha  occ. eigenvalues --   -0.84722  -0.84183  -0.83427  -0.83150  -0.82816
 Alpha  occ. eigenvalues --   -0.82656  -0.82368  -0.81777  -0.81405  -0.80772
 Alpha  occ. eigenvalues --   -0.80214  -0.78936  -0.78409  -0.77396  -0.77105
 Alpha  occ. eigenvalues --   -0.76867  -0.76591  -0.76083  -0.75584  -0.75103
 Alpha  occ. eigenvalues --   -0.74274  -0.72933  -0.72423  -0.71840  -0.71194
 Alpha  occ. eigenvalues --   -0.70171  -0.69295  -0.69025  -0.68560  -0.67811
 Alpha  occ. eigenvalues --   -0.67366  -0.67324  -0.66977  -0.65442  -0.65036
 Alpha  occ. eigenvalues --   -0.65024  -0.64812  -0.64510  -0.64476  -0.64384
 Alpha  occ. eigenvalues --   -0.63797  -0.62512  -0.62068  -0.60608  -0.60055
 Alpha  occ. eigenvalues --   -0.59941  -0.59532  -0.59163  -0.58691  -0.58682
 Alpha  occ. eigenvalues --   -0.58151  -0.57781  -0.57508  -0.57391  -0.56913
 Alpha  occ. eigenvalues --   -0.56464  -0.56182  -0.55981  -0.55700  -0.55685
 Alpha  occ. eigenvalues --   -0.55571  -0.55256  -0.54905  -0.54766  -0.54123
 Alpha  occ. eigenvalues --   -0.54034  -0.53630  -0.53474  -0.53386  -0.53121
 Alpha  occ. eigenvalues --   -0.52969  -0.52909  -0.52891  -0.52715  -0.52668
 Alpha  occ. eigenvalues --   -0.52447  -0.52049  -0.52007  -0.51760  -0.51706
 Alpha  occ. eigenvalues --   -0.51435  -0.51378  -0.50956  -0.50713  -0.50258
 Alpha  occ. eigenvalues --   -0.50242  -0.50077  -0.49709  -0.49677  -0.49393
 Alpha  occ. eigenvalues --   -0.49379  -0.49239  -0.49236  -0.48982  -0.48837
 Alpha  occ. eigenvalues --   -0.48770  -0.48667  -0.48624  -0.48333  -0.48125
 Alpha  occ. eigenvalues --   -0.47902  -0.47867  -0.47459  -0.47308  -0.46976
 Alpha  occ. eigenvalues --   -0.46794  -0.46704  -0.46531  -0.46399  -0.46349
 Alpha  occ. eigenvalues --   -0.46243  -0.46000  -0.45990  -0.45731  -0.45564
 Alpha  occ. eigenvalues --   -0.45413  -0.44754  -0.44680  -0.44669  -0.44343
 Alpha  occ. eigenvalues --   -0.44266  -0.44242  -0.44189  -0.44182  -0.43875
 Alpha  occ. eigenvalues --   -0.43752  -0.43731  -0.43685  -0.43552  -0.43350
 Alpha  occ. eigenvalues --   -0.43203  -0.43057  -0.42933  -0.42911  -0.42776
 Alpha  occ. eigenvalues --   -0.42584  -0.42224  -0.42152  -0.41879  -0.41685
 Alpha  occ. eigenvalues --   -0.41643  -0.41385  -0.41305  -0.41158  -0.41048
 Alpha  occ. eigenvalues --   -0.41014  -0.40778  -0.40639  -0.40482  -0.40404
 Alpha  occ. eigenvalues --   -0.40372  -0.40034  -0.40003  -0.39729  -0.38986
 Alpha  occ. eigenvalues --   -0.38681  -0.37896  -0.37883  -0.37519  -0.37412
 Alpha  occ. eigenvalues --   -0.37398  -0.36970  -0.36960  -0.36865  -0.36582
 Alpha  occ. eigenvalues --   -0.36410  -0.35827  -0.34448  -0.34045  -0.33968
 Alpha  occ. eigenvalues --   -0.33716  -0.33358  -0.32891  -0.31553  -0.31208
 Alpha  occ. eigenvalues --   -0.31032  -0.30681  -0.30193  -0.29808  -0.29606
 Alpha  occ. eigenvalues --   -0.29470  -0.29096  -0.28988  -0.24243  -0.23752
 Alpha  occ. eigenvalues --   -0.21285  -0.20826
 Alpha virt. eigenvalues --   -0.08932  -0.08534  -0.01922  -0.01371  -0.00228
 Alpha virt. eigenvalues --    0.00202   0.02026   0.02329   0.02543   0.03619
 Alpha virt. eigenvalues --    0.04567   0.04843   0.05059   0.05293   0.06003

 Mulliken charges:
               1
     1  Mg   0.839022
     2  C   -0.003216
     3  C   -0.092765
     4  C   -0.047168
     5  C   -0.063590
     6  N   -0.256736
     7  C   -0.052071
     8  C   -0.014275
     9  C   -0.087207
    10  C    0.046317
    11  C    0.104658
    12  C    0.053379
    13  C   -0.071943
    14  H    0.034975
    15  N   -0.433298
    16  C    0.168651
    17  C   -0.176316
    18  C   -0.004743
    19  C    0.148953
    20  C    0.109730
    21  C    0.010851
    22  O   -0.251563
    23  C    0.062467
    24  N   -0.341007
    25  C    0.041623
    26  C   -0.027959
    27  C   -0.023769
    28  C    0.074397
    29  C    0.076138
    30  C    0.035228
    31  C   -0.004851
    32  N   -0.310649
    33  C    0.080656
    34  C   -0.168909
    35  C    0.008339
    36  C    0.083023
    37  C    0.127298
    38  C    0.045816
    39  O   -0.188175
    40  C   -0.005582
    41  C    0.214433
    42  O   -0.259619
    43  O   -0.303907
    44  C    0.157946
    45  H   -0.016795
    46  H   -0.017910
    47  H   -0.041428
    48  H    0.001015
    49  H   -0.003068
    50  H    0.025456
    51  H    0.016494
    52  H    0.017307
    53  H    0.012423
    54  H    0.042709
    55  H    0.018230
    56  H    0.019319
    57  H    0.006855
    58  H    0.026943
    59  H    0.041756
    60  H    0.038623
    61  H    0.034776
    62  H    0.032303
    63  H    0.014302
    64  H    0.010026
    65  H    0.022643
    66  H    0.013278
    67  H    0.005188
    68  H    0.005442
    69  H    0.005805
    70  H    0.005036
    71  H    0.016656
    72  H    0.031769
    73  H    0.048491
    74  H    0.009320
    75  H    0.046085
    76  H    0.035799
    77  H    0.043772
    78  H    0.047117
    79  H    0.051737
    80  Mg   0.836685
    81  C   -0.017666
    82  C   -0.089039
    83  C   -0.045138
    84  C   -0.063116
    85  N   -0.255070
    86  C   -0.050180
    87  C   -0.014744
    88  C   -0.090706
    89  C    0.045886
    90  C    0.114793
    91  C    0.062559
    92  C   -0.077522
    93  H    0.033514
    94  N   -0.423747
    95  C    0.163681
    96  C   -0.175207
    97  C   -0.007632
    98  C    0.152416
    99  C    0.099569
   100  C    0.015063
   101  O   -0.252050
   102  C    0.061531
   103  N   -0.350529
   104  C    0.039968
   105  C   -0.021792
   106  C   -0.034047
   107  C    0.089613
   108  C    0.068484
   109  C    0.034350
   110  C   -0.007279
   111  N   -0.323875
   112  C    0.078034
   113  C   -0.163970
   114  C    0.001072
   115  C    0.096337
   116  C    0.131993
   117  C    0.040898
   118  O   -0.190511
   119  C    0.001620
   120  C    0.211276
   121  O   -0.250856
   122  O   -0.306310
   123  C    0.152159
   124  H   -0.019445
   125  H   -0.014148
   126  H   -0.041007
   127  H   -0.002087
   128  H   -0.004833
   129  H    0.020546
   130  H    0.013774
   131  H    0.022565
   132  H    0.013774
   133  H    0.037051
   134  H    0.021074
   135  H    0.019743
   136  H    0.008679
   137  H    0.024488
   138  H    0.039348
   139  H    0.036967
   140  H    0.036193
   141  H    0.033612
   142  H    0.012454
   143  H    0.017940
   144  H    0.022985
   145  H    0.014491
   146  H    0.022425
   147  H    0.006825
   148  H    0.001736
   149  H    0.010886
   150  H    0.016240
   151  H    0.029112
   152  H    0.044977
   153  H    0.008602
   154  H    0.044429
   155  H    0.031883
   156  H    0.042726
   157  H    0.049910
   158  H    0.053514
 Sum of Mulliken charges =  -0.00000

 Dipole moment (field-independent basis, Debye):
    X=              2.4179    Y=              4.8999    Z=              1.0942  Tot=              5.5724
 Quadrupole moment (field-independent basis, Debye-Ang):
   XX=           -527.3082   YY=           -520.9805   ZZ=           -472.1385
   XY=             10.6066   XZ=            -43.2267   YZ=             13.4503

 Normal termination of Gaussian 16 at Fri Sep  3 14:53:32 2021.
