 Gaussian 16, Revision A.03,
 Gaussian 16:  ES64L-G16RevA.03 25-Dec-2016

 -----------------------------------
 #p cam-b3lyp/Def2SVP td=(nstates=5)
 -----------------------------------

 --------------------------------
 TDDFT excited states in gaussian
 --------------------------------
 Symbolic Z-matrix:
 Charge =  0 Multiplicity = 1

                         Standard orientation:
 ---------------------------------------------------------------------
 Center     Atomic      Atomic             Coordinates (Angstroms)
 Number     Number       Type             X           Y           Z
 ---------------------------------------------------------------------
      1         12           0        7.660300   -1.069445    0.310488
      2          6           0        8.052168    2.340971   -0.703276
      3          6           0        8.458921   -0.065671    3.472403
      4          6           0        7.765701   -4.128907    1.138259
      5          6           0        8.012687   -1.952283   -3.042434
      6          7           0        8.168843    0.913675    1.152666
      7          6           0        8.225520    2.150801    0.669469
      8          6           0        8.411659    3.236494    1.771284
      9          6           0        9.082526    2.334934    2.902268
     10          6           0        8.509026    0.985042    2.508804
     11          6           0       10.603393    2.269211    2.806635
     12          6           0        7.047338    3.836500    2.251236
     13          6           0        7.153425    5.120107    3.079761
     14          1           0        6.126664    6.139663    2.926080
     15          7           0        7.574053   -1.918308    2.092297
     16          6           0        7.923018   -1.356634    3.274681
     17          6           0        7.677975   -2.389178    4.304481
     18          6           0        7.338284   -3.658833    3.603996
     19          6           0        7.574414   -3.288040    2.232087
     20          6           0        7.727946   -2.112113    5.775700
     21          6           0        6.884547   -4.997473    4.094198
     22          8           0        6.869000   -6.028922    3.338921
     23          6           0        6.538143   -5.090638    5.524012
     24          7           0        8.078719   -2.815177   -0.754867
     25          6           0        7.998004   -4.015895   -0.171134
     26          6           0        8.060259   -5.120643   -1.183851
     27          6           0        7.956044   -4.416458   -2.613192
     28          6           0        7.932851   -2.939661   -2.147571
     29          6           0        9.317549   -5.999952   -1.138604
     30          6           0        6.832665   -4.909162   -3.559597
     31          6           0        5.482035   -4.535206   -2.991220
     32          7           0        7.799659   -0.014027   -1.580997
     33          6           0        7.964737   -0.581284   -2.852863
     34          6           0        8.114868    0.533048   -3.806692
     35          6           0        8.042818    1.678276   -3.016055
     36          6           0        7.885616    1.302542   -1.651356
     37          6           0        8.349004    0.407714   -5.204514
     38          6           0        8.086766    3.131470   -3.003717
     39          8           0        8.109247    4.005741   -3.871264
     40          6           0        8.216840    3.616014   -1.492385
     41          6           0        7.207838    4.711070   -1.277732
     42          8           0        5.984052    4.469281   -1.313105
     43          8           0        7.833820    5.811366   -0.832718
     44          6           0        6.885666    6.927106   -0.571409
     45          1           0        8.923679    0.090193    4.447927
     46          1           0        7.697986   -5.194809    1.365648
     47          1           0        8.041771   -2.149144   -4.115678
     48          1           0        9.082531    4.051124    1.497910
     49          1           0        8.743749    2.614411    3.899687
     50          1           0       10.966555    2.749182    1.897975
     51          1           0       10.849004    1.207076    2.800393
     52          1           0       11.066054    2.678466    3.705095
     53          1           0        6.604024    3.172704    2.993468
     54          1           0        6.382052    4.008015    1.404299
     55          1           0        8.146576    5.563479    3.002418
     56          1           0        7.055953    4.855942    4.132812
     57          1           0        8.164235   -1.136175    5.984849
     58          1           0        8.431079   -2.822652    6.209806
     59          1           0        6.752032   -2.225441    6.248015
     60          1           0        7.405152   -4.811815    6.123263
     61          1           0        6.150641   -6.097631    5.674536
     62          1           0        5.762314   -4.357873    5.747826
     63          1           0        7.225017   -5.809290   -1.063175
     64          1           0        8.868530   -4.539207   -3.197125
     65          1           0        9.105242   -7.061000   -1.005165
     66          1           0        9.961288   -5.626812   -0.342578
     67          1           0        9.970605   -5.908706   -2.006135
     68          1           0        6.856116   -5.995201   -3.642755
     69          1           0        6.906816   -4.497776   -4.566331
     70          1           0        5.282312   -5.342204   -2.287162
     71          1           0        4.730424   -4.511161   -3.780975
     72          1           0        5.533640   -3.608778   -2.418896
     73          1           0        7.700105    1.137153   -5.689094
     74          1           0        8.137685   -0.603216   -5.552320
     75          1           0        9.409692    0.653292   -5.254408
     76          1           0        9.239111    3.970296   -1.363668
     77          1           0        7.226470    7.781560   -1.156211
     78          1           0        6.834458    7.043082    0.511334
     79          1           0        5.874603    6.801587   -0.960430
     80         12           0       -8.195147   -0.365428   -0.301626
     81          6           0       -6.101393    2.547359   -0.406147
     82          6           0       -9.367479    0.768104    2.694268
     83          6           0       -9.713217   -3.130845    0.038041
     84          6           0       -6.075465   -1.803416   -2.664853
     85          7           0       -7.719479    1.438474    0.886620
     86          6           0       -6.953119    2.505432    0.717351
     87          6           0       -7.167037    3.624748    1.771358
     88          6           0       -7.757881    2.723891    2.962254
     89          6           0       -8.352692    1.585621    2.135700
     90          6           0       -6.684212    2.145383    3.868854
     91          6           0       -8.204526    4.702068    1.297001
     92          6           0       -8.232666    5.981227    2.136477
     93          1           0       -8.486803    7.251115    1.461750
     94          7           0       -9.711166   -0.861706    0.879037
     95          6           0      -10.056711   -0.281009    2.047240
     96          6           0      -11.228003   -1.025206    2.535486
     97          6           0      -11.445178   -2.196162    1.643064
     98          6           0      -10.259926   -2.118288    0.812882
     99          6           0      -12.062860   -0.560215    3.693173
    100          6           0      -12.532431   -3.224351    1.559982
    101          8           0      -12.398217   -4.291419    0.862700
    102          6           0      -13.721164   -2.990238    2.392800
    103          7           0       -7.817984   -2.278728   -1.022299
    104          6           0       -8.664892   -3.292060   -0.769636
    105          6           0       -8.336755   -4.500533   -1.613610
    106          6           0       -7.238454   -4.004843   -2.665081
    107          6           0       -7.048035   -2.555124   -2.167641
    108          6           0       -7.803363   -5.716149   -0.855879
    109          6           0       -7.549763   -4.235267   -4.169298
    110          6           0       -8.714514   -3.370047   -4.593718
    111          7           0       -6.520742    0.296167   -1.496067
    112          6           0       -5.761984   -0.475824   -2.402924
    113          6           0       -4.658823    0.379723   -2.886171
    114          6           0       -4.840315    1.592275   -2.204058
    115          6           0       -5.964460    1.492332   -1.340455
    116          6           0       -3.637998   -0.014324   -3.796526
    117          6           0       -4.330236    2.930532   -2.010266
    118          8           0       -3.448875    3.608897   -2.536339
    119          6           0       -5.048751    3.566660   -0.743192
    120          6           0       -5.506864    4.950296   -1.114937
    121          8           0       -6.385868    5.114143   -1.979287
    122          8           0       -4.992505    5.834457   -0.240834
    123          6           0       -5.427501    7.220034   -0.561411
    124          1           0       -9.633988    0.914583    3.741359
    125          1           0      -10.265876   -4.073204    0.035381
    126          1           0       -5.429796   -2.145839   -3.476347
    127          1           0       -6.260994    4.122301    2.095863
    128          1           0       -8.539141    3.249661    3.504983
    129          1           0       -5.691064    2.339472    3.491859
    130          1           0       -6.873267    1.080540    3.906344
    131          1           0       -6.816738    2.511183    4.891085
    132          1           0       -9.219445    4.330007    1.487400
    133          1           0       -8.050853    4.950511    0.264873
    134          1           0       -7.357557    6.063030    2.792559
    135          1           0       -9.079492    5.925969    2.824845
    136          1           0      -11.563765    0.240241    4.253157
    137          1           0      -12.118903   -1.393418    4.402042
    138          1           0      -13.075789   -0.280000    3.396331
    139          1           0      -13.423442   -2.923572    3.436531
    140          1           0      -14.423049   -3.784073    2.129996
    141          1           0      -14.149919   -2.018058    2.125115
    142          1           0       -9.210562   -4.843850   -2.153697
    143          1           0       -6.275399   -4.515976   -2.519816
    144          1           0       -8.405652   -6.630035   -1.017575
    145          1           0       -7.760479   -5.470317    0.196861
    146          1           0       -6.769723   -5.979241   -1.073980
    147          1           0       -7.854554   -5.270924   -4.338637
    148          1           0       -6.704819   -4.037658   -4.820458
    149          1           0       -9.584062   -3.958437   -4.285857
    150          1           0       -8.704103   -3.215003   -5.670703
    151          1           0       -8.734413   -2.431514   -4.027679
    152          1           0       -3.512265    0.801763   -4.495587
    153          1           0       -3.896076   -0.939864   -4.306952
    154          1           0       -2.800913   -0.146161   -3.105743
    155          1           0       -4.324029    3.580513    0.071766
    156          1           0       -4.520329    7.821890   -0.673232
    157          1           0       -6.126685    7.508005    0.246027
    158          1           0       -5.910120    7.385253   -1.517571
 ---------------------------------------------------------------------

 SCF Done:  E(RCAM-B3LYP) =  -4069.81136476     A.U. after   19 cycles

 Excitation energies and oscillator strengths:

 Excited State   1:      Singlet-A      1.6707 eV  742.12 nm  f=0.1434  <S**2>=0.000
     309 -> 315        0.10394
     310 -> 316       -0.13790
     311 -> 314        0.41183
     312 -> 313        0.54898
 This state for optimization and/or second-order correction.
 Total Energy, E(TD-HF/TD-DFT) =  -4069.74996878
 Copying the excited state density for this state as the 1-particle RhoCI density.

 Excited State   2:      Singlet-A      1.6848 eV  735.91 nm  f=0.6258  <S**2>=0.000
     309 -> 315        0.14125
     310 -> 316        0.10545
     311 -> 314        0.54823
     312 -> 313       -0.41141

 Excited State   3:      Singlet-A      2.1858 eV  567.22 nm  f=0.0449  <S**2>=0.000
     309 -> 314        0.18506
     310 -> 313        0.61539
     312 -> 316        0.26156

 Excited State   4:      Singlet-A      2.1925 eV  565.50 nm  f=0.1472  <S**2>=0.000
     309 -> 314        0.61353
     310 -> 313       -0.18392
     311 -> 315       -0.26670

 Excited State   5:      Singlet-A      2.7800 eV  445.99 nm  f=0.0000  <S**2>=0.000
     311 -> 313        0.70693

 The electronic state is 1-A.
 Alpha  occ. eigenvalues --  -46.87697 -46.87572 -19.26234 -19.26114 -19.19046
 Alpha  occ. eigenvalues --  -19.18839 -19.18740 -19.18638 -19.18042 -19.17910
 Alpha  occ. eigenvalues --  -14.42413 -14.42351 -14.41354 -14.41272 -14.39306
 Alpha  occ. eigenvalues --  -14.39264 -14.38505 -14.38482 -10.38976 -10.38907
 Alpha  occ. eigenvalues --  -10.35375 -10.35317 -10.34260 -10.34089 -10.31646
 Alpha  occ. eigenvalues --  -10.31501 -10.31299 -10.31217 -10.30943 -10.30810
 Alpha  occ. eigenvalues --  -10.30464 -10.30407 -10.30302 -10.30262 -10.30122
 Alpha  occ. eigenvalues --  -10.30063 -10.29823 -10.29801 -10.29531 -10.29351
 Alpha  occ. eigenvalues --  -10.29305 -10.29162 -10.28645 -10.28643 -10.28594
 Alpha  occ. eigenvalues --  -10.28427 -10.28312 -10.28262 -10.28070 -10.28018
 Alpha  occ. eigenvalues --  -10.27899 -10.27690 -10.27631 -10.27585 -10.27489
 Alpha  occ. eigenvalues --  -10.27441 -10.27425 -10.27408 -10.27398 -10.27393
 Alpha  occ. eigenvalues --  -10.27375 -10.27374 -10.27298 -10.27298 -10.27026
 Alpha  occ. eigenvalues --  -10.26931 -10.26622 -10.26586 -10.26355 -10.26355
 Alpha  occ. eigenvalues --  -10.26145 -10.26116 -10.26065 -10.25967 -10.25925
 Alpha  occ. eigenvalues --  -10.25846 -10.25727 -10.25701 -10.25367 -10.25327
 Alpha  occ. eigenvalues --  -10.24767 -10.24725 -10.24693 -10.24659 -10.24622
 Alpha  occ. eigenvalues --  -10.24601  -3.16439  -3.16322  -1.91321  -1.91205
 Alpha  occ. eigenvalues --   -1.90907  -1.90793  -1.90749  -1.90630  -1.16528
 Alpha  occ. eigenvalues --   -1.16462  -1.08514  -1.08494  -1.07143  -1.06891
 Alpha  occ. eigenvalues --   -1.06829  -1.06465  -1.04480  -1.04409  -1.03664
 Alpha  occ. eigenvalues --   -1.03575  -1.03134  -1.02949  -1.02312  -1.02020
 Alpha  occ. eigenvalues --   -0.91887  -0.91861  -0.89431  -0.89408  -0.89085
 Alpha  occ. eigenvalues --   -0.89077  -0.88202  -0.88139  -0.87763  -0.87680
 Alpha  occ. eigenvalues --   -0.87598  -0.87575  -0.87189  -0.87039  -0.84921
 Alpha  occ. eigenvalues --   -0.84880  -0.83850  -0.83794  -0.82892  -0.82857
 Alpha  occ. eigenvalues --   -0.82573  -0.82547  -0.81494  -0.81458  -0.80487
 Alpha  occ. eigenvalues --   -0.80349  -0.78705  -0.78545  -0.77124  -0.77061
 Alpha  occ. eigenvalues --   -0.76826  -0.76813  -0.75812  -0.75750  -0.74808
 Alpha  occ. eigenvalues --   -0.74719  -0.72675  -0.72603  -0.71574  -0.71495
 Alpha  occ. eigenvalues --   -0.69829  -0.69680  -0.68773  -0.68746  -0.67540
 Alpha  occ. eigenvalues --   -0.67509  -0.67124  -0.67119  -0.65188  -0.65179
 Alpha  occ. eigenvalues --   -0.64746  -0.64680  -0.64564  -0.64514  -0.64179
 Alpha  occ. eigenvalues --   -0.64119  -0.62176  -0.62162  -0.60356  -0.60256
 Alpha  occ. eigenvalues --   -0.59714  -0.59702  -0.58901  -0.58886  -0.58399
 Alpha  occ. eigenvalues --   -0.58331  -0.57454  -0.57440  -0.57207  -0.57145
 Alpha  occ. eigenvalues --   -0.56209  -0.56108  -0.55840  -0.55789  -0.55426
 Alpha  occ. eigenvalues --   -0.55361  -0.55235  -0.55155  -0.54405  -0.54394
 Alpha  occ. eigenvalues --   -0.53837  -0.53790  -0.53205  -0.53138  -0.53121
 Alpha  occ. eigenvalues --   -0.53054  -0.52811  -0.52797  -0.52669  -0.52595
 Alpha  occ. eigenvalues --   -0.52356  -0.52321  -0.51801  -0.51755  -0.51579
 Alpha  occ. eigenvalues --   -0.51513  -0.51098  -0.51087  -0.50500  -0.50404
 Alpha  occ. eigenvalues --   -0.49952  -0.49903  -0.49832  -0.49786  -0.49417
 Alpha  occ. eigenvalues --   -0.49407  -0.49110  -0.49107  -0.49009  -0.48992
 Alpha  occ. eigenvalues --   -0.48477  -0.48461  -0.48377  -0.48341  -0.48287
 Alpha  occ. eigenvalues --   -0.48248  -0.47598  -0.47510  -0.47202  -0.47035
 Alpha  occ. eigenvalues --   -0.46700  -0.46623  -0.46477  -0.46451  -0.46260
 Alpha  occ. eigenvalues --   -0.46181  -0.46054  -0.45987  -0.45713  -0.45699
 Alpha  occ. eigenvalues --   -0.45127  -0.45116  -0.44461  -0.44422  -0.44420
 Alpha  occ. eigenvalues --   -0.44386  -0.44054  -0.44039  -0.43992  -0.43991
 Alpha  occ. eigenvalues --   -0.43910  -0.43845  -0.43455  -0.43370  -0.43297
 Alpha  occ. eigenvalues --   -0.43290  -0.42924  -0.42832  -0.42794  -0.42597
 Alpha  occ. eigenvalues --   -0.42518  -0.42473  -0.41914  -0.41882  -0.41597
 Alpha  occ. eigenvalues --   -0.41565  -0.41433  -0.41381  -0.41043  -0.40905
 Alpha  occ. eigenvalues --   -0.40775  -0.40742  -0.40648  -0.40624  -0.40482
 Alpha  occ. eigenvalues --   -0.40411  -0.40157  -0.40128  -0.39365  -0.39349
 Alpha  occ. eigenvalues --   -0.38383  -0.38273  -0.37641  -0.37578  -0.37231
 Alpha  occ. eigenvalues --   -0.37183  -0.37157  -0.37116  -0.36665  -0.36572
 Alpha  occ. eigenvalues --   -0.36128  -0.36070  -0.34184  -0.34162  -0.33751
 Alpha  occ. eigenvalues --   -0.33604  -0.33084  -0.33080  -0.31269  -0.31197
 Alpha  occ. eigenvalues --   -0.30935  -0.30884  -0.29899  -0.29814  -0.29354
 Alpha  occ. eigenvalues --   -0.29236  -0.29214  -0.29104  -0.23979  -0.23946
 Alpha  occ. eigenvalues --   -0.21029  -0.21027
 Alpha virt. eigenvalues --   -0.08698  -0.08676  -0.01655  -0.01598   0.00034
 Alpha virt. eigenvalues --    0.00058   0.02312   0.02321   0.03234   0.03309
 Alpha virt. eigenvalues --    0.04809   0.04818   0.05262   0.05281   0.06254

 Mulliken charges:
               1
     1  Mg   0.838934
     2  C   -0.002602
     3  C   -0.094183
     4  C   -0.046029
     5  C   -0.064079
     6  N   -0.256701
     7  C   -0.052363
     8  C   -0.014013
     9  C   -0.086984
    10  C    0.046294
    11  C    0.104876
    12  C    0.053485
    13  C   -0.071762
    14  H    0.036507
    15  N   -0.433039
    16  C    0.168319
    17  C   -0.177353
    18  C   -0.004219
    19  C    0.148634
    20  C    0.110266
    21  C    0.012099
    22  O   -0.249940
    23  C    0.062567
    24  N   -0.341135
    25  C    0.041156
    26  C   -0.028079
    27  C   -0.023992
    28  C    0.074941
    29  C    0.076244
    30  C    0.035172
    31  C   -0.004465
    32  N   -0.310622
    33  C    0.080703
    34  C   -0.169363
    35  C    0.008625
    36  C    0.083358
    37  C    0.127168
    38  C    0.046690
    39  O   -0.187794
    40  C   -0.005541
    41  C    0.212805
    42  O   -0.255810
    43  O   -0.305188
    44  C    0.157385
    45  H   -0.017873
    46  H   -0.017145
    47  H   -0.041512
    48  H    0.000941
    49  H   -0.004238
    50  H    0.025461
    51  H    0.016318
    52  H    0.016401
    53  H    0.011052
    54  H    0.044923
    55  H    0.017658
    56  H    0.017509
    57  H    0.005730
    58  H    0.026549
    59  H    0.039169
    60  H    0.037253
    61  H    0.035310
    62  H    0.031321
    63  H    0.016285
    64  H    0.009385
    65  H    0.022952
    66  H    0.012520
    67  H    0.004638
    68  H    0.006063
    69  H    0.004820
    70  H    0.008440
    71  H    0.017927
    72  H    0.029402
    73  H    0.048280
    74  H    0.009014
    75  H    0.045858
    76  H    0.034924
    77  H    0.042826
    78  H    0.045963
    79  H    0.054908
    80  Mg   0.837673
    81  C   -0.016772
    82  C   -0.087913
    83  C   -0.045588
    84  C   -0.064901
    85  N   -0.254502
    86  C   -0.049860
    87  C   -0.015048
    88  C   -0.090487
    89  C    0.045622
    90  C    0.114436
    91  C    0.062598
    92  C   -0.077740
    93  H    0.034848
    94  N   -0.423448
    95  C    0.162757
    96  C   -0.174881
    97  C   -0.007995
    98  C    0.151977
    99  C    0.099475
   100  C    0.015420
   101  O   -0.253414
   102  C    0.061266
   103  N   -0.350036
   104  C    0.037369
   105  C   -0.019758
   106  C   -0.034863
   107  C    0.089048
   108  C    0.073715
   109  C    0.034741
   110  C   -0.007647
   111  N   -0.324220
   112  C    0.078552
   113  C   -0.162991
   114  C    0.002757
   115  C    0.096111
   116  C    0.131630
   117  C    0.042816
   118  O   -0.185974
   119  C    0.000739
   120  C    0.211492
   121  O   -0.251136
   122  O   -0.305557
   123  C    0.152006
   124  H   -0.020040
   125  H   -0.015781
   126  H   -0.040286
   127  H   -0.000635
   128  H   -0.004568
   129  H    0.022511
   130  H    0.014332
   131  H    0.015789
   132  H    0.013838
   133  H    0.037828
   134  H    0.020608
   135  H    0.019358
   136  H    0.008517
   137  H    0.025816
   138  H    0.039556
   139  H    0.038092
   140  H    0.036177
   141  H    0.033821
   142  H    0.014255
   143  H    0.012471
   144  H    0.024940
   145  H    0.011557
   146  H    0.005663
   147  H    0.006097
   148  H    0.003730
   149  H    0.010814
   150  H    0.017904
   151  H    0.030193
   152  H    0.046693
   153  H    0.008180
   154  H    0.047963
   155  H    0.035410
   156  H    0.044229
   157  H    0.049018
   158  H    0.053636
 Sum of Mulliken charges =  -0.00000

 Dipole moment (field-independent basis, Debye):
    X=              0.4351    Y=             -0.5544    Z=              8.1590  Tot=              8.1894
 Quadrupole moment (field-independent basis, Debye-Ang):
   XX=           -472.9710   YY=           -515.9279   ZZ=           -478.5075
   XY=            -21.6242   XZ=             -3.6897   YZ=             59.9080

 Normal termination of Gaussian 16 at Sun Sep 12 04:13:25 2021.
