 Gaussian 16, Revision A.03,
 Gaussian 16:  ES64L-G16RevA.03 25-Dec-2016

 -----------------------------------
 #p cam-b3lyp/Def2SVP td=(nstates=5)
 -----------------------------------

 --------------------------------
 TDDFT excited states in gaussian
 --------------------------------
 Symbolic Z-matrix:
 Charge =  0 Multiplicity = 1

                         Standard orientation:
 ---------------------------------------------------------------------
 Center     Atomic      Atomic             Coordinates (Angstroms)
 Number     Number       Type             X           Y           Z
 ---------------------------------------------------------------------
      1         12           0       16.077304    0.547014    0.246202
      2          6           0       16.256538   -2.880125   -0.771053
      3          6           0       16.957575    1.384594   -2.942316
      4          6           0       16.369049    3.547366    1.230779
      5          6           0       16.331562   -0.570204    3.537530
      6          7           0       16.521883   -0.681816   -1.540687
      7          6           0       16.496748   -1.982565   -1.813804
      8          6           0       16.675041   -2.299307   -3.328815
      9          6           0       17.436811   -0.971859   -3.775566
     10          6           0       16.914902   -0.022505   -2.711487
     11          6           0       18.953689   -1.067389   -3.647289
     12          6           0       15.304063   -2.450101   -4.070038
     13          6           0       15.381152   -3.076253   -5.465511
     14          1           0       14.299537   -3.945358   -5.903817
     15          7           0       16.108350    2.234876   -0.779960
     16          6           0       16.478502    2.389244   -2.073963
     17          6           0       16.328538    3.829920   -2.371697
     18          6           0       16.023037    4.529449   -1.092860
     19          6           0       16.182521    3.455077   -0.146463
     20          6           0       16.426604    4.399057   -3.753803
     21          6           0       15.657282    5.944428   -0.773191
     22          8           0       15.661120    6.394175    0.423591
     23          6           0       15.376429    6.825707   -1.921020
     24          7           0       16.536554    1.395845    2.097205
     25          6           0       16.540129    2.722665    2.266079
     26          6           0       16.614400    3.087960    3.719001
     27          6           0       16.415309    1.725768    4.528042
     28          6           0       16.338533    0.748373    3.329262
     29          6           0       17.914537    3.765828    4.173039
     30          6           0       15.278898    1.692708    5.580608
     31          6           0       13.936513    1.778110    4.889372
     32          7           0       16.084395   -1.376687    1.251374
     33          6           0       16.223707   -1.608458    2.627436
     34          6           0       16.278103   -3.069805    2.816044
     35          6           0       16.182700   -3.589596    1.526641
     36          6           0       16.101919   -2.520131    0.589619
     37          6           0       16.459109   -3.743892    4.055915
     38          6           0       16.155011   -4.799246    0.720517
     39          8           0       16.097565   -6.004743    0.967440
     40          6           0       16.324410   -4.386631   -0.808168
     41          6           0       15.272279   -5.118709   -1.595817
     42          8           0       14.061586   -4.857123   -1.443630
     43          8           0       15.861107   -5.834852   -2.565849
     44          6           0       14.870633   -6.562643   -3.403367
     45          1           0       17.454691    1.757369   -3.840011
     46          1           0       16.363909    4.566090    1.623989
     47          1           0       16.325162   -0.994005    4.543415
     48          1           0       17.292585   -3.172250   -3.541028
     49          1           0       17.126884   -0.638484   -4.765782
     50          1           0       19.254025   -1.988059   -3.147202
     51          1           0       19.251189   -0.199671   -3.058178
     52          1           0       19.432902   -0.948185   -4.619360
     53          1           0       14.925854   -1.461667   -4.330838
     54          1           0       14.596023   -3.013076   -3.460887
     55          1           0       16.346956   -3.552870   -5.635709
     56          1           0       15.341322   -2.274070   -6.202474
     57          1           0       16.822377    3.670154   -4.459925
     58          1           0       17.181759    5.184192   -3.721990
     59          1           0       15.478262    4.814719   -4.094690
     60          1           0       16.253004    6.864274   -2.568073
     61          1           0       15.046021    7.773886   -1.498365
     62          1           0       14.575328    6.386129   -2.515963
     63          1           0       15.820158    3.782885    3.988602
     64          1           0       17.307364    1.450368    5.091128
     65          1           0       17.760915    4.738506    4.641014
     66          1           0       18.571922    3.847543    3.307903
     67          1           0       18.525161    3.173537    4.854029
     68          1           0       15.352654    2.552709    6.245367
     69          1           0       15.290106    0.794389    6.197982
     70          1           0       13.806874    2.849553    4.740926
     71          1           0       13.152052    1.375097    5.530786
     72          1           0       13.966163    1.313788    3.903465
     73          1           0       15.755010   -4.575885    4.056408
     74          1           0       16.283726   -3.076039    4.899014
     75          1           0       17.503271   -4.044696    3.971664
     76          1           0       17.332367   -4.678158   -1.101696
     77          1           0       15.143722   -7.617673   -3.379543
     78          1           0       14.859367   -6.064678   -4.373063
     79          1           0       13.851558   -6.605085   -3.017329
     80         12           0      -15.682302    0.765051    0.252004
     81          6           0      -17.679293   -2.208204    0.026708
     82          6           0      -17.092246    1.755492   -2.691752
     83          6           0      -13.616905    3.172838    0.187503
     84          6           0      -13.642499   -0.942586    2.503424
     85          7           0      -17.180524   -0.189198   -1.065929
     86          6           0      -17.914950   -1.290416   -1.018065
     87          6           0      -19.016251   -1.376945   -2.108579
     88          6           0      -18.354803   -0.398314   -3.196525
     89          6           0      -17.514150    0.471327   -2.263941
     90          6           0      -17.418400   -1.111899   -4.157411
     91          6           0      -20.398170   -0.828249   -1.607334
     92          6           0      -21.588569   -1.164245   -2.508335
     93          1           0      -22.880747   -1.432536   -1.883219
     94          7           0      -15.723822    2.465656   -0.770150
     95          6           0      -16.364419    2.699672   -1.934688
     96          6           0      -16.067423    4.097661   -2.283380
     97          6           0      -15.065328    4.619916   -1.314996
     98          6           0      -14.740514    3.406829   -0.591796
     99          6           0      -16.771183    4.827285   -3.390527
    100          6           0      -14.484766    5.982706   -1.087052
    101          8           0      -13.452914    6.159970   -0.347665
    102          6           0      -15.102920    7.091146   -1.829157
    103          7           0      -13.773388    1.006711    1.039405
    104          6           0      -13.115662    2.172554    0.912414
    105          6           0      -11.886525    2.203728    1.789134
    106          6           0      -11.988006    0.905551    2.717577
    107          6           0      -13.268703    0.273447    2.129654
    108          6           0      -10.545698    2.200685    1.055271
    109          6           0      -11.912330    1.130490    4.252624
    110          6           0      -13.139134    1.876272    4.726059
    111          7           0      -15.740433   -1.141962    1.265879
    112          6           0      -14.770618   -1.669939    2.146099
    113          6           0      -15.195645   -3.042469    2.489564
    114          6           0      -16.380609   -3.227509    1.761476
    115          6           0      -16.662677   -2.060565    1.001093
    116          6           0      -14.488097   -3.946310    3.331317
    117          6           0      -17.451317   -4.148578    1.454994
    118          8           0      -17.788940   -5.256891    1.868979
    119          6           0      -18.272342   -3.576227    0.220208
    120          6           0      -19.736175   -3.664358    0.554774
    121          8           0      -20.215224   -2.984568    1.479441
    122          8           0      -20.366035   -4.366250   -0.404918
    123          6           0      -21.822532   -4.471673   -0.123286
    124          1           0      -17.301035    2.054581   -3.719290
    125          1           0      -12.927922    4.014876    0.286290
    126          1           0      -13.112590   -1.504744    3.275328
    127          1           0      -19.158313   -2.363394   -2.533443
    128          1           0      -19.109441    0.200812   -3.699427
    129          1           0      -17.260291   -2.142227   -3.875349
    130          1           0      -16.486585   -0.562770   -4.122373
    131          1           0      -17.786208   -1.016236   -5.183034
    132          1           0      -20.401098    0.266048   -1.692437
    133          1           0      -20.598409   -1.157505   -0.606266
    134          1           0      -21.345243   -1.945673   -3.238482
    135          1           0      -21.819028   -0.288466   -3.119821
    136          1           0      -17.334501    4.138305   -4.031909
    137          1           0      -15.995846    5.236920   -4.046968
    138          1           0      -17.394342    5.646547   -3.025612
    139          1           0      -15.039527    6.891139   -2.896138
    140          1           0      -14.610644    7.995779   -1.466958
    141          1           0      -16.169000    7.128313   -1.578725
    142          1           0      -11.882081    3.085807    2.417648
    143          1           0      -11.169185    0.198228    2.519927
    144          1           0       -9.904041    3.063774    1.314939
    145          1           0      -10.739118    2.177209   -0.008960
    146          1           0       -9.941977    1.306400    1.200138
    147          1           0      -11.052646    1.757487    4.501568
    148          1           0      -11.815077    0.210716    4.819670
    149          1           0      -12.886153    2.921286    4.523445
    150          1           0      -13.302984    1.708709    5.788655
    151          1           0      -14.013320    1.624219    4.114563
    152          1           0      -15.222816   -4.414075    3.973112
    153          1           0      -13.722247   -3.434033    3.909954
    154          1           0      -14.057302   -4.614853    2.581175
    155          1           0      -18.014746   -4.178435   -0.651902
    156          1           0      -22.070909   -5.537499   -0.119606
    157          1           0      -22.320270   -3.841098   -0.883808
    158          1           0      -22.166004   -4.171067    0.859628
 ---------------------------------------------------------------------

 SCF Done:  E(RCAM-B3LYP) =  -4069.81176727     A.U. after   19 cycles

 Excitation energies and oscillator strengths:

 Excited State   1:      Singlet-A      1.6753 eV  740.08 nm  f=0.2133  <S**2>=0.000
     310 -> 316       -0.16866
     311 -> 313        0.66679
     312 -> 314       -0.16145
     310 <- 316       -0.10169
 This state for optimization and/or second-order correction.
 Total Energy, E(TD-HF/TD-DFT) =  -4069.75020194
 Copying the excited state density for this state as the 1-particle RhoCI density.

 Excited State   2:      Singlet-A      1.6801 eV  737.95 nm  f=0.5642  <S**2>=0.000
     309 -> 315        0.17069
     311 -> 313        0.16140
     312 -> 314        0.66642
     309 <- 315        0.10219

 Excited State   3:      Singlet-A      2.1861 eV  567.15 nm  f=0.1001  <S**2>=0.000
     310 -> 313        0.64233
     311 -> 316        0.27306

 Excited State   4:      Singlet-A      2.1925 eV  565.48 nm  f=0.1009  <S**2>=0.000
     309 -> 314        0.64055
     312 -> 315       -0.27825

 Excited State   5:      Singlet-A      3.0633 eV  404.74 nm  f=0.0000  <S**2>=0.000
     312 -> 313        0.70711

 The electronic state is 1-A.
 Alpha  occ. eigenvalues --  -46.87782 -46.87660 -19.26350 -19.26270 -19.19161
 Alpha  occ. eigenvalues --  -19.19005 -19.18800 -19.18714 -19.18155 -19.18051
 Alpha  occ. eigenvalues --  -14.42497 -14.42435 -14.41435 -14.41358 -14.39388
 Alpha  occ. eigenvalues --  -14.39352 -14.38600 -14.38572 -10.39091 -10.39065
 Alpha  occ. eigenvalues --  -10.35433 -10.35392 -10.34375 -10.34228 -10.31757
 Alpha  occ. eigenvalues --  -10.31665 -10.31390 -10.31309 -10.31024 -10.30894
 Alpha  occ. eigenvalues --  -10.30555 -10.30493 -10.30397 -10.30360 -10.30192
 Alpha  occ. eigenvalues --  -10.30139 -10.29906 -10.29893 -10.29616 -10.29436
 Alpha  occ. eigenvalues --  -10.29400 -10.29240 -10.28735 -10.28721 -10.28657
 Alpha  occ. eigenvalues --  -10.28524 -10.28405 -10.28350 -10.28142 -10.28102
 Alpha  occ. eigenvalues --  -10.28001 -10.27778 -10.27713 -10.27669 -10.27570
 Alpha  occ. eigenvalues --  -10.27513 -10.27486 -10.27483 -10.27469 -10.27467
 Alpha  occ. eigenvalues --  -10.27465 -10.27435 -10.27389 -10.27371 -10.27144
 Alpha  occ. eigenvalues --  -10.27051 -10.26694 -10.26690 -10.26417 -10.26395
 Alpha  occ. eigenvalues --  -10.26221 -10.26169 -10.26131 -10.26027 -10.26005
 Alpha  occ. eigenvalues --  -10.25933 -10.25847 -10.25829 -10.25421 -10.25392
 Alpha  occ. eigenvalues --  -10.24872 -10.24818 -10.24773 -10.24726 -10.24689
 Alpha  occ. eigenvalues --  -10.24672  -3.16525  -3.16410  -1.91406  -1.91292
 Alpha  occ. eigenvalues --   -1.90993  -1.90881  -1.90835  -1.90717  -1.16644
 Alpha  occ. eigenvalues --   -1.16618  -1.08658  -1.08613  -1.07201  -1.06967
 Alpha  occ. eigenvalues --   -1.06946  -1.06628  -1.04566  -1.04495  -1.03746
 Alpha  occ. eigenvalues --   -1.03663  -1.03219  -1.03038  -1.02396  -1.02111
 Alpha  occ. eigenvalues --   -0.91987  -0.91958  -0.89505  -0.89492  -0.89174
 Alpha  occ. eigenvalues --   -0.89152  -0.88272  -0.88217  -0.87856  -0.87792
 Alpha  occ. eigenvalues --   -0.87684  -0.87658  -0.87259  -0.87121  -0.85000
 Alpha  occ. eigenvalues --   -0.84968  -0.83922  -0.83873  -0.82952  -0.82931
 Alpha  occ. eigenvalues --   -0.82653  -0.82634  -0.81596  -0.81571  -0.80582
 Alpha  occ. eigenvalues --   -0.80443  -0.78782  -0.78635  -0.77204  -0.77144
 Alpha  occ. eigenvalues --   -0.76920  -0.76898  -0.75909  -0.75839  -0.74883
 Alpha  occ. eigenvalues --   -0.74800  -0.72760  -0.72698  -0.71658  -0.71580
 Alpha  occ. eigenvalues --   -0.69892  -0.69754  -0.68859  -0.68828  -0.67626
 Alpha  occ. eigenvalues --   -0.67601  -0.67205  -0.67201  -0.65272  -0.65272
 Alpha  occ. eigenvalues --   -0.64839  -0.64770  -0.64654  -0.64606  -0.64255
 Alpha  occ. eigenvalues --   -0.64201  -0.62283  -0.62278  -0.60427  -0.60339
 Alpha  occ. eigenvalues --   -0.59797  -0.59790  -0.58992  -0.58973  -0.58489
 Alpha  occ. eigenvalues --   -0.58425  -0.57570  -0.57554  -0.57294  -0.57235
 Alpha  occ. eigenvalues --   -0.56295  -0.56204  -0.55964  -0.55887  -0.55505
 Alpha  occ. eigenvalues --   -0.55452  -0.55325  -0.55245  -0.54509  -0.54486
 Alpha  occ. eigenvalues --   -0.53914  -0.53880  -0.53284  -0.53227  -0.53207
 Alpha  occ. eigenvalues --   -0.53142  -0.52902  -0.52900  -0.52741  -0.52669
 Alpha  occ. eigenvalues --   -0.52423  -0.52397  -0.51900  -0.51883  -0.51660
 Alpha  occ. eigenvalues --   -0.51602  -0.51200  -0.51181  -0.50557  -0.50476
 Alpha  occ. eigenvalues --   -0.50017  -0.49980  -0.49904  -0.49865  -0.49500
 Alpha  occ. eigenvalues --   -0.49488  -0.49203  -0.49200  -0.49105  -0.49082
 Alpha  occ. eigenvalues --   -0.48578  -0.48559  -0.48447  -0.48431  -0.48373
 Alpha  occ. eigenvalues --   -0.48339  -0.47680  -0.47594  -0.47282  -0.47118
 Alpha  occ. eigenvalues --   -0.46782  -0.46708  -0.46555  -0.46541  -0.46344
 Alpha  occ. eigenvalues --   -0.46269  -0.46148  -0.46084  -0.45821  -0.45807
 Alpha  occ. eigenvalues --   -0.45206  -0.45187  -0.44563  -0.44514  -0.44492
 Alpha  occ. eigenvalues --   -0.44476  -0.44130  -0.44127  -0.44076  -0.44074
 Alpha  occ. eigenvalues --   -0.44005  -0.43939  -0.43553  -0.43480  -0.43385
 Alpha  occ. eigenvalues --   -0.43371  -0.43012  -0.42930  -0.42901  -0.42684
 Alpha  occ. eigenvalues --   -0.42640  -0.42551  -0.41995  -0.41962  -0.41689
 Alpha  occ. eigenvalues --   -0.41669  -0.41519  -0.41459  -0.41126  -0.40989
 Alpha  occ. eigenvalues --   -0.40855  -0.40808  -0.40723  -0.40698  -0.40557
 Alpha  occ. eigenvalues --   -0.40491  -0.40228  -0.40219  -0.39426  -0.39421
 Alpha  occ. eigenvalues --   -0.38454  -0.38348  -0.37734  -0.37655  -0.37306
 Alpha  occ. eigenvalues --   -0.37264  -0.37249  -0.37200  -0.36771  -0.36698
 Alpha  occ. eigenvalues --   -0.36216  -0.36178  -0.34271  -0.34253  -0.33862
 Alpha  occ. eigenvalues --   -0.33756  -0.33175  -0.33172  -0.31330  -0.31273
 Alpha  occ. eigenvalues --   -0.31021  -0.30972  -0.30014  -0.29955  -0.29434
 Alpha  occ. eigenvalues --   -0.29327  -0.29307  -0.29211  -0.24066  -0.24036
 Alpha  occ. eigenvalues --   -0.21116  -0.21113
 Alpha virt. eigenvalues --   -0.08792  -0.08760  -0.01735  -0.01683  -0.00043
 Alpha virt. eigenvalues --   -0.00029   0.02208   0.02215   0.03138   0.03227
 Alpha virt. eigenvalues --    0.04729   0.04733   0.05113   0.05164   0.06181

 Mulliken charges:
               1
     1  Mg   0.838797
     2  C   -0.002961
     3  C   -0.094105
     4  C   -0.045874
     5  C   -0.063948
     6  N   -0.256775
     7  C   -0.052486
     8  C   -0.014027
     9  C   -0.086998
    10  C    0.046316
    11  C    0.104815
    12  C    0.053481
    13  C   -0.071812
    14  H    0.036136
    15  N   -0.433148
    16  C    0.168403
    17  C   -0.177151
    18  C   -0.004009
    19  C    0.148728
    20  C    0.110179
    21  C    0.012296
    22  O   -0.249619
    23  C    0.062469
    24  N   -0.341143
    25  C    0.041231
    26  C   -0.028167
    27  C   -0.023986
    28  C    0.074821
    29  C    0.076178
    30  C    0.035144
    31  C   -0.004510
    32  N   -0.310472
    33  C    0.080418
    34  C   -0.169715
    35  C    0.008353
    36  C    0.082977
    37  C    0.127312
    38  C    0.046112
    39  O   -0.188444
    40  C   -0.005319
    41  C    0.212864
    42  O   -0.257095
    43  O   -0.304800
    44  C    0.157697
    45  H   -0.017609
    46  H   -0.016833
    47  H   -0.041495
    48  H    0.000932
    49  H   -0.004032
    50  H    0.025470
    51  H    0.016441
    52  H    0.016649
    53  H    0.011213
    54  H    0.044130
    55  H    0.017862
    56  H    0.017950
    57  H    0.005869
    58  H    0.026817
    59  H    0.039567
    60  H    0.037337
    61  H    0.035663
    62  H    0.031518
    63  H    0.016563
    64  H    0.009455
    65  H    0.023214
    66  H    0.012538
    67  H    0.004745
    68  H    0.006364
    69  H    0.004726
    70  H    0.008789
    71  H    0.018148
    72  H    0.028984
    73  H    0.047572
    74  H    0.009112
    75  H    0.046000
    76  H    0.035142
    77  H    0.042942
    78  H    0.046398
    79  H    0.053693
    80  Mg   0.837818
    81  C   -0.016822
    82  C   -0.087806
    83  C   -0.045499
    84  C   -0.064847
    85  N   -0.254570
    86  C   -0.049853
    87  C   -0.015122
    88  C   -0.090482
    89  C    0.045759
    90  C    0.114374
    91  C    0.062538
    92  C   -0.077903
    93  H    0.034904
    94  N   -0.423479
    95  C    0.162909
    96  C   -0.174640
    97  C   -0.007810
    98  C    0.152102
    99  C    0.099376
   100  C    0.015578
   101  O   -0.253163
   102  C    0.061189
   103  N   -0.350044
   104  C    0.037528
   105  C   -0.019845
   106  C   -0.034842
   107  C    0.088920
   108  C    0.073625
   109  C    0.034728
   110  C   -0.007695
   111  N   -0.324109
   112  C    0.078457
   113  C   -0.163097
   114  C    0.002245
   115  C    0.096197
   116  C    0.131485
   117  C    0.042391
   118  O   -0.187847
   119  C    0.000907
   120  C    0.211274
   121  O   -0.251018
   122  O   -0.305638
   123  C    0.152022
   124  H   -0.019684
   125  H   -0.015545
   126  H   -0.040386
   127  H   -0.000649
   128  H   -0.004337
   129  H    0.022465
   130  H    0.014431
   131  H    0.016261
   132  H    0.013917
   133  H    0.037689
   134  H    0.020784
   135  H    0.019585
   136  H    0.008745
   137  H    0.026122
   138  H    0.039788
   139  H    0.038235
   140  H    0.036401
   141  H    0.033898
   142  H    0.014418
   143  H    0.012504
   144  H    0.025185
   145  H    0.011613
   146  H    0.005765
   147  H    0.006335
   148  H    0.003705
   149  H    0.010935
   150  H    0.017962
   151  H    0.030060
   152  H    0.046025
   153  H    0.008574
   154  H    0.046984
   155  H    0.035028
   156  H    0.043918
   157  H    0.049483
   158  H    0.053589
 Sum of Mulliken charges =  -0.00000

 Dipole moment (field-independent basis, Debye):
    X=              1.8837    Y=              4.4996    Z=             -7.2612  Tot=              8.7475
 Quadrupole moment (field-independent basis, Debye-Ang):
   XX=           -429.5414   YY=           -562.9014   ZZ=           -453.5767
   XY=             -8.7021   XZ=             36.0656   YZ=              3.1750

 Normal termination of Gaussian 16 at Sun Sep 12 21:02:30 2021.
