 Gaussian 16, Revision A.03,
 Gaussian 16:  ES64L-G16RevA.03 25-Dec-2016

 -----------------------------------
 #p cam-b3lyp/Def2SVP td=(nstates=5)
 -----------------------------------

 --------------------------------
 TDDFT excited states in gaussian
 --------------------------------
 Symbolic Z-matrix:
 Charge =  0 Multiplicity = 1

                         Standard orientation:
 ---------------------------------------------------------------------
 Center     Atomic      Atomic             Coordinates (Angstroms)
 Number     Number       Type             X           Y           Z
 ---------------------------------------------------------------------
      1         12           0        7.645354   -1.057596    0.347171
      2          6           0        8.045117    2.291338   -0.851594
      3          6           0        8.445884    0.115878    3.449618
      4          6           0        7.743679   -4.067410    1.341141
      5          6           0        7.996126   -2.123382   -2.952332
      6          7           0        8.158317    0.967477    1.079696
      7          6           0        8.217872    2.176177    0.529542
      8          6           0        8.406355    3.320110    1.570343
      9          6           0        9.075030    2.480267    2.749129
     10          6           0        8.498501    1.112172    2.429980
     11          6           0       10.595754    2.405956    2.657605
     12          6           0        7.043349    3.948575    2.016411
     13          6           0        7.152264    5.275352    2.773482
     14          1           0        6.127849    6.287299    2.563992
     15          7           0        7.556959   -1.807488    2.172739
     16          6           0        7.907063   -1.182749    3.322702
     17          6           0        7.659544   -2.156837    4.407400
     18          6           0        7.317042   -3.462146    3.777357
     19          6           0        7.554180   -3.167517    2.387271
     20          6           0        7.709971   -1.799796    5.861267
     21          6           0        6.860195   -4.770922    4.339964
     22          8           0        6.842386   -5.842117    3.642255
     23          6           0        6.513409   -4.784922    5.772649
     24          7           0        8.059917   -2.859954   -0.620960
     25          6           0        7.976395   -4.026745    0.027583
     26          6           0        8.036251   -5.185392   -0.923151
     27          6           0        7.933813   -4.560241   -2.388909
     28          6           0        7.913931   -3.060129   -2.004801
     29          6           0        9.291528   -6.063760   -0.829550
     30          6           0        6.809426   -5.101442   -3.307208
     31          6           0        5.459584   -4.693880   -2.760475
     32          7           0        7.787344   -0.107580   -1.599198
     33          6           0        7.951279   -0.743958   -2.838077
     34          6           0        8.104065    0.316168   -3.851417
     35          6           0        8.034532    1.503104   -3.124648
     36          6           0        7.876311    1.202967   -1.741472
     37          6           0        8.338081    0.114001   -5.240229
     38          6           0        8.081792    2.954692   -3.191836
     39          8           0        8.106370    3.780128   -4.105918
     40          6           0        8.212791    3.520914   -1.709251
     41          6           0        7.206263    4.628363   -1.555086
     42          8           0        5.981933    4.387779   -1.577474
     43          8           0        7.834699    5.749938   -1.170794
     44          6           0        6.889060    6.880454   -0.971161
     45          1           0        8.910881    0.323834    4.415265
     46          1           0        7.673506   -5.119116    1.626498
     47          1           0        8.024888   -2.378741   -4.013189
     48          1           0        9.079115    4.117035    1.252965
     49          1           0        8.736772    2.814673    3.729678
     50          1           0       10.960118    2.834661    1.724132
     51          1           0       10.838944    1.344517    2.709553
     52          1           0       11.059241    2.862710    3.532438
     53          1           0        6.598434    3.327397    2.793746
     54          1           0        6.378557    4.074999    1.161196
     55          1           0        8.146432    5.711571    2.672236
     56          1           0        7.054065    5.069428    3.839386
     57          1           0        8.148459   -0.814869    6.016805
     58          1           0        8.411430   -2.487110    6.333774
     59          1           0        6.733745   -1.884893    6.338837
     60          1           0        7.380980   -4.475695    6.355956
     61          1           0        6.123594   -5.781287    5.977956
     62          1           0        5.739226   -4.039248    5.955842
     63          1           0        7.199427   -5.864506   -0.765177
     64          1           0        8.846086   -4.716830   -2.965027
     65          1           0        9.076786   -7.115432   -0.638302
     66          1           0        9.936021   -5.649083   -0.054978
     67          1           0        9.944893   -6.021606   -1.700615
     68          1           0        6.830410   -6.190455   -3.330808
     69          1           0        6.884635   -4.745931   -4.334927
     70          1           0        5.257938   -5.460688   -2.013362
     71          1           0        4.708124   -4.711380   -3.550545
     72          1           0        5.513233   -3.737642   -2.239690
     73          1           0        7.690904    0.817302   -5.764155
     74          1           0        8.124499   -0.913964   -5.532248
     75          1           0        9.399331    0.354072   -5.303227
     76          1           0        9.235852    3.879387   -1.599864
     77          1           0        7.231882    7.700852   -1.601760
     78          1           0        6.837988    7.055620    0.103601
     79          1           0        5.877761    6.736132   -1.352977
     80         12           0       -8.207905   -0.351779   -0.307246
     81          6           0       -5.944542    2.433167   -0.325609
     82          6           0       -9.640184    1.022306    2.466750
     83          6           0       -9.917938   -3.006368    0.003113
     84          6           0       -5.925623   -2.041634   -2.327461
     85          7           0       -7.761674    1.492802    0.828837
     86          6           0       -6.918423    2.505018    0.692139
     87          6           0       -7.182146    3.695988    1.652144
     88          6           0       -7.956474    2.901845    2.813449
     89          6           0       -8.521650    1.749017    1.986260
     90          6           0       -7.028528    2.322754    3.868393
     91          6           0       -8.092961    4.796522    1.003107
     92          6           0       -8.138648    6.123873    1.763252
     93          1           0       -8.238379    7.362307    0.995917
     94          7           0       -9.874384   -0.693799    0.714732
     95          6           0      -10.313866   -0.025726    1.801844
     96          6           0      -11.575305   -0.675260    2.190489
     97          6           0      -11.760459   -1.884840    1.343539
     98          6           0      -10.486669   -1.920928    0.653422
     99          6           0      -12.505859   -0.096972    3.216696
    100          6           0      -12.891205   -2.856561    1.190651
    101          8           0      -12.743610   -3.969564    0.572370
    102          6           0      -14.150011   -2.509169    1.866100
    103          7           0       -7.867536   -2.322654   -0.874788
    104          6           0       -8.796855   -3.272063   -0.667626
    105          6           0       -8.448889   -4.545291   -1.401259
    106          6           0       -7.211295   -4.173677   -2.343517
    107          6           0       -6.991414   -2.708742   -1.906475
    108          6           0       -8.078279   -5.739534   -0.522152
    109          6           0       -7.364372   -4.477858   -3.859013
    110          6           0       -8.419779   -3.578894   -4.461808
    111          7           0       -6.372845    0.145720   -1.333460
    112          6           0       -5.564474   -0.719275   -2.103124
    113          6           0       -4.364491    0.045179   -2.500720
    114          6           0       -4.548534    1.304805   -1.910839
    115          6           0       -5.766801    1.317656   -1.179301
    116          6           0       -3.273090   -0.457342   -3.263898
    117          6           0       -3.984083    2.623161   -1.731858
    118          8           0       -3.009894    3.220285   -2.188076
    119          6           0       -4.801303    3.372409   -0.592923
    120          6           0       -5.130640    4.753498   -1.089569
    121          8           0       -5.895202    4.911428   -2.057613
    122          8           0       -4.665899    5.660228   -0.210809
    123          6           0       -4.977975    7.045106   -0.654133
    124          1           0      -10.013718    1.246008    3.466415
    125          1           0      -10.522390   -3.916251   -0.012653
    126          1           0       -5.214347   -2.466650   -3.038882
    127          1           0       -6.290207    4.163120    2.052150
    128          1           0       -8.760926    3.500572    3.232675
    129          1           0       -5.989360    2.440247    3.599173
    130          1           0       -7.284222    1.273776    3.941236
    131          1           0       -7.253203    2.756386    4.847064
    132          1           0       -9.143374    4.491508    1.094357
    133          1           0       -7.809302    4.973392   -0.016146
    134          1           0       -7.339728    6.198362    2.510994
    135          1           0       -9.059438    6.155810    2.350738
    136          1           0      -12.025883    0.708102    3.786669
    137          1           0      -12.691386   -0.881495    3.958290
    138          1           0      -13.460204    0.218508    2.789664
    139          1           0      -13.968345   -2.395386    2.932173
    140          1           0      -14.864209   -3.278791    1.566989
    141          1           0      -14.486687   -1.533459    1.498319
    142          1           0       -9.275294   -4.873474   -2.019673
    143          1           0       -6.303205   -4.725843   -2.060109
    144          1           0       -8.712309   -6.628012   -0.702946
    145          1           0       -8.139631   -5.433005    0.513612
    146          1           0       -7.044328   -6.070260   -0.604362
    147          1           0       -7.709791   -5.504083   -4.006298
    148          1           0       -6.441092   -4.365542   -4.417511
    149          1           0       -9.352253   -4.100194   -4.225504
    150          1           0       -8.278762   -3.490182   -5.537117
    151          1           0       -8.446929   -2.608061   -3.953478
    152          1           0       -3.020584    0.306988   -3.986763
    153          1           0       -3.527126   -1.396986   -3.750012
    154          1           0       -2.528633   -0.591648   -2.474589
    155          1           0       -4.173531    3.396850    0.298631
    156          1           0       -4.029477    7.589706   -0.692376
    157          1           0       -5.745140    7.418466    0.050005
    158          1           0       -5.338957    7.177658   -1.667331
 ---------------------------------------------------------------------

 SCF Done:  E(RCAM-B3LYP) =  -4069.81130000     A.U. after   19 cycles

 Excitation energies and oscillator strengths:

 Excited State   1:      Singlet-A      1.6712 eV  741.87 nm  f=0.1834  <S**2>=0.000
     309 -> 315       -0.10237
     310 -> 316        0.13924
     311 -> 313        0.55378
     312 -> 314       -0.40530
 This state for optimization and/or second-order correction.
 Total Energy, E(TD-HF/TD-DFT) =  -4069.74988276
 Copying the excited state density for this state as the 1-particle RhoCI density.

 Excited State   2:      Singlet-A      1.6842 eV  736.14 nm  f=0.5898  <S**2>=0.000
     309 -> 315        0.14233
     310 -> 316        0.10369
     311 -> 313        0.40493
     312 -> 314        0.55308

 Excited State   3:      Singlet-A      2.1859 eV  567.21 nm  f=0.0419  <S**2>=0.000
     309 -> 314       -0.19628
     310 -> 313        0.61190
     311 -> 316       -0.26011

 Excited State   4:      Singlet-A      2.1924 eV  565.53 nm  f=0.1500  <S**2>=0.000
     309 -> 314        0.61006
     310 -> 313        0.19514
     312 -> 315       -0.26513

 Excited State   5:      Singlet-A      2.7691 eV  447.74 nm  f=0.0000  <S**2>=0.000
     312 -> 313        0.70688

 The electronic state is 1-A.
 Alpha  occ. eigenvalues --  -46.87665 -46.87571 -19.26231 -19.26076 -19.19041
 Alpha  occ. eigenvalues --  -19.18797 -19.18714 -19.18636 -19.18011 -19.17904
 Alpha  occ. eigenvalues --  -14.42412 -14.42320 -14.41325 -14.41271 -14.39275
 Alpha  occ. eigenvalues --  -14.39263 -14.38503 -14.38450 -10.38972 -10.38865
 Alpha  occ. eigenvalues --  -10.35349 -10.35315 -10.34229 -10.34084 -10.31642
 Alpha  occ. eigenvalues --  -10.31465 -10.31268 -10.31215 -10.30942 -10.30778
 Alpha  occ. eigenvalues --  -10.30433 -10.30377 -10.30301 -10.30260 -10.30095
 Alpha  occ. eigenvalues --  -10.30062 -10.29800 -10.29794 -10.29501 -10.29350
 Alpha  occ. eigenvalues --  -10.29303 -10.29133 -10.28645 -10.28609 -10.28593
 Alpha  occ. eigenvalues --  -10.28388 -10.28310 -10.28231 -10.28070 -10.27987
 Alpha  occ. eigenvalues --  -10.27896 -10.27661 -10.27601 -10.27584 -10.27460
 Alpha  occ. eigenvalues --  -10.27441 -10.27401 -10.27396 -10.27392 -10.27381
 Alpha  occ. eigenvalues --  -10.27373 -10.27349 -10.27298 -10.27267 -10.26993
 Alpha  occ. eigenvalues --  -10.26930 -10.26621 -10.26545 -10.26353 -10.26331
 Alpha  occ. eigenvalues --  -10.26117 -10.26094 -10.26064 -10.25969 -10.25896
 Alpha  occ. eigenvalues --  -10.25845 -10.25701 -10.25697 -10.25346 -10.25327
 Alpha  occ. eigenvalues --  -10.24765 -10.24695 -10.24664 -10.24657 -10.24600
 Alpha  occ. eigenvalues --  -10.24598  -3.16408  -3.16321  -1.91289  -1.91204
 Alpha  occ. eigenvalues --   -1.90876  -1.90792  -1.90718  -1.90629  -1.16524
 Alpha  occ. eigenvalues --   -1.16423  -1.08508  -1.08462  -1.07117  -1.06890
 Alpha  occ. eigenvalues --   -1.06824  -1.06423  -1.04449  -1.04408  -1.03635
 Alpha  occ. eigenvalues --   -1.03574  -1.03104  -1.02947  -1.02282  -1.02019
 Alpha  occ. eigenvalues --   -0.91886  -0.91829  -0.89407  -0.89404  -0.89077
 Alpha  occ. eigenvalues --   -0.89052  -0.88175  -0.88138  -0.87734  -0.87677
 Alpha  occ. eigenvalues --   -0.87597  -0.87544  -0.87161  -0.87037  -0.84920
 Alpha  occ. eigenvalues --   -0.84848  -0.83824  -0.83792  -0.82866  -0.82855
 Alpha  occ. eigenvalues --   -0.82572  -0.82516  -0.81492  -0.81425  -0.80455
 Alpha  occ. eigenvalues --   -0.80347  -0.78676  -0.78543  -0.77095  -0.77060
 Alpha  occ. eigenvalues --   -0.76812  -0.76795  -0.75780  -0.75749  -0.74781
 Alpha  occ. eigenvalues --   -0.74718  -0.72646  -0.72602  -0.71545  -0.71494
 Alpha  occ. eigenvalues --   -0.69803  -0.69679  -0.68745  -0.68742  -0.67511
 Alpha  occ. eigenvalues --   -0.67508  -0.67123  -0.67086  -0.65186  -0.65147
 Alpha  occ. eigenvalues --   -0.64715  -0.64678  -0.64563  -0.64483  -0.64151
 Alpha  occ. eigenvalues --   -0.64118  -0.62174  -0.62129  -0.60328  -0.60255
 Alpha  occ. eigenvalues --   -0.59713  -0.59670  -0.58899  -0.58856  -0.58369
 Alpha  occ. eigenvalues --   -0.58329  -0.57438  -0.57421  -0.57177  -0.57144
 Alpha  occ. eigenvalues --   -0.56179  -0.56106  -0.55806  -0.55786  -0.55397
 Alpha  occ. eigenvalues --   -0.55359  -0.55207  -0.55153  -0.54392  -0.54374
 Alpha  occ. eigenvalues --   -0.53836  -0.53757  -0.53176  -0.53136  -0.53090
 Alpha  occ. eigenvalues --   -0.53052  -0.52809  -0.52764  -0.52640  -0.52594
 Alpha  occ. eigenvalues --   -0.52330  -0.52319  -0.51772  -0.51752  -0.51577
 Alpha  occ. eigenvalues --   -0.51481  -0.51095  -0.51057  -0.50474  -0.50403
 Alpha  occ. eigenvalues --   -0.49926  -0.49903  -0.49804  -0.49785  -0.49406
 Alpha  occ. eigenvalues --   -0.49387  -0.49108  -0.49076  -0.49006  -0.48961
 Alpha  occ. eigenvalues --   -0.48459  -0.48447  -0.48350  -0.48312  -0.48285
 Alpha  occ. eigenvalues --   -0.48245  -0.47569  -0.47509  -0.47173  -0.47034
 Alpha  occ. eigenvalues --   -0.46671  -0.46622  -0.46476  -0.46418  -0.46231
 Alpha  occ. eigenvalues --   -0.46179  -0.46023  -0.45986  -0.45710  -0.45668
 Alpha  occ. eigenvalues --   -0.45126  -0.45089  -0.44431  -0.44421  -0.44391
 Alpha  occ. eigenvalues --   -0.44384  -0.44037  -0.44026  -0.43990  -0.43960
 Alpha  occ. eigenvalues --   -0.43879  -0.43843  -0.43453  -0.43338  -0.43295
 Alpha  occ. eigenvalues --   -0.43260  -0.42894  -0.42830  -0.42791  -0.42570
 Alpha  occ. eigenvalues --   -0.42482  -0.42472  -0.41885  -0.41881  -0.41567
 Alpha  occ. eigenvalues --   -0.41562  -0.41401  -0.41380  -0.41014  -0.40904
 Alpha  occ. eigenvalues --   -0.40746  -0.40714  -0.40647  -0.40623  -0.40454
 Alpha  occ. eigenvalues --   -0.40410  -0.40156  -0.40093  -0.39348  -0.39340
 Alpha  occ. eigenvalues --   -0.38356  -0.38272  -0.37606  -0.37577  -0.37203
 Alpha  occ. eigenvalues --   -0.37182  -0.37123  -0.37114  -0.36662  -0.36538
 Alpha  occ. eigenvalues --   -0.36126  -0.36037  -0.34160  -0.34153  -0.33747
 Alpha  occ. eigenvalues --   -0.33564  -0.33083  -0.33048  -0.31243  -0.31196
 Alpha  occ. eigenvalues --   -0.30904  -0.30883  -0.29868  -0.29807  -0.29324
 Alpha  occ. eigenvalues --   -0.29234  -0.29184  -0.29102  -0.23949  -0.23945
 Alpha  occ. eigenvalues --   -0.21026  -0.20999
 Alpha virt. eigenvalues --   -0.08697  -0.08646  -0.01626  -0.01597   0.00059
 Alpha virt. eigenvalues --    0.00063   0.02324   0.02342   0.03274   0.03311
 Alpha virt. eigenvalues --    0.04810   0.04850   0.05285   0.05301   0.06254

 Mulliken charges:
               1
     1  Mg   0.839143
     2  C   -0.002454
     3  C   -0.094156
     4  C   -0.046060
     5  C   -0.064107
     6  N   -0.256715
     7  C   -0.052319
     8  C   -0.014021
     9  C   -0.086998
    10  C    0.046361
    11  C    0.104891
    12  C    0.053454
    13  C   -0.071763
    14  H    0.036617
    15  N   -0.433040
    16  C    0.168356
    17  C   -0.177365
    18  C   -0.004256
    19  C    0.148660
    20  C    0.110283
    21  C    0.012090
    22  O   -0.250016
    23  C    0.062560
    24  N   -0.341149
    25  C    0.041137
    26  C   -0.028052
    27  C   -0.023977
    28  C    0.074948
    29  C    0.076274
    30  C    0.035178
    31  C   -0.004457
    32  N   -0.310650
    33  C    0.080785
    34  C   -0.169336
    35  C    0.008620
    36  C    0.083465
    37  C    0.127151
    38  C    0.046776
    39  O   -0.187841
    40  C   -0.005578
    41  C    0.212699
    42  O   -0.255446
    43  O   -0.305268
    44  C    0.157386
    45  H   -0.017922
    46  H   -0.017217
    47  H   -0.041571
    48  H    0.000885
    49  H   -0.004240
    50  H    0.025425
    51  H    0.016276
    52  H    0.016344
    53  H    0.011139
    54  H    0.045165
    55  H    0.017535
    56  H    0.017469
    57  H    0.005721
    58  H    0.026476
    59  H    0.039177
    60  H    0.037224
    61  H    0.035235
    62  H    0.031359
    63  H    0.016238
    64  H    0.009333
    65  H    0.022886
    66  H    0.012506
    67  H    0.004587
    68  H    0.005981
    69  H    0.004796
    70  H    0.008374
    71  H    0.017887
    72  H    0.029541
    73  H    0.048297
    74  H    0.008976
    75  H    0.045792
    76  H    0.034842
    77  H    0.042679
    78  H    0.045940
    79  H    0.055057
    80  Mg   0.837662
    81  C   -0.016790
    82  C   -0.087936
    83  C   -0.045609
    84  C   -0.064938
    85  N   -0.254513
    86  C   -0.049875
    87  C   -0.015041
    88  C   -0.090473
    89  C    0.045642
    90  C    0.114452
    91  C    0.062579
    92  C   -0.077735
    93  H    0.034874
    94  N   -0.423448
    95  C    0.162750
    96  C   -0.174882
    97  C   -0.007991
    98  C    0.151970
    99  C    0.099481
   100  C    0.015420
   101  O   -0.253416
   102  C    0.061263
   103  N   -0.350064
   104  C    0.037375
   105  C   -0.019749
   106  C   -0.034862
   107  C    0.089064
   108  C    0.073720
   109  C    0.034744
   110  C   -0.007654
   111  N   -0.324224
   112  C    0.078545
   113  C   -0.163033
   114  C    0.002776
   115  C    0.096158
   116  C    0.131679
   117  C    0.042715
   118  O   -0.185669
   119  C    0.000729
   120  C    0.211605
   121  O   -0.251074
   122  O   -0.305633
   123  C    0.151994
   124  H   -0.020029
   125  H   -0.015780
   126  H   -0.040283
   127  H   -0.000705
   128  H   -0.004552
   129  H    0.022404
   130  H    0.014334
   131  H    0.015815
   132  H    0.013856
   133  H    0.037861
   134  H    0.020569
   135  H    0.019366
   136  H    0.008518
   137  H    0.025817
   138  H    0.039560
   139  H    0.038092
   140  H    0.036175
   141  H    0.033829
   142  H    0.014262
   143  H    0.012448
   144  H    0.024940
   145  H    0.011539
   146  H    0.005638
   147  H    0.006089
   148  H    0.003732
   149  H    0.010812
   150  H    0.017926
   151  H    0.030209
   152  H    0.046960
   153  H    0.008173
   154  H    0.047726
   155  H    0.035192
   156  H    0.044224
   157  H    0.048970
   158  H    0.053725
 Sum of Mulliken charges =  -0.00000

 Dipole moment (field-independent basis, Debye):
    X=             -0.0405    Y=              0.0112    Z=              7.9762  Tot=              7.9763
 Quadrupole moment (field-independent basis, Debye-Ang):
   XX=           -467.7148   YY=           -506.7089   ZZ=           -486.1025
   XY=            -24.8532   XZ=             -1.8055   YZ=             59.0771

 Normal termination of Gaussian 16 at Sun Sep 12 03:53:16 2021.
