 Gaussian 16, Revision A.03,
 Gaussian 16:  ES64L-G16RevA.03 25-Dec-2016

 -----------------------------------
 #p cam-b3lyp/Def2SVP td=(nstates=5)
 -----------------------------------

 --------------------------------
 TDDFT excited states in gaussian
 --------------------------------
 Symbolic Z-matrix:
 Charge =  0 Multiplicity = 1

                         Standard orientation:
 ---------------------------------------------------------------------
 Center     Atomic      Atomic             Coordinates (Angstroms)
 Number     Number       Type             X           Y           Z
 ---------------------------------------------------------------------
      1         12           0        6.815403    0.277327    0.071304
      2          6           0        6.789873   -3.208795   -0.740187
      3          6           0        7.650656    0.876337   -3.182402
      4          6           0        7.288207    3.311057    0.864750
      5          6           0        7.101121   -0.654607    3.417276
      6          7           0        7.147232   -1.077219   -1.647922
      7          6           0        7.047612   -2.388703   -1.840943
      8          6           0        7.168054   -2.803783   -3.337798
      9          6           0        7.984852   -1.547521   -3.882449
     10          6           0        7.541748   -0.510334   -2.865678
     11          6           0        9.497711   -1.715724   -3.785137
     12          6           0        5.771468   -2.925234   -4.035316
     13          6           0        5.778170   -3.636273   -5.391683
     14          1           0        4.641640   -4.471157   -5.750315
     15          7           0        6.905554    1.897307   -1.055810
     16          6           0        7.247843    1.954759   -2.365323
     17          6           0        7.164353    3.381165   -2.746214
     18          6           0        6.930242    4.170563   -1.505192
     19          6           0        7.059774    3.147271   -0.499471
     20          6           0        7.254018    3.861297   -4.162259
     21          6           0        6.646797    5.619443   -1.263245
     22          8           0        6.706381    6.138552   -0.096391
     23          6           0        6.380662    6.444754   -2.455334
     24          7           0        7.368006    1.208867    1.855821
     25          6           0        7.444613    2.541302    1.943758
     26          6           0        7.577121    2.987679    3.369636
     27          6           0        7.330105    1.688382    4.264378
     28          6           0        7.170434    0.647057    3.129294
     29          6           0        8.922364    3.621257    3.750310
     30          6           0        6.222552    1.778239    5.344041
     31          6           0        4.868056    1.893680    4.681386
     32          7           0        6.750588   -1.581014    1.190864
     33          6           0        6.915135   -1.737821    2.574703
     34          6           0        6.899185   -3.186229    2.850252
     35          6           0        6.742059   -3.775789    1.597425
     36          6           0        6.691097   -2.761014    0.599465
     37          6           0        7.078834   -3.794241    4.124019
     38          6           0        6.630090   -5.027947    0.867069
     39          8           0        6.517272   -6.211916    1.187978
     40          6           0        6.778906   -4.716324   -0.687464
     41          6           0        5.669376   -5.436906   -1.403714
     42          8           0        4.478377   -5.102804   -1.238600
     43          8           0        6.193875   -6.239600   -2.342398
     44          6           0        5.144762   -6.962142   -3.110155
     45          1           0        8.141738    1.168267   -4.112755
     46          1           0        7.346322    4.350144    1.195444
     47          1           0        7.100229   -1.017052    4.446881
     48          1           0        7.733743   -3.719349   -3.511456
     49          1           0        7.665717   -1.257480   -4.883324
     50          1           0        9.763644   -2.619760   -3.237488
     51          1           0        9.855490   -0.831619   -3.257077
     52          1           0        9.955817   -1.680020   -4.773894
     53          1           0        5.437799   -1.935317   -4.346427
     54          1           0        5.052161   -3.412671   -3.376280
     55          1           0        6.713114   -4.172782   -5.555836
     56          1           0        5.759743   -2.878239   -6.174782
     57          1           0        7.592311    3.071796   -4.832177
     58          1           0        8.049254    4.605708   -4.196308
     59          1           0        6.319460    4.305799   -4.504825
     60          1           0        7.240135    6.398246   -3.124432
     61          1           0        6.111225    7.432548   -2.083154
     62          1           0        5.542066    6.013839   -3.003073
     63          1           0        6.827412    3.738585    3.615609
     64          1           0        8.221752    1.399869    4.821514
     65          1           0        8.831907    4.626769    4.161976
     66          1           0        9.559313    3.616468    2.866249
     67          1           0        9.519917    3.038805    4.451092
     68          1           0        6.358629    2.671024    5.953436
     69          1           0        6.204195    0.918801    6.014325
     70          1           0        4.789871    2.959802    4.471377
     71          1           0        4.081587    1.571671    5.364751
     72          1           0        4.846887    1.370773    3.725036
     73          1           0        6.333028   -4.586158    4.191920
     74          1           0        6.961134   -3.069179    4.929025
     75          1           0        8.103410   -4.154560    4.033081
     76          1           0        7.762124   -5.077886   -0.986925
     77          1           0        5.363611   -8.026916   -3.028947
     78          1           0        5.132828   -6.522683   -4.107721
     79          1           0        4.135733   -6.927410   -2.697853
     80         12           0       -6.396277    1.073092    0.385405
     81          6           0       -8.336127   -1.939499    0.184643
     82          6           0       -7.566542    1.856419   -2.721280
     83          6           0       -4.358183    3.504450    0.339338
     84          6           0       -4.533169   -0.459047    2.900774
     85          7           0       -7.769413    0.015337   -0.988601
     86          6           0       -8.493620   -1.092211   -0.931937
     87          6           0       -9.499313   -1.263658   -2.101867
     88          6           0       -8.759907   -0.344201   -3.191258
     89          6           0       -8.009048    0.594820   -2.249393
     90          6           0       -7.739282   -1.101267   -4.024633
     91          6           0      -10.923880   -0.706712   -1.751963
     92          6           0      -12.031502   -1.116732   -2.725011
     93          1           0      -13.368346   -1.365986   -2.192847
     94          7           0       -6.370458    2.706041   -0.742148
     95          6           0       -6.914284    2.857144   -1.967989
     96          6           0       -6.604029    4.235271   -2.378682
     97          6           0       -5.691625    4.832394   -1.365926
     98          6           0       -5.415394    3.671843   -0.543176
     99          6           0       -7.220806    4.883542   -3.583992
    100          6           0       -5.146460    6.215682   -1.177508
    101          8           0       -4.181690    6.454768   -0.368251
    102          6           0       -5.712311    7.266016   -2.036639
    103          7           0       -4.562222    1.393226    1.310655
    104          6           0       -3.908533    2.559140    1.164885
    105          6           0       -2.757067    2.664076    2.136237
    106          6           0       -2.921832    1.424645    3.133348
    107          6           0       -4.142382    0.737143    2.482973
    108          6           0       -1.359828    2.636558    1.517078
    109          6           0       -2.976624    1.745679    4.652104
    110          6           0       -4.246392    2.500023    4.974684
    111          7           0       -6.518545   -0.767937    1.509558
    112          6           0       -5.619887   -1.224877    2.498352
    113          6           0       -6.057547   -2.579930    2.891671
    114          6           0       -7.175749   -2.828490    2.081532
    115          6           0       -7.405799   -1.715618    1.228238
    116          6           0       -5.413075   -3.418486    3.844357
    117          6           0       -8.207441   -3.783567    1.746657
    118          8           0       -8.566673   -4.869194    2.200629
    119          6           0       -8.928777   -3.302021    0.414669
    120          6           0      -10.414375   -3.392244    0.632299
    121          8           0      -10.975906   -2.663957    1.469492
    122          8           0      -10.954695   -4.162231   -0.329746
    123          6           0      -12.428399   -4.272872   -0.163071
    124          1           0       -7.692179    2.087764   -3.779376
    125          1           0       -3.688731    4.361734    0.441164
    126          1           0       -4.063484   -0.963759    3.747731
    127          1           0       -9.595089   -2.276705   -2.473796
    128          1           0       -9.476320    0.210561   -3.791538
    129          1           0       -7.594352   -2.109472   -3.665928
    130          1           0       -6.819457   -0.536426   -3.947663
    131          1           0       -8.021379   -1.075321   -5.081079
    132          1           0      -10.931245    0.380011   -1.906026
    133          1           0      -11.203299   -0.976250   -0.752019
    134          1           0      -11.719995   -1.938083   -3.381738
    135          1           0      -12.219453   -0.284368   -3.407548
    136          1           0       -7.721452    4.147254   -4.224789
    137          1           0       -6.397851    5.263754   -4.198850
    138          1           0       -7.880784    5.713968   -3.324222
    139          1           0       -5.558185    7.001130   -3.079971
    140          1           0       -5.261473    8.199038   -1.692995
    141          1           0       -6.795869    7.301871   -1.877805
    142          1           0       -2.814284    3.583452    2.705959
    143          1           0       -2.081992    0.719394    3.048996
    144          1           0       -0.751157    3.524111    1.773681
    145          1           0       -1.463691    2.543973    0.444150
    146          1           0       -0.760885    1.762623    1.767471
    147          1           0       -2.147314    2.400386    4.930960
    148          1           0       -2.917236    0.864550    5.282250
    149          1           0       -3.988433    3.534275    4.727965
    150          1           0       -4.496375    2.396236    6.028614
    151          1           0       -5.063905    2.196733    4.310355
    152          1           0       -6.193710   -3.856984    4.451658
    153          1           0       -4.703508   -2.859249    4.450617
    154          1           0       -4.914275   -4.125469    3.176050
    155          1           0       -8.593113   -3.953118   -0.393407
    156          1           0      -12.664970   -5.340191   -0.112512
    157          1           0      -12.867694   -3.698688   -1.000373
    158          1           0      -12.855680   -3.917241    0.767201
 ---------------------------------------------------------------------

 SCF Done:  E(RCAM-B3LYP) =  -4069.81173310     A.U. after   19 cycles

 Excitation energies and oscillator strengths:

 Excited State   1:      Singlet-A      1.6651 eV  744.59 nm  f=0.0087  <S**2>=0.000
     309 -> 315       -0.10842
     310 -> 316        0.13267
     311 -> 313       -0.43316
     312 -> 314        0.53277
 This state for optimization and/or second-order correction.
 Total Energy, E(TD-HF/TD-DFT) =  -4069.75054079
 Copying the excited state density for this state as the 1-particle RhoCI density.

 Excited State   2:      Singlet-A      1.6896 eV  733.80 nm  f=0.7338  <S**2>=0.000
     309 -> 315        0.13824
     310 -> 316        0.11178
     311 -> 313        0.53157
     312 -> 314        0.43224

 Excited State   3:      Singlet-A      2.1849 eV  567.46 nm  f=0.0731  <S**2>=0.000
     309 -> 313       -0.14701
     310 -> 314        0.62591
     312 -> 316       -0.26514

 Excited State   4:      Singlet-A      2.1937 eV  565.18 nm  f=0.1223  <S**2>=0.000
     309 -> 313        0.62363
     310 -> 314        0.14551
     311 -> 315       -0.27164

 Excited State   5:      Singlet-A      2.6517 eV  467.57 nm  f=0.0000  <S**2>=0.000
     312 -> 313        0.70695

 The electronic state is 1-A.
 Alpha  occ. eigenvalues --  -46.87831 -46.87546 -19.26304 -19.26262 -19.19069
 Alpha  occ. eigenvalues --  -19.19044 -19.18815 -19.18624 -19.18192 -19.17937
 Alpha  occ. eigenvalues --  -14.42481 -14.42387 -14.41484 -14.41239 -14.39432
 Alpha  occ. eigenvalues --  -14.39241 -14.38621 -14.38483 -10.39103 -10.38997
 Alpha  occ. eigenvalues --  -10.35447 -10.35304 -10.34413 -10.34114 -10.31693
 Alpha  occ. eigenvalues --  -10.31678 -10.31438 -10.31197 -10.30935 -10.30923
 Alpha  occ. eigenvalues --  -10.30603 -10.30538 -10.30279 -10.30244 -10.30239
 Alpha  occ. eigenvalues --  -10.30022 -10.29957 -10.29766 -10.29658 -10.29324
 Alpha  occ. eigenvalues --  -10.29288 -10.29281 -10.28776 -10.28630 -10.28588
 Alpha  occ. eigenvalues --  -10.28569 -10.28392 -10.28296 -10.28145 -10.28049
 Alpha  occ. eigenvalues --  -10.27886 -10.27819 -10.27758 -10.27608 -10.27561
 Alpha  occ. eigenvalues --  -10.27549 -10.27496 -10.27489 -10.27433 -10.27393
 Alpha  occ. eigenvalues --  -10.27375 -10.27372 -10.27359 -10.27234 -10.27182
 Alpha  occ. eigenvalues --  -10.26942 -10.26735 -10.26615 -10.26387 -10.26352
 Alpha  occ. eigenvalues --  -10.26259 -10.26258 -10.26056 -10.26016 -10.25937
 Alpha  occ. eigenvalues --  -10.25875 -10.25808 -10.25686 -10.25463 -10.25231
 Alpha  occ. eigenvalues --  -10.24860 -10.24818 -10.24798 -10.24755 -10.24623
 Alpha  occ. eigenvalues --  -10.24573  -3.16574  -3.16296  -1.91456  -1.91178
 Alpha  occ. eigenvalues --   -1.91042  -1.90884  -1.90767  -1.90603  -1.16653
 Alpha  occ. eigenvalues --   -1.16555  -1.08650  -1.08544  -1.07215  -1.06877
 Alpha  occ. eigenvalues --   -1.06853  -1.06666  -1.04611  -1.04386  -1.03793
 Alpha  occ. eigenvalues --   -1.03549  -1.03265  -1.02920  -1.02443  -1.01995
 Alpha  occ. eigenvalues --   -0.92001  -0.91875  -0.89565  -0.89373  -0.89217
 Alpha  occ. eigenvalues --   -0.89057  -0.88329  -0.88093  -0.87900  -0.87704
 Alpha  occ. eigenvalues --   -0.87663  -0.87573  -0.87289  -0.87027  -0.85010
 Alpha  occ. eigenvalues --   -0.84902  -0.83985  -0.83751  -0.82980  -0.82839
 Alpha  occ. eigenvalues --   -0.82672  -0.82558  -0.81611  -0.81493  -0.80621
 Alpha  occ. eigenvalues --   -0.80339  -0.78819  -0.78530  -0.77254  -0.77039
 Alpha  occ. eigenvalues --   -0.76966  -0.76793  -0.75951  -0.75739  -0.74934
 Alpha  occ. eigenvalues --   -0.74676  -0.72806  -0.72580  -0.71701  -0.71466
 Alpha  occ. eigenvalues --   -0.69967  -0.69635  -0.68899  -0.68729  -0.67666
 Alpha  occ. eigenvalues --   -0.67492  -0.67242  -0.67112  -0.65317  -0.65174
 Alpha  occ. eigenvalues --   -0.64885  -0.64658  -0.64653  -0.64550  -0.64311
 Alpha  occ. eigenvalues --   -0.64083  -0.62324  -0.62175  -0.60464  -0.60235
 Alpha  occ. eigenvalues --   -0.59832  -0.59696  -0.59019  -0.58877  -0.58533
 Alpha  occ. eigenvalues --   -0.58314  -0.57610  -0.57446  -0.57339  -0.57122
 Alpha  occ. eigenvalues --   -0.56335  -0.56094  -0.56001  -0.55792  -0.55538
 Alpha  occ. eigenvalues --   -0.55378  -0.55355  -0.55127  -0.54560  -0.54374
 Alpha  occ. eigenvalues --   -0.53923  -0.53820  -0.53325  -0.53241  -0.53119
 Alpha  occ. eigenvalues --   -0.53043  -0.52944  -0.52802  -0.52770  -0.52586
 Alpha  occ. eigenvalues --   -0.52500  -0.52284  -0.51946  -0.51741  -0.51638
 Alpha  occ. eigenvalues --   -0.51568  -0.51229  -0.51089  -0.50580  -0.50391
 Alpha  occ. eigenvalues --   -0.50075  -0.49935  -0.49883  -0.49746  -0.49534
 Alpha  occ. eigenvalues --   -0.49394  -0.49237  -0.49122  -0.49102  -0.48999
 Alpha  occ. eigenvalues --   -0.48620  -0.48492  -0.48457  -0.48453  -0.48247
 Alpha  occ. eigenvalues --   -0.48245  -0.47722  -0.47494  -0.47321  -0.47011
 Alpha  occ. eigenvalues --   -0.46834  -0.46596  -0.46582  -0.46459  -0.46391
 Alpha  occ. eigenvalues --   -0.46195  -0.46156  -0.45960  -0.45850  -0.45705
 Alpha  occ. eigenvalues --   -0.45239  -0.45082  -0.44605  -0.44532  -0.44412
 Alpha  occ. eigenvalues --   -0.44370  -0.44182  -0.44115  -0.44038  -0.44027
 Alpha  occ. eigenvalues --   -0.43969  -0.43843  -0.43522  -0.43450  -0.43417
 Alpha  occ. eigenvalues --   -0.43278  -0.43058  -0.42832  -0.42787  -0.42734
 Alpha  occ. eigenvalues --   -0.42695  -0.42438  -0.42056  -0.41855  -0.41733
 Alpha  occ. eigenvalues --   -0.41564  -0.41558  -0.41360  -0.41169  -0.40906
 Alpha  occ. eigenvalues --   -0.40879  -0.40831  -0.40634  -0.40613  -0.40602
 Alpha  occ. eigenvalues --   -0.40372  -0.40260  -0.40145  -0.39508  -0.39303
 Alpha  occ. eigenvalues --   -0.38510  -0.38227  -0.37778  -0.37563  -0.37360
 Alpha  occ. eigenvalues --   -0.37292  -0.37147  -0.37098  -0.36742  -0.36672
 Alpha  occ. eigenvalues --   -0.36225  -0.36103  -0.34318  -0.34139  -0.33796
 Alpha  occ. eigenvalues --   -0.33766  -0.33217  -0.33061  -0.31347  -0.31181
 Alpha  occ. eigenvalues --   -0.31064  -0.30861  -0.30052  -0.29841  -0.29472
 Alpha  occ. eigenvalues --   -0.29350  -0.29221  -0.29092  -0.24112  -0.23920
 Alpha  occ. eigenvalues --   -0.21159  -0.21002
 Alpha virt. eigenvalues --   -0.08801  -0.08679  -0.01780  -0.01569  -0.00074
 Alpha virt. eigenvalues --    0.00070   0.02173   0.02326   0.03060   0.03331
 Alpha virt. eigenvalues --    0.04686   0.04835   0.05075   0.05261   0.06147

 Mulliken charges:
               1
     1  Mg   0.838229
     2  C   -0.002996
     3  C   -0.094063
     4  C   -0.045878
     5  C   -0.064183
     6  N   -0.256768
     7  C   -0.052550
     8  C   -0.013962
     9  C   -0.087022
    10  C    0.046342
    11  C    0.104792
    12  C    0.053467
    13  C   -0.071783
    14  H    0.036075
    15  N   -0.433232
    16  C    0.168497
    17  C   -0.177016
    18  C   -0.003778
    19  C    0.148717
    20  C    0.110180
    21  C    0.012641
    22  O   -0.249342
    23  C    0.062321
    24  N   -0.341039
    25  C    0.041114
    26  C   -0.028250
    27  C   -0.023934
    28  C    0.074569
    29  C    0.076109
    30  C    0.035216
    31  C   -0.004563
    32  N   -0.310401
    33  C    0.080068
    34  C   -0.170015
    35  C    0.008405
    36  C    0.082709
    37  C    0.127362
    38  C    0.046021
    39  O   -0.188282
    40  C   -0.005287
    41  C    0.212961
    42  O   -0.257278
    43  O   -0.304770
    44  C    0.157623
    45  H   -0.017507
    46  H   -0.016633
    47  H   -0.041642
    48  H    0.001014
    49  H   -0.004034
    50  H    0.025548
    51  H    0.016489
    52  H    0.016714
    53  H    0.011139
    54  H    0.044066
    55  H    0.017962
    56  H    0.017882
    57  H    0.005789
    58  H    0.026951
    59  H    0.039816
    60  H    0.037140
    61  H    0.036247
    62  H    0.031894
    63  H    0.016569
    64  H    0.009636
    65  H    0.023415
    66  H    0.012688
    67  H    0.004819
    68  H    0.006602
    69  H    0.004711
    70  H    0.009028
    71  H    0.016908
    72  H    0.028706
    73  H    0.047485
    74  H    0.008891
    75  H    0.046172
    76  H    0.035254
    77  H    0.043139
    78  H    0.046334
    79  H    0.053779
    80  Mg   0.837907
    81  C   -0.016894
    82  C   -0.088042
    83  C   -0.045654
    84  C   -0.063967
    85  N   -0.254552
    86  C   -0.049739
    87  C   -0.015086
    88  C   -0.090514
    89  C    0.045783
    90  C    0.114445
    91  C    0.062565
    92  C   -0.077732
    93  H    0.034662
    94  N   -0.423394
    95  C    0.162840
    96  C   -0.175047
    97  C   -0.008034
    98  C    0.152038
    99  C    0.099572
   100  C    0.015249
   101  O   -0.253184
   102  C    0.061283
   103  N   -0.349980
   104  C    0.037581
   105  C   -0.019950
   106  C   -0.035006
   107  C    0.088997
   108  C    0.073265
   109  C    0.034640
   110  C   -0.007611
   111  N   -0.324217
   112  C    0.078493
   113  C   -0.162602
   114  C    0.002337
   115  C    0.096301
   116  C    0.131537
   117  C    0.042624
   118  O   -0.187722
   119  C    0.000835
   120  C    0.211180
   121  O   -0.251146
   122  O   -0.305586
   123  C    0.152100
   124  H   -0.020182
   125  H   -0.015576
   126  H   -0.039789
   127  H   -0.000703
   128  H   -0.004665
   129  H    0.022674
   130  H    0.014483
   131  H    0.015778
   132  H    0.013839
   133  H    0.037671
   134  H    0.020711
   135  H    0.019395
   136  H    0.008481
   137  H    0.025502
   138  H    0.039475
   139  H    0.037802
   140  H    0.036161
   141  H    0.033815
   142  H    0.014197
   143  H    0.013787
   144  H    0.025484
   145  H    0.011364
   146  H    0.006760
   147  H    0.006060
   148  H    0.003774
   149  H    0.010821
   150  H    0.017600
   151  H    0.030024
   152  H    0.045742
   153  H    0.008732
   154  H    0.048368
   155  H    0.035188
   156  H    0.043848
   157  H    0.049320
   158  H    0.053487
 Sum of Mulliken charges =  -0.00000

 Dipole moment (field-independent basis, Debye):
    X=              2.3481    Y=              3.8619    Z=             -7.5260  Tot=              8.7788
 Quadrupole moment (field-independent basis, Debye-Ang):
   XX=           -479.2117   YY=           -562.3674   ZZ=           -450.5078
   XY=            -13.6983   XZ=             29.3983   YZ=              8.9452

 Normal termination of Gaussian 16 at Sat Sep 11 16:07:46 2021.
