 Gaussian 16, Revision A.03,
 Gaussian 16:  ES64L-G16RevA.03 25-Dec-2016

 -----------------------------------
 #p cam-b3lyp/Def2SVP td=(nstates=5)
 -----------------------------------

 --------------------------------
 TDDFT excited states in gaussian
 --------------------------------
 Symbolic Z-matrix:
 Charge =  0 Multiplicity = 1

                         Standard orientation:
 ---------------------------------------------------------------------
 Center     Atomic      Atomic             Coordinates (Angstroms)
 Number     Number       Type             X           Y           Z
 ---------------------------------------------------------------------
      1         12           0       16.063559    0.554273    0.220179
      2          6           0       16.239799   -2.906731   -0.675703
      3          6           0       16.940380    1.278313   -2.996965
      4          6           0       16.358040    3.587341    1.097901
      5          6           0       16.321249   -0.446232    3.548579
      6          7           0       16.505334   -0.737102   -1.522759
      7          6           0       16.479201   -2.046665   -1.749768
      8          6           0       16.655488   -2.416777   -3.252870
      9          6           0       17.417394   -1.106345   -3.747104
     10          6           0       16.897266   -0.119740   -2.716569
     11          6           0       18.934378   -1.198131   -3.617352
     12          6           0       15.283531   -2.592875   -3.986666
     13          6           0       15.358602   -3.267929   -5.359262
     14          1           0       14.276009   -4.151361   -5.765327
     15          7           0       16.094222    2.204850   -0.864950
     16          6           0       16.462879    2.313249   -2.164037
     17          6           0       16.313291    3.742602   -2.512251
     18          6           0       16.009705    4.486997   -1.258535
     19          6           0       16.169789    3.446607   -0.275001
     20          6           0       16.409966    4.262552   -3.913699
     21          6           0       15.645064    5.912580   -0.988566
     22          8           0       15.650588    6.404282    0.191592
     23          6           0       15.363266    6.752957   -2.166445
     24          7           0       16.525495    1.467646    2.039519
     25          6           0       16.529956    2.799598    2.161457
     26          6           0       16.606182    3.215900    3.600491
     27          6           0       16.407377    1.883220    4.457342
     28          6           0       16.328642    0.864169    3.293896
     29          6           0       17.907218    3.908648    4.028764
     30          6           0       15.272230    1.887959    5.511779
     31          6           0       13.929050    1.949658    4.819568
     32          7           0       16.070887   -1.332759    1.292608
     33          6           0       16.211754   -1.515898    2.675825
     34          6           0       16.265631   -2.969709    2.915826
     35          6           0       16.168393   -3.534629    1.645686
     36          6           0       16.087020   -2.498855    0.671600
     37          6           0       16.447799   -3.599718    4.178496
     38          6           0       16.139103   -4.771960    0.882790
     39          8           0       16.081340   -5.967959    1.172172
     40          6           0       16.306854   -4.413646   -0.659708
     41          6           0       15.253390   -5.172482   -1.419767
     42          8           0       14.043018   -4.905016   -1.275457
     43          8           0       15.840671   -5.922740   -2.364625
     44          6           0       14.848805   -6.679085   -3.174749
     45          1           0       17.436594    1.618897   -3.907852
     46          1           0       16.353900    4.619310    1.454918
     47          1           0       16.315855   -0.834265    4.568801
     48          1           0       17.272326   -3.297008   -3.434881
     49          1           0       17.106434   -0.807953   -4.748097
     50          1           0       19.234850   -2.100745   -3.085444
     51          1           0       19.233039   -0.310328   -3.059589
     52          1           0       19.412469   -1.113574   -4.593598
     53          1           0       14.905512   -1.614051   -4.281736
     54          1           0       14.575945   -3.133608   -3.357178
     55          1           0       16.323954   -3.750792   -5.513690
     56          1           0       15.318287   -2.492233   -6.124030
     57          1           0       16.804507    3.508964   -4.594131
     58          1           0       17.165562    5.047902   -3.910521
     59          1           0       15.461424    4.666452   -4.267908
     60          1           0       16.239073    6.768177   -2.815505
     61          1           0       15.033859    7.715645   -1.777122
     62          1           0       14.561217    6.293100   -2.744544
     63          1           0       15.812625    3.920348    3.846349
     64          1           0       17.299976    1.627369    5.028728
     65          1           0       17.754663    4.897321    4.462304
     66          1           0       18.563592    3.959414    3.160498
     67          1           0       18.518366    3.340421    4.729502
     68          1           0       15.347237    2.770844    6.145683
     69          1           0       15.283730    1.011983    6.160459
     70          1           0       13.799779    3.015266    4.633556
     71          1           0       13.145163    1.569968    5.475745
     72          1           0       13.957262    1.450814    3.850628
     73          1           0       15.743275   -4.430785    4.209196
     74          1           0       16.273785   -2.902429    4.997709
     75          1           0       17.491704   -3.903888    4.103664
     76          1           0       17.314303   -4.715910   -0.943971
     77          1           0       15.121383   -7.732769   -3.114032
     78          1           0       14.836615   -6.215648   -4.161401
     79          1           0       13.830180   -6.707311   -2.786233
     80         12           0      -15.696007    0.789694    0.255790
     81          6           0      -17.586068   -2.252901    0.033647
     82          6           0      -16.974337    1.630843   -2.792643
     83          6           0      -13.704718    3.259584    0.212978
     84          6           0      -13.729676   -0.771475    2.672810
     85          7           0      -17.090905   -0.257971   -1.103952
     86          6           0      -17.792828   -1.380131   -1.054912
     87          6           0      -18.830397   -1.540262   -2.198319
     88          6           0      -18.141313   -0.579088   -3.284676
     89          6           0      -17.379296    0.349308   -2.341232
     90          6           0      -17.132960   -1.294866   -4.167985
     91          6           0      -20.253526   -1.019642   -1.791289
     92          6           0      -21.382641   -1.425248   -2.741203
     93          1           0      -22.697918   -1.713469   -2.176006
     94          7           0      -15.734162    2.451466   -0.828464
     95          6           0      -16.317719    2.623915   -2.033038
     96          6           0      -16.045170    4.017838   -2.416264
     97          6           0      -15.113344    4.605731   -1.415865
     98          6           0      -14.791174    3.429714   -0.632729
     99          6           0      -16.710022    4.685280   -3.584989
    100          6           0      -14.587892    5.993759   -1.207353
    101          8           0      -13.603427    6.230039   -0.421329
    102          6           0      -15.198610    7.055054   -2.021074
    103          7           0      -13.840742    1.120451    1.133819
    104          6           0      -13.213054    2.301928    0.999406
    105          6           0      -12.034652    2.403469    1.938251
    106          6           0      -12.146459    1.135755    2.906745
    107          6           0      -13.373560    0.442327    2.275274
    108          6           0      -10.656642    2.418461    1.277003
    109          6           0      -12.160802    1.416275    4.434409
    110          6           0      -13.433635    2.137841    4.814715
    111          7           0      -15.750547   -1.081798    1.334027
    112          6           0      -14.814057   -1.547070    2.283021
    113          6           0      -15.214879   -2.919901    2.653322
    114          6           0      -16.352524   -3.168543    1.870753
    115          6           0      -16.628610   -2.038527    1.054457
    116          6           0      -14.526577   -3.770470    3.563767
    117          6           0      -17.376428   -4.134000    1.541809
    118          8           0      -17.701909   -5.237629    1.977471
    119          6           0      -18.146603   -3.631907    0.245223
    120          6           0      -19.623013   -3.755844    0.504814
    121          8           0      -20.171909   -3.060235    1.377419
    122          8           0      -20.178305   -4.510778   -0.460646
    123          6           0      -21.643996   -4.653590   -0.252872
    124          1           0      -17.136313    1.887074   -3.840020
    125          1           0      -13.048150    4.126478    0.317328
    126          1           0      -13.225334   -1.288941    3.491685
    127          1           0      -18.919062   -2.544984   -2.593860
    128          1           0      -18.885622   -0.022633   -3.848346
    129          1           0      -16.958904   -2.309084   -3.840564
    130          1           0      -16.221620   -0.714878   -4.103699
    131          1           0      -17.447516   -1.246925   -5.214449
    132          1           0      -20.285298    0.070372   -1.916272
    133          1           0      -20.497443   -1.320215   -0.790895
    134          1           0      -21.076414   -2.223276   -3.428468
    135          1           0      -21.606356   -0.579205   -3.395559
    136          1           0      -17.216508    3.956478   -4.229743
    137          1           0      -15.913203    5.096807   -4.213963
    138          1           0      -17.376751    5.496066   -3.283696
    139          1           0      -15.071540    6.820230   -3.075201
    140          1           0      -14.754530    7.987248   -1.666552
    141          1           0      -16.277305    7.066267   -1.828956
    142          1           0      -12.091171    3.306547    2.533536
    143          1           0      -11.296912    0.448956    2.778630
    144          1           0      -10.056653    3.310449    1.538632
    145          1           0      -10.791422    2.351721    0.205593
    146          1           0      -10.034587    1.549836    1.486139
    147          1           0      -11.335403    2.079146    4.705495
    148          1           0      -12.066274    0.520425    5.038975
    149          1           0      -13.202131    3.182836    4.587810
    150          1           0      -13.649496    2.002100    5.872552
    151          1           0      -14.265359    1.836414    4.167391
    152          1           0      -15.280281   -4.239248    4.182379
    153          1           0      -13.809149   -3.213779    4.163065
    154          1           0      -14.035617   -4.450344    2.862347
    155          1           0      -17.823940   -4.255392   -0.589483
    156          1           0      -21.859509   -5.726145   -0.223477
    157          1           0      -22.118934   -4.066336   -1.061163
    158          1           0      -22.049137   -4.330309    0.698864
 ---------------------------------------------------------------------

 SCF Done:  E(RCAM-B3LYP) =  -4069.81176945     A.U. after   19 cycles

 Excitation energies and oscillator strengths:

 Excited State   1:      Singlet-A      1.6753 eV  740.08 nm  f=0.2130  <S**2>=0.000
     310 -> 316       -0.16865
     311 -> 313        0.66673
     312 -> 314       -0.16167
     310 <- 316       -0.10168
 This state for optimization and/or second-order correction.
 Total Energy, E(TD-HF/TD-DFT) =  -4069.75020389
 Copying the excited state density for this state as the 1-particle RhoCI density.

 Excited State   2:      Singlet-A      1.6801 eV  737.95 nm  f=0.5644  <S**2>=0.000
     309 -> 315        0.17067
     311 -> 313        0.16162
     312 -> 314        0.66637
     309 <- 315        0.10218

 Excited State   3:      Singlet-A      2.1861 eV  567.15 nm  f=0.0996  <S**2>=0.000
     310 -> 313        0.64230
     311 -> 316        0.27305

 Excited State   4:      Singlet-A      2.1925 eV  565.48 nm  f=0.1013  <S**2>=0.000
     309 -> 314        0.64053
     312 -> 315       -0.27823

 Excited State   5:      Singlet-A      3.0634 eV  404.72 nm  f=0.0000  <S**2>=0.000
     312 -> 313        0.70711

 The electronic state is 1-A.
 Alpha  occ. eigenvalues --  -46.87783 -46.87660 -19.26350 -19.26271 -19.19162
 Alpha  occ. eigenvalues --  -19.19006 -19.18801 -19.18714 -19.18156 -19.18051
 Alpha  occ. eigenvalues --  -14.42498 -14.42436 -14.41436 -14.41358 -14.39389
 Alpha  occ. eigenvalues --  -14.39352 -14.38600 -14.38573 -10.39091 -10.39066
 Alpha  occ. eigenvalues --  -10.35434 -10.35392 -10.34376 -10.34228 -10.31757
 Alpha  occ. eigenvalues --  -10.31665 -10.31391 -10.31309 -10.31024 -10.30895
 Alpha  occ. eigenvalues --  -10.30556 -10.30494 -10.30397 -10.30360 -10.30193
 Alpha  occ. eigenvalues --  -10.30139 -10.29907 -10.29893 -10.29617 -10.29436
 Alpha  occ. eigenvalues --  -10.29400 -10.29240 -10.28735 -10.28720 -10.28657
 Alpha  occ. eigenvalues --  -10.28525 -10.28405 -10.28351 -10.28142 -10.28103
 Alpha  occ. eigenvalues --  -10.28001 -10.27779 -10.27713 -10.27669 -10.27570
 Alpha  occ. eigenvalues --  -10.27513 -10.27487 -10.27483 -10.27469 -10.27468
 Alpha  occ. eigenvalues --  -10.27465 -10.27436 -10.27390 -10.27372 -10.27144
 Alpha  occ. eigenvalues --  -10.27051 -10.26694 -10.26691 -10.26417 -10.26396
 Alpha  occ. eigenvalues --  -10.26221 -10.26169 -10.26132 -10.26027 -10.26005
 Alpha  occ. eigenvalues --  -10.25933 -10.25847 -10.25830 -10.25422 -10.25392
 Alpha  occ. eigenvalues --  -10.24872 -10.24819 -10.24774 -10.24726 -10.24689
 Alpha  occ. eigenvalues --  -10.24672  -3.16525  -3.16410  -1.91407  -1.91292
 Alpha  occ. eigenvalues --   -1.90994  -1.90881  -1.90836  -1.90718  -1.16644
 Alpha  occ. eigenvalues --   -1.16619  -1.08658  -1.08613  -1.07202  -1.06967
 Alpha  occ. eigenvalues --   -1.06946  -1.06629  -1.04567  -1.04495  -1.03747
 Alpha  occ. eigenvalues --   -1.03663  -1.03220  -1.03038  -1.02397  -1.02111
 Alpha  occ. eigenvalues --   -0.91987  -0.91958  -0.89506  -0.89492  -0.89174
 Alpha  occ. eigenvalues --   -0.89152  -0.88273  -0.88217  -0.87856  -0.87792
 Alpha  occ. eigenvalues --   -0.87684  -0.87659  -0.87260  -0.87121  -0.85000
 Alpha  occ. eigenvalues --   -0.84968  -0.83922  -0.83873  -0.82953  -0.82931
 Alpha  occ. eigenvalues --   -0.82653  -0.82635  -0.81596  -0.81572  -0.80582
 Alpha  occ. eigenvalues --   -0.80443  -0.78783  -0.78635  -0.77205  -0.77144
 Alpha  occ. eigenvalues --   -0.76921  -0.76898  -0.75910  -0.75839  -0.74884
 Alpha  occ. eigenvalues --   -0.74800  -0.72760  -0.72698  -0.71658  -0.71580
 Alpha  occ. eigenvalues --   -0.69893  -0.69754  -0.68859  -0.68828  -0.67627
 Alpha  occ. eigenvalues --   -0.67601  -0.67206  -0.67201  -0.65273  -0.65272
 Alpha  occ. eigenvalues --   -0.64840  -0.64770  -0.64654  -0.64607  -0.64255
 Alpha  occ. eigenvalues --   -0.64201  -0.62284  -0.62278  -0.60428  -0.60339
 Alpha  occ. eigenvalues --   -0.59797  -0.59791  -0.58992  -0.58974  -0.58490
 Alpha  occ. eigenvalues --   -0.58425  -0.57571  -0.57554  -0.57295  -0.57235
 Alpha  occ. eigenvalues --   -0.56296  -0.56204  -0.55965  -0.55887  -0.55506
 Alpha  occ. eigenvalues --   -0.55452  -0.55326  -0.55246  -0.54510  -0.54486
 Alpha  occ. eigenvalues --   -0.53914  -0.53881  -0.53285  -0.53227  -0.53208
 Alpha  occ. eigenvalues --   -0.53142  -0.52902  -0.52901  -0.52742  -0.52669
 Alpha  occ. eigenvalues --   -0.52424  -0.52397  -0.51901  -0.51883  -0.51660
 Alpha  occ. eigenvalues --   -0.51603  -0.51200  -0.51182  -0.50558  -0.50476
 Alpha  occ. eigenvalues --   -0.50017  -0.49980  -0.49905  -0.49865  -0.49501
 Alpha  occ. eigenvalues --   -0.49488  -0.49203  -0.49201  -0.49105  -0.49082
 Alpha  occ. eigenvalues --   -0.48579  -0.48559  -0.48447  -0.48431  -0.48373
 Alpha  occ. eigenvalues --   -0.48339  -0.47681  -0.47594  -0.47283  -0.47118
 Alpha  occ. eigenvalues --   -0.46783  -0.46708  -0.46555  -0.46542  -0.46345
 Alpha  occ. eigenvalues --   -0.46270  -0.46149  -0.46084  -0.45822  -0.45808
 Alpha  occ. eigenvalues --   -0.45206  -0.45187  -0.44564  -0.44514  -0.44493
 Alpha  occ. eigenvalues --   -0.44476  -0.44131  -0.44127  -0.44077  -0.44075
 Alpha  occ. eigenvalues --   -0.44005  -0.43939  -0.43553  -0.43481  -0.43385
 Alpha  occ. eigenvalues --   -0.43372  -0.43013  -0.42930  -0.42901  -0.42685
 Alpha  occ. eigenvalues --   -0.42641  -0.42551  -0.41996  -0.41963  -0.41690
 Alpha  occ. eigenvalues --   -0.41669  -0.41520  -0.41459  -0.41127  -0.40989
 Alpha  occ. eigenvalues --   -0.40855  -0.40809  -0.40723  -0.40698  -0.40557
 Alpha  occ. eigenvalues --   -0.40491  -0.40228  -0.40220  -0.39427  -0.39422
 Alpha  occ. eigenvalues --   -0.38455  -0.38348  -0.37734  -0.37655  -0.37306
 Alpha  occ. eigenvalues --   -0.37264  -0.37250  -0.37200  -0.36771  -0.36699
 Alpha  occ. eigenvalues --   -0.36216  -0.36179  -0.34272  -0.34253  -0.33862
 Alpha  occ. eigenvalues --   -0.33756  -0.33175  -0.33172  -0.31331  -0.31273
 Alpha  occ. eigenvalues --   -0.31022  -0.30972  -0.30015  -0.29955  -0.29435
 Alpha  occ. eigenvalues --   -0.29327  -0.29308  -0.29211  -0.24067  -0.24036
 Alpha  occ. eigenvalues --   -0.21116  -0.21114
 Alpha virt. eigenvalues --   -0.08792  -0.08760  -0.01736  -0.01683  -0.00044
 Alpha virt. eigenvalues --   -0.00029   0.02208   0.02214   0.03137   0.03229
 Alpha virt. eigenvalues --    0.04729   0.04732   0.05112   0.05165   0.06181

 Mulliken charges:
               1
     1  Mg   0.838764
     2  C   -0.002957
     3  C   -0.094107
     4  C   -0.045863
     5  C   -0.063949
     6  N   -0.256771
     7  C   -0.052486
     8  C   -0.014027
     9  C   -0.086997
    10  C    0.046317
    11  C    0.104816
    12  C    0.053480
    13  C   -0.071813
    14  H    0.036136
    15  N   -0.433142
    16  C    0.168407
    17  C   -0.177148
    18  C   -0.004010
    19  C    0.148716
    20  C    0.110179
    21  C    0.012298
    22  O   -0.249620
    23  C    0.062471
    24  N   -0.341123
    25  C    0.041220
    26  C   -0.028174
    27  C   -0.023977
    28  C    0.074833
    29  C    0.076175
    30  C    0.035136
    31  C   -0.004509
    32  N   -0.310477
    33  C    0.080412
    34  C   -0.169714
    35  C    0.008347
    36  C    0.082993
    37  C    0.127311
    38  C    0.046115
    39  O   -0.188442
    40  C   -0.005329
    41  C    0.212869
    42  O   -0.257096
    43  O   -0.304801
    44  C    0.157699
    45  H   -0.017610
    46  H   -0.016834
    47  H   -0.041494
    48  H    0.000934
    49  H   -0.004033
    50  H    0.025470
    51  H    0.016442
    52  H    0.016649
    53  H    0.011212
    54  H    0.044131
    55  H    0.017863
    56  H    0.017950
    57  H    0.005868
    58  H    0.026817
    59  H    0.039565
    60  H    0.037336
    61  H    0.035661
    62  H    0.031515
    63  H    0.016564
    64  H    0.009455
    65  H    0.023215
    66  H    0.012539
    67  H    0.004746
    68  H    0.006365
    69  H    0.004727
    70  H    0.008788
    71  H    0.018148
    72  H    0.028986
    73  H    0.047573
    74  H    0.009112
    75  H    0.046000
    76  H    0.035143
    77  H    0.042943
    78  H    0.046396
    79  H    0.053693
    80  Mg   0.837848
    81  C   -0.016806
    82  C   -0.087816
    83  C   -0.045511
    84  C   -0.064861
    85  N   -0.254568
    86  C   -0.049871
    87  C   -0.015091
    88  C   -0.090504
    89  C    0.045773
    90  C    0.114371
    91  C    0.062514
    92  C   -0.077894
    93  H    0.034904
    94  N   -0.423483
    95  C    0.162923
    96  C   -0.174640
    97  C   -0.007809
    98  C    0.152115
    99  C    0.099365
   100  C    0.015567
   101  O   -0.253162
   102  C    0.061196
   103  N   -0.350078
   104  C    0.037539
   105  C   -0.019858
   106  C   -0.034834
   107  C    0.088939
   108  C    0.073632
   109  C    0.034722
   110  C   -0.007684
   111  N   -0.324114
   112  C    0.078478
   113  C   -0.163102
   114  C    0.002245
   115  C    0.096172
   116  C    0.131489
   117  C    0.042401
   118  O   -0.187849
   119  C    0.000909
   120  C    0.211243
   121  O   -0.251008
   122  O   -0.305630
   123  C    0.152023
   124  H   -0.019681
   125  H   -0.015549
   126  H   -0.040382
   127  H   -0.000649
   128  H   -0.004335
   129  H    0.022466
   130  H    0.014435
   131  H    0.016263
   132  H    0.013919
   133  H    0.037687
   134  H    0.020783
   135  H    0.019585
   136  H    0.008746
   137  H    0.026127
   138  H    0.039789
   139  H    0.038237
   140  H    0.036399
   141  H    0.033895
   142  H    0.014414
   143  H    0.012503
   144  H    0.025183
   145  H    0.011617
   146  H    0.005763
   147  H    0.006331
   148  H    0.003703
   149  H    0.010933
   150  H    0.017959
   151  H    0.030060
   152  H    0.046024
   153  H    0.008570
   154  H    0.046990
   155  H    0.035030
   156  H    0.043919
   157  H    0.049486
   158  H    0.053586
 Sum of Mulliken charges =  -0.00000

 Dipole moment (field-independent basis, Debye):
    X=              2.0383    Y=              4.2345    Z=             -7.4230  Tot=              8.7855
 Quadrupole moment (field-independent basis, Debye-Ang):
   XX=           -436.5745   YY=           -563.4351   ZZ=           -451.2491
   XY=             -6.3713   XZ=             36.1209   YZ=              7.1321

 Normal termination of Gaussian 16 at Sun Sep 12 20:51:51 2021.
