 Gaussian 16, Revision A.03,
 Gaussian 16:  ES64L-G16RevA.03 25-Dec-2016

 -----------------------------------
 #p cam-b3lyp/Def2SVP td=(nstates=5)
 -----------------------------------

 --------------------------------
 TDDFT excited states in gaussian
 --------------------------------
 Symbolic Z-matrix:
 Charge =  0 Multiplicity = 1

                         Standard orientation:
 ---------------------------------------------------------------------
 Center     Atomic      Atomic             Coordinates (Angstroms)
 Number     Number       Type             X           Y           Z
 ---------------------------------------------------------------------
      1         12           0       -6.539723   -0.714689    0.122713
      2          6           0       -6.704984    2.854288    0.340211
      3          6           0       -7.434389   -0.407594   -3.155752
      4          6           0       -6.843393   -3.869750    0.022748
      5          6           0       -6.777833   -0.790084    3.598814
      6          7           0       -6.983834    1.052953   -1.133811
      7          6           0       -6.953036    2.368544   -0.945544
      8          6           0       -7.134580    3.185164   -2.259906
      9          6           0       -7.904438    2.093455   -3.130245
     10          6           0       -7.383905    0.835444   -2.457654
     11          6           0       -9.420399    2.144834   -2.969859
     12          6           0       -5.765240    3.575486   -2.911279
     13          6           0       -5.843645    4.641574   -4.007939
     14          1           0       -4.759083    5.604259   -4.127560
     15          7           0       -6.582535   -1.949468   -1.418825
     16          6           0       -6.957596   -1.650443   -2.685790
     17          6           0       -6.815828   -2.902838   -3.459152
     18          6           0       -6.509757   -3.998796   -2.498272
     19          6           0       -6.660810   -3.312495   -1.240674
     20          6           0       -6.921173   -2.964390   -4.952090
     21          6           0       -6.150097   -5.439068   -2.683725
     22          8           0       -6.152367   -6.271125   -1.713029
     23          6           0       -5.877350   -5.875453   -4.065108
     24          7           0       -6.997310   -2.143925    1.573758
     25          6           0       -7.007013   -3.448427    1.278519
     26          6           0       -7.078471   -4.288509    2.519122
     27          6           0       -6.869949   -3.286066    3.744430
     28          6           0       -6.792097   -1.957791    2.952032
     29          6           0       -8.380540   -5.076089    2.719983
     30          6           0       -5.730024   -3.619252    4.739406
     31          6           0       -4.390304   -3.467869    4.054330
     32          7           0       -6.533930    0.749014    1.725393
     33          6           0       -6.667672    0.496492    3.098354
     34          6           0       -6.714120    1.805301    3.775797
     35          6           0       -6.620231    2.734531    2.741601
     36          6           0       -6.547824    2.049919    1.494863
     37          6           0       -6.887768    2.015145    5.172309
     38          6           0       -6.589041    4.146877    2.397853
     39          8           0       -6.524747    5.194920    3.042030
     40          6           0       -6.765402    4.282808    0.821069
     41          6           0       -5.712129    5.236370    0.326451
     42          8           0       -4.502285    4.934110    0.374236
     43          8           0       -6.300450    6.243312   -0.337241
     44          6           0       -5.309015    7.210131   -0.879894
     45          1           0       -7.936241   -0.448926   -4.124451
     46          1           0       -6.842115   -4.961537    0.043671
     47          1           0       -6.766085   -0.736042    4.688949
     48          1           0       -7.748405    4.080265   -2.157737
     49          1           0       -7.599360    2.117872   -4.176215
     50          1           0       -9.714502    2.839922   -2.183553
     51          1           0       -9.720370    1.129010   -2.711767
     52          1           0       -9.903312    2.367150   -3.921777
     53          1           0       -5.392840    2.734571   -3.496293
     54          1           0       -5.052434    3.893495   -2.149633
     55          1           0       -6.807581    5.151159   -4.000238
     56          1           0       -5.810205    4.139811   -4.975056
     57          1           0       -7.315535   -2.036453   -5.364348
     58          1           0       -7.680159   -3.710280   -5.187243
     59          1           0       -5.976028   -3.241772   -5.419092
     60          1           0       -6.756174   -5.687128   -4.682159
     61          1           0       -5.550362   -6.912208   -3.993920
     62          1           0       -5.075958   -5.261759   -4.477537
     63          1           0       -6.286873   -5.036613    2.530946
     64          1           0       -7.758803   -3.216708    4.371966
     65          1           0       -8.230311   -6.150730    2.826210
     66          1           0       -9.041091   -4.854488    1.882215
     67          1           0       -8.985997   -4.750329    3.565394
     68          1           0       -5.805976   -4.654518    5.070163
     69          1           0       -5.734743   -2.986344    5.626906
     70          1           0       -4.266527   -4.424321    3.547664
     71          1           0       -3.601779   -3.311482    4.791203
     72          1           0       -4.420773   -2.694145    3.286925
     73          1           0       -6.179498    2.794197    5.454090
     74          1           0       -6.713048    1.098507    5.735204
     75          1           0       -7.930669    2.330407    5.200991
     76          1           0       -7.772814    4.660824    0.649759
     77          1           0       -5.576721    8.194320   -0.495266
     78          1           0       -5.303354    7.073956   -1.961480
     79          1           0       -4.288511    7.114234   -0.507452
     80         12           0        6.695937   -0.844485    0.024778
     81          6           0        6.527121    2.733739    0.241289
     82          6           0        5.799349   -0.539265   -3.252045
     83          6           0        6.396406   -4.001351   -0.084329
     84          6           0        6.451650   -0.927528    3.500282
     85          7           0        6.249199    0.922340   -1.228622
     86          6           0        6.277430    2.235023   -1.054231
     87          6           0        6.103210    3.060830   -2.357017
     88          6           0        5.326391    1.963486   -3.235232
     89          6           0        5.846002    0.696570   -2.558767
     90          6           0        3.817402    2.012674   -3.062399
     91          6           0        7.477589    3.448763   -3.007096
     92          6           0        7.392557    4.511457   -4.104915
     93          1           0        8.483039    5.475017   -4.226860
     94          7           0        6.656778   -2.077839   -1.529530
     95          6           0        6.288247   -1.782342   -2.793708
     96          6           0        6.415147   -3.035835   -3.553191
     97          6           0        6.730518   -4.132926   -2.598389
     98          6           0        6.583052   -3.435033   -1.336926
     99          6           0        6.318553   -3.093615   -5.050106
    100          6           0        7.091034   -5.575149   -2.788705
    101          8           0        7.090333   -6.404057   -1.811084
    102          6           0        7.354045   -6.008566   -4.168729
    103          7           0        6.246240   -2.268933    1.470828
    104          6           0        6.231307   -3.579219    1.169410
    105          6           0        6.157018   -4.425356    2.417979
    106          6           0        6.369951   -3.412179    3.636878
    107          6           0        6.444771   -2.084148    2.851940
    108          6           0        4.854267   -5.198675    2.620973
    109          6           0        7.510597   -3.744698    4.637393
    110          6           0        8.852456   -3.604946    3.955285
    111          7           0        6.706029    0.612688    1.619959
    112          6           0        6.565355    0.364414    3.002946
    113          6           0        6.518938    1.677402    3.678472
    114          6           0        6.613433    2.606163    2.631112
    115          6           0        6.691468    1.920660    1.388738
    116          6           0        6.355491    1.888246    5.076667
    117          6           0        6.654211    4.010734    2.293154
    118          8           0        6.711081    5.057773    2.936746
    119          6           0        6.472775    4.157680    0.720933
    120          6           0        7.525916    5.106895    0.218538
    121          8           0        8.730611    4.804302    0.279818
    122          8           0        6.930501    6.114169   -0.445730
    123          6           0        7.934800    7.076174   -0.972751
    124          1           0        5.303810   -0.571207   -4.222770
    125          1           0        6.397632   -5.093439   -0.055697
    126          1           0        6.475277   -0.869613    4.590586
    127          1           0        5.495358    3.951528   -2.252387
    128          1           0        5.639682    1.996201   -4.275491
    129          1           0        3.523192    2.701879   -2.284853
    130          1           0        3.517458    1.004581   -2.807783
    131          1           0        3.335662    2.238137   -4.018132
    132          1           0        7.847571    2.599548   -3.595900
    133          1           0        8.179549    3.758842   -2.257609
    134          1           0        6.423612    5.025352   -4.106977
    135          1           0        7.432841    4.011500   -5.075708
    136          1           0        5.916948   -2.160270   -5.463605
    137          1           0        5.560784   -3.846439   -5.292810
    138          1           0        7.261714   -3.376474   -5.522447
    139          1           0        6.476834   -5.814883   -4.781467
    140          1           0        7.682002   -7.046999   -4.091415
    141          1           0        8.165603   -5.397147   -4.578796
    142          1           0        6.949184   -5.163846    2.432372
    143          1           0        5.476689   -3.349771    4.275645
    144          1           0        5.006095   -6.289512    2.726313
    145          1           0        4.197139   -4.984851    1.788507
    146          1           0        4.257049   -4.881438    3.474139
    147          1           0        7.435785   -4.784506    4.965047
    148          1           0        7.498556   -3.124845    5.527690
    149          1           0        8.970805   -4.565215    3.444437
    150          1           0        9.640665   -3.448382    4.688942
    151          1           0        8.823755   -2.823968    3.186584
    152          1           0        7.056444    2.662561    5.358801
    153          1           0        6.525557    0.972700    5.639362
    154          1           0        5.307817    2.199369    5.105834
    155          1           0        5.464439    4.532524    0.541140
    156          1           0        7.663540    8.064105   -0.587919
    157          1           0        7.927475    6.943988   -2.071033
    158          1           0        8.953807    6.982683   -0.615911
 ---------------------------------------------------------------------

 SCF Done:  E(RCAM-B3LYP) =  -4069.81159096     A.U. after   19 cycles

 Excitation energies and oscillator strengths:

 Excited State   1:      Singlet-A      1.6654 eV  744.47 nm  f=0.0065  <S**2>=0.000
     309 -> 315       -0.11029
     310 -> 316        0.13112
     311 -> 313       -0.44035
     312 -> 314        0.52683
 This state for optimization and/or second-order correction.
 Total Energy, E(TD-HF/TD-DFT) =  -4069.75038839
 Copying the excited state density for this state as the 1-particle RhoCI density.

 Excited State   2:      Singlet-A      1.6893 eV  733.94 nm  f=0.7371  <S**2>=0.000
     309 -> 315        0.13663
     310 -> 316        0.11349
     311 -> 313        0.52562
     312 -> 314        0.43943

 Excited State   3:      Singlet-A      2.1846 eV  567.54 nm  f=0.0398  <S**2>=0.000
     309 -> 313       -0.20175
     310 -> 314        0.61065
     312 -> 316       -0.25828

 Excited State   4:      Singlet-A      2.1934 eV  565.27 nm  f=0.1490  <S**2>=0.000
     309 -> 313        0.60820
     310 -> 314        0.19997
     311 -> 315       -0.26508

 Excited State   5:      Singlet-A      2.6493 eV  467.98 nm  f=0.0000  <S**2>=0.000
     312 -> 313        0.70710

 The electronic state is 1-A.
 Alpha  occ. eigenvalues --  -46.87852 -46.87549 -19.26326 -19.26232 -19.19063
 Alpha  occ. eigenvalues --  -19.19045 -19.18868 -19.18627 -19.18207 -19.17919
 Alpha  occ. eigenvalues --  -14.42508 -14.42386 -14.41503 -14.41249 -14.39458
 Alpha  occ. eigenvalues --  -14.39244 -14.38639 -14.38484 -10.39123 -10.38972
 Alpha  occ. eigenvalues --  -10.35503 -10.35306 -10.34428 -10.34095 -10.31719
 Alpha  occ. eigenvalues --  -10.31651 -10.31460 -10.31192 -10.30970 -10.30916
 Alpha  occ. eigenvalues --  -10.30622 -10.30557 -10.30284 -10.30261 -10.30245
 Alpha  occ. eigenvalues --  -10.30040 -10.29968 -10.29780 -10.29682 -10.29332
 Alpha  occ. eigenvalues --  -10.29309 -10.29292 -10.28820 -10.28641 -10.28609
 Alpha  occ. eigenvalues --  -10.28580 -10.28419 -10.28292 -10.28183 -10.28027
 Alpha  occ. eigenvalues --  -10.27887 -10.27843 -10.27785 -10.27638 -10.27563
 Alpha  occ. eigenvalues --  -10.27555 -10.27547 -10.27493 -10.27457 -10.27421
 Alpha  occ. eigenvalues --  -10.27400 -10.27370 -10.27362 -10.27275 -10.27203
 Alpha  occ. eigenvalues --  -10.26914 -10.26797 -10.26602 -10.26474 -10.26352
 Alpha  occ. eigenvalues --  -10.26293 -10.26230 -10.26071 -10.26053 -10.25886
 Alpha  occ. eigenvalues --  -10.25873 -10.25826 -10.25714 -10.25474 -10.25295
 Alpha  occ. eigenvalues --  -10.24881 -10.24839 -10.24754 -10.24738 -10.24651
 Alpha  occ. eigenvalues --  -10.24580  -3.16595  -3.16299  -1.91476  -1.91181
 Alpha  occ. eigenvalues --   -1.91063  -1.90905  -1.90770  -1.90607  -1.16675
 Alpha  occ. eigenvalues --   -1.16526  -1.08663  -1.08524  -1.07269  -1.06880
 Alpha  occ. eigenvalues --   -1.06829  -1.06685  -1.04638  -1.04383  -1.03814
 Alpha  occ. eigenvalues --   -1.03553  -1.03286  -1.02928  -1.02464  -1.01999
 Alpha  occ. eigenvalues --   -0.92023  -0.91868  -0.89569  -0.89390  -0.89256
 Alpha  occ. eigenvalues --   -0.89041  -0.88335  -0.88119  -0.87915  -0.87732
 Alpha  occ. eigenvalues --   -0.87672  -0.87577  -0.87333  -0.87030  -0.85048
 Alpha  occ. eigenvalues --   -0.84895  -0.83983  -0.83776  -0.83025  -0.82848
 Alpha  occ. eigenvalues --   -0.82709  -0.82551  -0.81634  -0.81484  -0.80649
 Alpha  occ. eigenvalues --   -0.80335  -0.78853  -0.78534  -0.77275  -0.77041
 Alpha  occ. eigenvalues --   -0.76993  -0.76792  -0.75978  -0.75726  -0.74945
 Alpha  occ. eigenvalues --   -0.74698  -0.72825  -0.72587  -0.71724  -0.71469
 Alpha  occ. eigenvalues --   -0.69956  -0.69663  -0.68936  -0.68723  -0.67694
 Alpha  occ. eigenvalues --   -0.67495  -0.67292  -0.67107  -0.65350  -0.65163
 Alpha  occ. eigenvalues --   -0.64905  -0.64675  -0.64661  -0.64546  -0.64319
 Alpha  occ. eigenvalues --   -0.64101  -0.62344  -0.62166  -0.60497  -0.60243
 Alpha  occ. eigenvalues --   -0.59866  -0.59685  -0.59039  -0.58882  -0.58554
 Alpha  occ. eigenvalues --   -0.58315  -0.57630  -0.57430  -0.57358  -0.57131
 Alpha  occ. eigenvalues --   -0.56361  -0.56096  -0.56029  -0.55779  -0.55574
 Alpha  occ. eigenvalues --   -0.55385  -0.55351  -0.55140  -0.54569  -0.54382
 Alpha  occ. eigenvalues --   -0.53963  -0.53805  -0.53352  -0.53282  -0.53125
 Alpha  occ. eigenvalues --   -0.53038  -0.52966  -0.52819  -0.52797  -0.52581
 Alpha  occ. eigenvalues --   -0.52486  -0.52309  -0.51953  -0.51755  -0.51682
 Alpha  occ. eigenvalues --   -0.51559  -0.51245  -0.51089  -0.50637  -0.50396
 Alpha  occ. eigenvalues --   -0.50083  -0.49977  -0.49879  -0.49769  -0.49574
 Alpha  occ. eigenvalues --   -0.49389  -0.49266  -0.49155  -0.49092  -0.48987
 Alpha  occ. eigenvalues --   -0.48642  -0.48511  -0.48494  -0.48446  -0.48271
 Alpha  occ. eigenvalues --   -0.48242  -0.47752  -0.47494  -0.47351  -0.47021
 Alpha  occ. eigenvalues --   -0.46851  -0.46622  -0.46604  -0.46452  -0.46410
 Alpha  occ. eigenvalues --   -0.46209  -0.46166  -0.45973  -0.45866  -0.45704
 Alpha  occ. eigenvalues --   -0.45249  -0.45104  -0.44625  -0.44568  -0.44403
 Alpha  occ. eigenvalues --   -0.44372  -0.44197  -0.44151  -0.44070  -0.44016
 Alpha  occ. eigenvalues --   -0.43980  -0.43837  -0.43541  -0.43444  -0.43444
 Alpha  occ. eigenvalues --   -0.43277  -0.43078  -0.42820  -0.42785  -0.42745
 Alpha  occ. eigenvalues --   -0.42701  -0.42456  -0.42063  -0.41865  -0.41754
 Alpha  occ. eigenvalues --   -0.41600  -0.41552  -0.41358  -0.41195  -0.40933
 Alpha  occ. eigenvalues --   -0.40884  -0.40878  -0.40632  -0.40622  -0.40601
 Alpha  occ. eigenvalues --   -0.40390  -0.40316  -0.40135  -0.39491  -0.39333
 Alpha  occ. eigenvalues --   -0.38522  -0.38249  -0.37824  -0.37558  -0.37372
 Alpha  occ. eigenvalues --   -0.37328  -0.37162  -0.37093  -0.36758  -0.36659
 Alpha  occ. eigenvalues --   -0.36242  -0.36110  -0.34339  -0.34141  -0.33815
 Alpha  occ. eigenvalues --   -0.33747  -0.33238  -0.33065  -0.31398  -0.31185
 Alpha  occ. eigenvalues --   -0.31089  -0.30862  -0.30066  -0.29822  -0.29503
 Alpha  occ. eigenvalues --   -0.29370  -0.29222  -0.29092  -0.24134  -0.23923
 Alpha  occ. eigenvalues --   -0.21181  -0.21007
 Alpha virt. eigenvalues --   -0.08827  -0.08681  -0.01804  -0.01576  -0.00113
 Alpha virt. eigenvalues --    0.00073   0.02156   0.02329   0.03056   0.03326
 Alpha virt. eigenvalues --    0.04654   0.04838   0.05054   0.05284   0.06098

 Mulliken charges:
               1
     1  Mg   0.838556
     2  C   -0.003055
     3  C   -0.094455
     4  C   -0.045781
     5  C   -0.063888
     6  N   -0.256744
     7  C   -0.052555
     8  C   -0.013951
     9  C   -0.086946
    10  C    0.046183
    11  C    0.104806
    12  C    0.053607
    13  C   -0.071570
    14  H    0.035571
    15  N   -0.433131
    16  C    0.168283
    17  C   -0.177397
    18  C   -0.004038
    19  C    0.148642
    20  C    0.110235
    21  C    0.012273
    22  O   -0.249407
    23  C    0.062547
    24  N   -0.341142
    25  C    0.041191
    26  C   -0.028197
    27  C   -0.024023
    28  C    0.074883
    29  C    0.076119
    30  C    0.035098
    31  C   -0.004495
    32  N   -0.310532
    33  C    0.080475
    34  C   -0.169486
    35  C    0.008535
    36  C    0.083003
    37  C    0.127246
    38  C    0.046328
    39  O   -0.187894
    40  C   -0.005397
    41  C    0.213002
    42  O   -0.257143
    43  O   -0.304795
    44  C    0.157568
    45  H   -0.017706
    46  H   -0.016723
    47  H   -0.041304
    48  H    0.001111
    49  H   -0.004356
    50  H    0.025609
    51  H    0.016555
    52  H    0.016624
    53  H    0.010643
    54  H    0.044050
    55  H    0.018223
    56  H    0.017581
    57  H    0.005691
    58  H    0.026927
    59  H    0.038957
    60  H    0.037336
    61  H    0.035830
    62  H    0.031017
    63  H    0.016619
    64  H    0.009601
    65  H    0.023322
    66  H    0.012563
    67  H    0.004846
    68  H    0.006459
    69  H    0.004829
    70  H    0.008855
    71  H    0.017952
    72  H    0.028951
    73  H    0.047987
    74  H    0.009177
    75  H    0.046147
    76  H    0.035247
    77  H    0.043328
    78  H    0.046024
    79  H    0.053900
    80  Mg   0.838066
    81  C   -0.016668
    82  C   -0.087860
    83  C   -0.045530
    84  C   -0.064715
    85  N   -0.254546
    86  C   -0.049411
    87  C   -0.015146
    88  C   -0.090644
    89  C    0.045909
    90  C    0.114371
    91  C    0.062588
    92  C   -0.077653
    93  H    0.034548
    94  N   -0.423448
    95  C    0.162859
    96  C   -0.174938
    97  C   -0.007978
    98  C    0.152035
    99  C    0.099548
   100  C    0.015408
   101  O   -0.253323
   102  C    0.061291
   103  N   -0.350011
   104  C    0.037523
   105  C   -0.019812
   106  C   -0.034842
   107  C    0.089074
   108  C    0.073672
   109  C    0.034745
   110  C   -0.007620
   111  N   -0.324245
   112  C    0.078700
   113  C   -0.162791
   114  C    0.002712
   115  C    0.096204
   116  C    0.131333
   117  C    0.042912
   118  O   -0.187344
   119  C    0.000705
   120  C    0.211132
   121  O   -0.251333
   122  O   -0.305327
   123  C    0.152145
   124  H   -0.020246
   125  H   -0.015741
   126  H   -0.040440
   127  H   -0.000181
   128  H   -0.004959
   129  H    0.024063
   130  H    0.014532
   131  H    0.015420
   132  H    0.013683
   133  H    0.037648
   134  H    0.020836
   135  H    0.019189
   136  H    0.008340
   137  H    0.025571
   138  H    0.039424
   139  H    0.037946
   140  H    0.036144
   141  H    0.033729
   142  H    0.014162
   143  H    0.012503
   144  H    0.024899
   145  H    0.011977
   146  H    0.005604
   147  H    0.006056
   148  H    0.003621
   149  H    0.010814
   150  H    0.017754
   151  H    0.030176
   152  H    0.045904
   153  H    0.008212
   154  H    0.048151
   155  H    0.036366
   156  H    0.044001
   157  H    0.049187
   158  H    0.053360
 Sum of Mulliken charges =  -0.00000

 Dipole moment (field-independent basis, Debye):
    X=             -4.1480    Y=             -2.2620    Z=             -7.5302  Tot=              8.8897
 Quadrupole moment (field-independent basis, Debye-Ang):
   XX=           -517.8310   YY=           -551.6540   ZZ=           -447.5156
   XY=             -5.1489   XZ=              0.4757   YZ=            -48.5342

 Normal termination of Gaussian 16 at Sat Sep 11 15:18:53 2021.
