 Gaussian 16, Revision A.03,
 Gaussian 16:  ES64L-G16RevA.03 25-Dec-2016

 -----------------------------------
 #p cam-b3lyp/Def2SVP td=(nstates=5)
 -----------------------------------

 --------------------------------
 TDDFT excited states in gaussian
 --------------------------------
 Symbolic Z-matrix:
 Charge =  0 Multiplicity = 1

                         Standard orientation:
 ---------------------------------------------------------------------
 Center     Atomic      Atomic             Coordinates (Angstroms)
 Number     Number       Type             X           Y           Z
 ---------------------------------------------------------------------
      1         12           0       -4.577649    0.011680    0.398078
      2          6           0       -4.104870    3.480464    1.143888
      3          6           0       -5.600160    0.972795   -2.712195
      4          6           0       -5.432114   -2.995965   -0.131620
      5          6           0       -4.616248   -0.570080    3.834024
      6          7           0       -4.781400    2.003543   -0.546176
      7          6           0       -4.510495    3.250223   -0.172585
      8          6           0       -4.625436    4.282093   -1.334225
      9          6           0       -5.624629    3.481398   -2.284224
     10          6           0       -5.291964    2.065348   -1.848264
     11          6           0       -7.096024    3.753501   -1.988494
     12          6           0       -3.250609    4.541396   -2.037321
     13          6           0       -3.207627    5.765144   -2.957074
     14          1           0       -1.981015    6.544665   -3.028613
     15          7           0       -4.927473   -0.941314   -1.296700
     16          6           0       -5.319998   -0.389456   -2.470013
     17          6           0       -5.445385   -1.510638   -3.425999
     18          6           0       -5.277958   -2.779246   -2.663966
     19          6           0       -5.231325   -2.284129   -1.311907
     20          6           0       -5.649234   -1.318398   -4.897474
     21          6           0       -5.186664   -4.211503   -3.086384
     22          8           0       -5.275698   -5.174324   -2.249950
     23          6           0       -5.077550   -4.463579   -4.534692
     24          7           0       -5.189476   -1.534106    1.660555
     25          6           0       -5.444133   -2.756589    1.181316
     26          6           0       -5.586374   -3.758425    2.288579
     27          6           0       -5.133156   -3.008974    3.623745
     28          6           0       -4.872635   -1.603249    3.028483
     29          6           0       -6.991365   -4.344704    2.484253
     30          6           0       -4.011153   -3.676067    4.458319
     31          6           0       -2.709113   -3.639345    3.689917
     32          7           0       -4.220634    1.184054    2.189482
     33          6           0       -4.313724    0.743807    3.517710
     34          6           0       -4.090571    1.919482    4.379138
     35          6           0       -3.898359    2.971996    3.486325
     36          6           0       -4.021344    2.489644    2.151970
     37          6           0       -4.140868    1.932367    5.801016
     38          6           0       -3.642124    4.396593    3.349492
     39          8           0       -3.357582    5.305463    4.130828
     40          6           0       -3.886376    4.805958    1.830088
     41          6           0       -2.714608    5.640724    1.390277
     42          8           0       -1.575326    5.141443    1.289673
     43          8           0       -3.157133    6.821900    0.932524
     44          6           0       -2.046714    7.687227    0.452596
     45          1           0       -6.158738    1.166893   -3.629940
     46          1           0       -5.619926   -4.062830   -0.269331
     47          1           0       -4.529870   -0.690959    4.915403
     48          1           0       -5.066571    5.237945   -1.051080
     49          1           0       -5.383284    3.620056   -3.337907
     50          1           0       -7.216736    4.354700   -1.087433
     51          1           0       -7.552450    2.772434   -1.855545
     52          1           0       -7.589022    4.198651   -2.853116
     53          1           0       -3.066285    3.753708   -2.767824
     54          1           0       -2.448885    4.614951   -1.301689
     55          1           0       -4.065746    6.417503   -2.792851
     56          1           0       -3.320258    5.423223   -3.985959
     57          1           0       -5.899811   -0.285392   -5.135493
     58          1           0       -6.539346   -1.884036   -5.172182
     59          1           0       -4.796665   -1.669236   -5.479171
     60          1           0       -5.945504   -4.039658   -5.040158
     61          1           0       -4.932626   -5.537892   -4.642852
     62          1           0       -4.207659   -3.931678   -4.921113
     63          1           0       -4.938048   -4.618052    2.123834
     64          1           0       -5.957030   -2.895197    4.328699
     65          1           0       -7.024673   -5.432596    2.420320
     66          1           0       -7.652231   -3.889239    1.747301
     67          1           0       -7.478930   -4.061728    3.416788
     68          1           0       -4.246428   -4.724055    4.640837
     69          1           0       -3.852208   -3.198568    5.425264
     70          1           0       -2.784592   -4.511335    3.041250
     71          1           0       -1.862629   -3.731658    4.371205
     72          1           0       -2.650228   -2.759997    3.048226
     73          1           0       -3.292025    2.531237    6.130847
     74          1           0       -4.095160    0.922485    6.208020
     75          1           0       -5.109214    2.405042    5.964541
     76          1           0       -4.820901    5.365444    1.802527
     77          1           0       -2.115185    8.628922    0.997350
     78          1           0       -2.129786    7.723926   -0.633754
     79          1           0       -1.038072    7.368719    0.718177
     80         12           0        4.248076   -1.532306   -0.457995
     81          6           0        5.888668    1.627368   -0.006350
     82          6           0        2.350915   -0.034253   -2.864486
     83          6           0        2.483522   -4.167064   -0.566820
     84          6           0        5.439018   -2.443204    2.688060
     85          7           0        4.217844    0.534682   -1.244679
     86          6           0        4.929027    1.633178   -1.040028
     87          6           0        4.648797    2.778264   -2.049887
     88          6           0        3.165895    2.350241   -2.493362
     89          6           0        3.252487    0.850075   -2.220093
     90          6           0        2.079875    2.935461   -1.605994
     91          6           0        5.640164    2.758688   -3.265947
     92          6           0        5.624969    4.022655   -4.128463
     93          1           0        6.881211    4.479040   -4.716699
     94          7           0        3.001489   -2.186230   -1.856908
     95          6           0        2.335531   -1.442895   -2.765334
     96          6           0        1.534278   -2.392662   -3.552792
     97          6           0        1.654910   -3.738326   -2.928817
     98          6           0        2.383839   -3.404718   -1.721574
     99          6           0        0.819524   -2.004058   -4.814351
    100          6           0        1.180209   -5.098214   -3.343035
    101          8           0        1.189255   -6.090547   -2.531849
    102          6           0        0.617617   -5.212076   -4.696555
    103          7           0        3.817312   -2.999941    0.950141
    104          6           0        3.065721   -4.067413    0.628347
    105          6           0        3.119917   -5.118967    1.710780
    106          6           0        4.261611   -4.636710    2.721492
    107          6           0        4.624197   -3.285326    2.067507
    108          6           0        1.820372   -5.346777    2.482592
    109          6           0        5.406033   -5.642890    3.022444
    110          6           0        6.242073   -5.859806    1.781723
    111          7           0        5.593995   -0.680872    1.002018
    112          6           0        5.932611   -1.215981    2.264183
    113          6           0        6.790470   -0.222646    2.942263
    114          6           0        6.873230    0.839800    2.029661
    115          6           0        6.103648    0.539043    0.873473
    116          6           0        7.333586   -0.348536    4.251962
    117          6           0        7.427980    2.151880    1.785972
    118          8           0        8.228371    2.879258    2.372523
    119          6           0        6.712447    2.774120    0.510340
    120          6           0        7.777199    3.334555   -0.392287
    121          8           0        8.601757    2.581893   -0.940209
    122          8           0        7.514119    4.632281   -0.631145
    123          6           0        8.536634    5.229641   -1.530846
    124          1           0        1.551542    0.391391   -3.471695
    125          1           0        1.982209   -5.137228   -0.597586
    126          1           0        5.930537   -2.694095    3.630475
    127          1           0        4.635518    3.771755   -1.617929
    128          1           0        3.000912    2.536174   -3.551454
    129          1           0        2.492128    3.448540   -0.749871
    130          1           0        1.475014    2.096034   -1.288892
    131          1           0        1.418554    3.578441   -2.193842
    132          1           0        5.289026    2.024456   -4.002386
    133          1           0        6.641385    2.556973   -2.938087
    134          1           0        5.108392    4.853637   -3.632921
    135          1           0        5.024237    3.827145   -5.020049
    136          1           0        0.775720   -0.914320   -4.932503
    137          1           0       -0.226503   -2.306635   -4.695390
    138          1           0        1.230704   -2.494117   -5.699469
    139          1           0       -0.227622   -4.534989   -4.794447
    140          1           0        0.416920   -6.275416   -4.841103
    141          1           0        1.372244   -4.879801   -5.418175
    142          1           0        3.397612   -6.082180    1.300660
    143          1           0        3.853736   -4.404960    3.716369
    144          1           0        1.468762   -6.395144    2.445534
    145          1           0        1.066843   -4.678764    2.086995
    146          1           0        1.851558   -5.063532    3.533302
    147          1           0        4.992129   -6.617621    3.292115
    148          1           0        6.052358   -5.331171    3.836123
    149          1           0        5.673797   -6.614693    1.230096
    150          1           0        7.232011   -6.226124    2.046070
    151          1           0        6.272898   -4.954315    1.164648
    152          1           0        8.361421   -0.015469    4.196121
    153          1           0        7.265729   -1.372382    4.613786
    154          1           0        6.672789    0.326131    4.802809
    155          1           0        6.026962    3.545681    0.863011
    156          1           0        8.946850    6.102334   -1.013339
    157          1           0        8.019640    5.410880   -2.491898
    158          1           0        9.435263    4.654232   -1.720075
 ---------------------------------------------------------------------

 SCF Done:  E(RCAM-B3LYP) =  -4069.81128721     A.U. after   19 cycles

 Excitation energies and oscillator strengths:

 Excited State   1:      Singlet-A      1.6442 eV  754.08 nm  f=0.0588  <S**2>=0.000
     309 -> 315       -0.11348
     310 -> 316        0.12122
     311 -> 313       -0.46796
     312 -> 314        0.50418
 This state for optimization and/or second-order correction.
 Total Energy, E(TD-HF/TD-DFT) =  -4069.75086452
 Copying the excited state density for this state as the 1-particle RhoCI density.

 Excited State   2:      Singlet-A      1.7038 eV  727.70 nm  f=0.6545  <S**2>=0.000
     309 -> 315        0.13395
     310 -> 316        0.12258
     311 -> 313        0.50134
     312 -> 314        0.46540

 Excited State   3:      Singlet-A      2.1793 eV  568.91 nm  f=0.0127  <S**2>=0.000
     309 -> 313       -0.32321
     310 -> 314        0.55895
     311 -> 315        0.13315
     312 -> 316       -0.23117

 Excited State   4:      Singlet-A      2.1957 eV  564.66 nm  f=0.1611  <S**2>=0.000
     309 -> 313        0.55370
     310 -> 314        0.31849
     311 -> 315       -0.24419
     312 -> 316       -0.14088

 Excited State   5:      Singlet-A      2.3156 eV  535.44 nm  f=0.0000  <S**2>=0.000
     312 -> 313        0.70690

 The electronic state is 1-A.
 Alpha  occ. eigenvalues --  -46.87981 -46.87455 -19.26530 -19.26166 -19.19274
 Alpha  occ. eigenvalues --  -19.18977 -19.18961 -19.18550 -19.18349 -19.17844
 Alpha  occ. eigenvalues --  -14.42652 -14.42275 -14.41623 -14.41163 -14.39588
 Alpha  occ. eigenvalues --  -14.39156 -14.38770 -14.38393 -10.39327 -10.38900
 Alpha  occ. eigenvalues --  -10.35598 -10.35235 -10.34573 -10.34017 -10.31933
 Alpha  occ. eigenvalues --  -10.31614 -10.31602 -10.31130 -10.31076 -10.30811
 Alpha  occ. eigenvalues --  -10.30765 -10.30674 -10.30374 -10.30199 -10.30164
 Alpha  occ. eigenvalues --  -10.30069 -10.29964 -10.29814 -10.29697 -10.29439
 Alpha  occ. eigenvalues --  -10.29250 -10.29221 -10.29030 -10.28938 -10.28560
 Alpha  occ. eigenvalues --  -10.28520 -10.28460 -10.28369 -10.28202 -10.27977
 Alpha  occ. eigenvalues --  -10.27929 -10.27821 -10.27808 -10.27776 -10.27747
 Alpha  occ. eigenvalues --  -10.27619 -10.27600 -10.27547 -10.27461 -10.27435
 Alpha  occ. eigenvalues --  -10.27370 -10.27363 -10.27295 -10.27271 -10.27222
 Alpha  occ. eigenvalues --  -10.27093 -10.26820 -10.26630 -10.26510 -10.26449
 Alpha  occ. eigenvalues --  -10.26349 -10.26284 -10.26193 -10.26013 -10.25986
 Alpha  occ. eigenvalues --  -10.25748 -10.25657 -10.25521 -10.25481 -10.25261
 Alpha  occ. eigenvalues --  -10.25016 -10.24947 -10.24769 -10.24672 -10.24609
 Alpha  occ. eigenvalues --  -10.24492  -3.16724  -3.16205  -1.91605  -1.91192
 Alpha  occ. eigenvalues --   -1.91087  -1.91034  -1.90676  -1.90513  -1.16880
 Alpha  occ. eigenvalues --   -1.16460  -1.08809  -1.08449  -1.07353  -1.06892
 Alpha  occ. eigenvalues --   -1.06798  -1.06760  -1.04786  -1.04274  -1.03939
 Alpha  occ. eigenvalues --   -1.03460  -1.03414  -1.02844  -1.02591  -1.01911
 Alpha  occ. eigenvalues --   -0.92168  -0.91774  -0.89669  -0.89449  -0.89320
 Alpha  occ. eigenvalues --   -0.88875  -0.88426  -0.88054  -0.88046  -0.87885
 Alpha  occ. eigenvalues --   -0.87596  -0.87484  -0.87480  -0.86987  -0.85232
 Alpha  occ. eigenvalues --   -0.84769  -0.84070  -0.83718  -0.83153  -0.82874
 Alpha  occ. eigenvalues --   -0.82813  -0.82441  -0.81799  -0.81406  -0.80802
 Alpha  occ. eigenvalues --   -0.80255  -0.78996  -0.78478  -0.77425  -0.77151
 Alpha  occ. eigenvalues --   -0.76952  -0.76688  -0.76141  -0.75592  -0.75046
 Alpha  occ. eigenvalues --   -0.74629  -0.72955  -0.72502  -0.71857  -0.71355
 Alpha  occ. eigenvalues --   -0.70029  -0.69603  -0.69107  -0.68608  -0.67834
 Alpha  occ. eigenvalues --   -0.67490  -0.67419  -0.67027  -0.65531  -0.65048
 Alpha  occ. eigenvalues --   -0.65047  -0.64822  -0.64573  -0.64451  -0.64420
 Alpha  occ. eigenvalues --   -0.64029  -0.62506  -0.62095  -0.60624  -0.60189
 Alpha  occ. eigenvalues --   -0.60039  -0.59552  -0.59170  -0.58797  -0.58690
 Alpha  occ. eigenvalues --   -0.58234  -0.57791  -0.57479  -0.57348  -0.57065
 Alpha  occ. eigenvalues --   -0.56504  -0.56215  -0.56024  -0.55717  -0.55706
 Alpha  occ. eigenvalues --   -0.55499  -0.55279  -0.55075  -0.54701  -0.54317
 Alpha  occ. eigenvalues --   -0.54158  -0.53656  -0.53489  -0.53453  -0.53126
 Alpha  occ. eigenvalues --   -0.53055  -0.52989  -0.52950  -0.52716  -0.52560
 Alpha  occ. eigenvalues --   -0.52502  -0.52256  -0.52080  -0.51872  -0.51688
 Alpha  occ. eigenvalues --   -0.51460  -0.51384  -0.51007  -0.50797  -0.50375
 Alpha  occ. eigenvalues --   -0.50201  -0.50108  -0.49789  -0.49735  -0.49697
 Alpha  occ. eigenvalues --   -0.49423  -0.49318  -0.49286  -0.48998  -0.48830
 Alpha  occ. eigenvalues --   -0.48799  -0.48627  -0.48605  -0.48340  -0.48214
 Alpha  occ. eigenvalues --   -0.48169  -0.47899  -0.47486  -0.47410  -0.46986
 Alpha  occ. eigenvalues --   -0.46965  -0.46806  -0.46540  -0.46518  -0.46334
 Alpha  occ. eigenvalues --   -0.46324  -0.46103  -0.46019  -0.45905  -0.45618
 Alpha  occ. eigenvalues --   -0.45345  -0.45034  -0.44777  -0.44715  -0.44330
 Alpha  occ. eigenvalues --   -0.44322  -0.44303  -0.44266  -0.44216  -0.43923
 Alpha  occ. eigenvalues --   -0.43871  -0.43765  -0.43697  -0.43592  -0.43364
 Alpha  occ. eigenvalues --   -0.43212  -0.43171  -0.42916  -0.42797  -0.42747
 Alpha  occ. eigenvalues --   -0.42702  -0.42392  -0.42188  -0.41897  -0.41787
 Alpha  occ. eigenvalues --   -0.41769  -0.41459  -0.41332  -0.41254  -0.41097
 Alpha  occ. eigenvalues --   -0.41023  -0.40752  -0.40717  -0.40554  -0.40545
 Alpha  occ. eigenvalues --   -0.40491  -0.40299  -0.40035  -0.39557  -0.39277
 Alpha  occ. eigenvalues --   -0.38630  -0.38174  -0.38042  -0.37503  -0.37481
 Alpha  occ. eigenvalues --   -0.37464  -0.37082  -0.36984  -0.36930  -0.36593
 Alpha  occ. eigenvalues --   -0.36386  -0.36029  -0.34472  -0.34049  -0.34012
 Alpha  occ. eigenvalues --   -0.33674  -0.33374  -0.32977  -0.31488  -0.31220
 Alpha  occ. eigenvalues --   -0.31106  -0.30765  -0.30210  -0.29746  -0.29636
 Alpha  occ. eigenvalues --   -0.29503  -0.29149  -0.29011  -0.24266  -0.23828
 Alpha  occ. eigenvalues --   -0.21315  -0.20917
 Alpha virt. eigenvalues --   -0.08961  -0.08598  -0.01927  -0.01487  -0.00248
 Alpha virt. eigenvalues --    0.00158   0.02025   0.02397   0.02747   0.03471
 Alpha virt. eigenvalues --    0.04474   0.04830   0.04959   0.05358   0.05802

 Mulliken charges:
               1
     1  Mg   0.838690
     2  C   -0.003629
     3  C   -0.095974
     4  C   -0.044183
     5  C   -0.063472
     6  N   -0.256700
     7  C   -0.053119
     8  C   -0.013712
     9  C   -0.086721
    10  C    0.045690
    11  C    0.104744
    12  C    0.053317
    13  C   -0.071397
    14  H    0.034059
    15  N   -0.433093
    16  C    0.167906
    17  C   -0.179067
    18  C   -0.004433
    19  C    0.149377
    20  C    0.110462
    21  C    0.012885
    22  O   -0.246784
    23  C    0.062956
    24  N   -0.341108
    25  C    0.041111
    26  C   -0.028620
    27  C   -0.024142
    28  C    0.075088
    29  C    0.075942
    30  C    0.035144
    31  C   -0.006270
    32  N   -0.310550
    33  C    0.080651
    34  C   -0.169206
    35  C    0.008575
    36  C    0.083127
    37  C    0.127227
    38  C    0.046328
    39  O   -0.187743
    40  C   -0.005481
    41  C    0.213207
    42  O   -0.258259
    43  O   -0.304475
    44  C    0.157547
    45  H   -0.017760
    46  H   -0.015508
    47  H   -0.040959
    48  H    0.001504
    49  H   -0.004982
    50  H    0.025844
    51  H    0.016978
    52  H    0.016810
    53  H    0.008511
    54  H    0.043439
    55  H    0.019513
    56  H    0.017450
    57  H    0.005594
    58  H    0.027732
    59  H    0.036476
    60  H    0.037580
    61  H    0.037807
    62  H    0.026833
    63  H    0.018267
    64  H    0.009720
    65  H    0.024025
    66  H    0.012398
    67  H    0.004852
    68  H    0.006834
    69  H    0.004413
    70  H    0.011616
    71  H    0.017444
    72  H    0.029417
    73  H    0.048082
    74  H    0.009433
    75  H    0.046366
    76  H    0.035496
    77  H    0.044056
    78  H    0.045701
    79  H    0.053226
    80  Mg   0.838566
    81  C   -0.016487
    82  C   -0.088163
    83  C   -0.045518
    84  C   -0.064846
    85  N   -0.254826
    86  C   -0.047993
    87  C   -0.015141
    88  C   -0.091470
    89  C    0.047060
    90  C    0.115686
    91  C    0.062700
    92  C   -0.077168
    93  H    0.033763
    94  N   -0.423455
    95  C    0.162936
    96  C   -0.175028
    97  C   -0.007547
    98  C    0.151494
    99  C    0.099987
   100  C    0.016526
   101  O   -0.251966
   102  C    0.061590
   103  N   -0.349896
   104  C    0.037225
   105  C   -0.019883
   106  C   -0.034872
   107  C    0.089096
   108  C    0.073361
   109  C    0.034864
   110  C   -0.007579
   111  N   -0.324293
   112  C    0.079015
   113  C   -0.162882
   114  C    0.002844
   115  C    0.096419
   116  C    0.131267
   117  C    0.042779
   118  O   -0.187885
   119  C    0.000656
   120  C    0.210972
   121  O   -0.251584
   122  O   -0.305143
   123  C    0.152285
   124  H   -0.020651
   125  H   -0.015265
   126  H   -0.040845
   127  H    0.000150
   128  H   -0.006823
   129  H    0.027954
   130  H    0.016632
   131  H    0.015427
   132  H    0.013163
   133  H    0.037282
   134  H    0.020848
   135  H    0.018560
   136  H    0.007717
   137  H    0.023237
   138  H    0.038573
   139  H    0.035329
   140  H    0.036859
   141  H    0.033139
   142  H    0.014143
   143  H    0.012021
   144  H    0.024615
   145  H    0.013302
   146  H    0.004279
   147  H    0.005723
   148  H    0.003438
   149  H    0.010803
   150  H    0.017556
   151  H    0.030338
   152  H    0.045621
   153  H    0.007965
   154  H    0.048036
   155  H    0.037353
   156  H    0.043705
   157  H    0.049101
   158  H    0.053147
 Sum of Mulliken charges =  -0.00000

 Dipole moment (field-independent basis, Debye):
    X=             -6.2513    Y=              0.5343    Z=             -5.7731  Tot=              8.5260
 Quadrupole moment (field-independent basis, Debye-Ang):
   XX=           -539.9782   YY=           -522.5305   ZZ=           -468.5739
   XY=            -18.0893   XZ=              5.6019   YZ=            -57.4585

 Normal termination of Gaussian 16 at Fri Sep 10 00:57:48 2021.
