 Gaussian 16, Revision A.03,
 Gaussian 16:  ES64L-G16RevA.03 25-Dec-2016

 -----------------------------------
 #p cam-b3lyp/Def2SVP td=(nstates=5)
 -----------------------------------

 --------------------------------
 TDDFT excited states in gaussian
 --------------------------------
 Symbolic Z-matrix:
 Charge =  0 Multiplicity = 1

                         Standard orientation:
 ---------------------------------------------------------------------
 Center     Atomic      Atomic             Coordinates (Angstroms)
 Number     Number       Type             X           Y           Z
 ---------------------------------------------------------------------
      1         12           0       15.775979    0.714780    0.362245
      2          6           0       16.142463   -2.645841   -0.814243
      3          6           0       16.616359    1.748242   -2.779217
      4          6           0       15.902938    3.676657    1.488208
      5          6           0       16.083375   -0.541268    3.598526
      6          7           0       16.290130   -0.402535   -1.478380
      7          6           0       16.335964   -1.688396   -1.812492
      8          6           0       16.534313   -1.923169   -3.339880
      9          6           0       17.224104   -0.536958   -3.720148
     10          6           0       16.649372    0.331561   -2.615031
     11          6           0       18.743656   -0.556493   -3.589453
     12          6           0       15.175060   -2.112513   -4.093744
     13          6           0       15.288838   -2.667002   -5.516751
     14          1           0       14.256740   -3.571506   -6.000479
     15          7           0       15.717841    2.448430   -0.583232
     16          6           0       16.081821    2.683467   -1.866806
     17          6           0       15.854777    4.126408   -2.097139
     18          6           0       15.509198    4.747275   -0.788249
     19          6           0       15.724570    3.639578    0.107296
     20          6           0       15.924820    4.764633   -3.450473
     21          6           0       15.066771    6.123794   -0.404081
     22          8           0       15.043760    6.516079    0.812536
     23          6           0       14.741074    7.041860   -1.510480
     24          7           0       16.184751    1.498791    2.253242
     25          6           0       16.116198    2.814417    2.484355
     26          6           0       16.167547    3.114170    3.953181
     27          6           0       16.040728    1.706542    4.696317
     28          6           0       16.019452    0.784127    3.452546
     29          6           0       17.428158    3.838971    4.444643
     30          6           0       14.905558    1.562577    5.740866
     31          6           0       13.561975    1.608004    5.048176
     32          7           0       15.884999   -1.251054    1.275840
     33          6           0       16.033750   -1.539693    2.640111
     34          6           0       16.166715   -3.003254    2.760023
     35          6           0       16.102278   -3.465967    1.447167
     36          6           0       15.965738   -2.359363    0.561122
     37          6           0       16.381309   -3.724391    3.967642
     38          6           0       16.141754   -4.635933    0.584916
     39          8           0       16.149078   -5.853087    0.774592
     40          6           0       16.291800   -4.143059   -0.921864
     41          6           0       15.282466   -4.892803   -1.747961
     42          8           0       14.059078   -4.704369   -1.589271
     43          8           0       15.911206   -5.529543   -2.747856
     44          6           0       14.963311   -6.269330   -3.623278
     45          1           0       17.094470    2.189257   -3.656062
     46          1           0       15.841876    4.673915    1.928873
     47          1           0       16.097793   -1.011822    4.583322
     48          1           0       17.198615   -2.750541   -3.590044
     49          1           0       16.898681   -0.174397   -4.695018
     50          1           0       19.092299   -1.482212   -3.131835
     51          1           0       18.992546    0.297219   -2.958802
     52          1           0       19.217762   -0.365850   -4.552602
     53          1           0       14.744489   -1.134703   -4.309518
     54          1           0       14.497229   -2.740989   -3.515048
     55          1           0       16.279365   -3.082269   -5.704686
     56          1           0       15.207226   -1.834231   -6.215344
     57          1           0       16.360924    4.092293   -4.188252
     58          1           0       16.636333    5.586972   -3.378254
     59          1           0       14.956102    5.144178   -3.775839
     60          1           0       15.615638    7.158156   -2.150918
     61          1           0       14.358976    7.949823   -1.045234
     62          1           0       13.966176    6.588303   -2.129161
     63          1           0       15.336314    3.751743    4.251474
     64          1           0       16.945188    1.453370    5.249969
     65          1           0       17.221164    4.778765    4.957134
     66          1           0       18.081978    3.996781    3.587376
     67          1           0       18.068491    3.248979    5.099852
     68          1           0       14.931292    2.392954    6.445677
     69          1           0       14.964042    0.638022    6.315347
     70          1           0       13.374884    2.676709    4.949692
     71          1           0       12.799114    1.133434    5.666268
     72          1           0       13.618769    1.193031    4.041669
     73          1           0       15.723244   -4.592240    3.925724
     74          1           0       16.168287   -3.107526    4.840397
     75          1           0       17.440388   -3.964131    3.874193
     76          1           0       17.314665   -4.365616   -1.224088
     77          1           0       15.293016   -7.308044   -3.647837
     78          1           0       14.927165   -5.727465   -4.568519
     79          1           0       13.947214   -6.384851   -3.244408
     80         12           0      -15.946421   -0.779371    0.235994
     81          6           0      -15.885752    2.441954   -1.344649
     82          6           0      -15.155218    0.802586    3.152497
     83          6           0      -15.549524   -3.634745    1.561415
     84          6           0      -15.599152   -2.186842   -2.933256
     85          7           0      -15.592778    1.350810    0.715109
     86          6           0      -15.657845    2.492259    0.046388
     87          6           0      -15.547852    3.763091    0.930944
     88          6           0      -14.762121    3.122071    2.176169
     89          6           0      -15.221226    1.672277    2.034745
     90          6           0      -13.251110    3.162033    2.019423
     91          6           0      -16.952145    4.315606    1.360700
     92          6           0      -16.932896    5.722073    1.963389
     93          1           0      -18.056659    6.612912    1.687655
     94          7           0      -15.912882   -1.314882    2.146666
     95          6           0      -15.590704   -0.539835    3.203437
     96          6           0      -15.699439   -1.407303    4.386584
     97          6           0      -15.951863   -2.799660    3.925771
     98          6           0      -15.790321   -2.637108    2.494836
     99          6           0      -15.644399   -0.879123    5.790655
    100          6           0      -16.271499   -4.070154    4.653685
    101          8           0      -16.216043   -5.211290    4.072680
    102          6           0      -16.560354   -3.947904    6.090042
    103          7           0      -15.409822   -2.631883   -0.540277
    104          6           0      -15.361788   -3.722661    0.244464
    105          6           0      -15.224422   -4.981210   -0.578672
    106          6           0      -15.434241   -4.526295   -2.097419
    107          6           0      -15.574110   -3.002473   -1.888126
    108          6           0      -13.892318   -5.719358   -0.448189
    109          6           0      -16.534262   -5.265117   -2.907829
    110          6           0      -17.899075   -4.927671   -2.352123
    111          7           0      -15.956881   -0.052145   -1.798479
    112          6           0      -15.768394   -0.808825   -2.975764
    113          6           0      -15.744404    0.142608   -4.105647
    114          6           0      -15.898767    1.398867   -3.500279
    115          6           0      -15.990786    1.243186   -2.090742
    116          6           0      -15.547382   -0.195852   -5.474139
    117          6           0      -15.994131    2.822166   -3.732268
    118          8           0      -16.065763    3.536603   -4.731359
    119          6           0      -15.863050    3.571550   -2.336684
    120          6           0      -16.960050    4.597462   -2.255505
    121          8           0      -18.152194    4.245977   -2.212312
    122          8           0      -16.416573    5.806323   -2.023859
    123          6           0      -17.465908    6.855507   -1.924217
    124          1           0      -14.687205    1.167787    4.067089
    125          1           0      -15.515047   -4.652398    1.957215
    126          1           0      -15.593065   -2.555070   -3.961379
    127          1           0      -14.965974    4.568364    0.498824
    128          1           0      -15.106266    3.540828    3.118274
    129          1           0      -12.956680    3.509238    1.040194
    130          1           0      -12.911886    2.146845    2.178694
    131          1           0      -12.804662    3.758133    2.820477
    132          1           0      -17.311705    3.745028    2.226662
    133          1           0      -17.641673    4.283732    0.539622
    134          1           0      -15.981316    6.235886    1.780513
    135          1           0      -16.985260    5.634168    3.051299
    136          1           0      -15.284936    0.156979    5.816866
    137          1           0      -14.870318   -1.448564    6.316392
    138          1           0      -16.591320   -0.995921    6.322046
    139          1           0      -15.707864   -3.497344    6.592762
    140          1           0      -16.852611   -4.948165    6.415519
    141          1           0      -17.402542   -3.259127    6.220143
    142          1           0      -15.991854   -5.699613   -0.317793
    143          1           0      -14.525318   -4.678916   -2.697755
    144          1           0      -14.006124   -6.771572   -0.125760
    145          1           0      -13.266708   -5.174419    0.246211
    146          1           0      -13.281100   -5.731852   -1.348998
    147          1           0      -16.416844   -6.346863   -2.806884
    148          1           0      -16.516273   -5.036800   -3.968271
    149          1           0      -18.001431   -5.620450   -1.511494
    150          1           0      -18.670321   -5.098434   -3.100488
    151          1           0      -17.917579   -3.910120   -1.944813
    152          1           0      -16.264254    0.380499   -6.043719
    153          1           0      -15.671782   -1.263699   -5.641481
    154          1           0      -14.509780    0.122226   -5.606285
    155          1           0      -14.872813    4.027364   -2.301350
    156          1           0      -17.215309    7.628624   -2.657146
    157          1           0      -17.486140    7.157691   -0.860247
    158          1           0      -18.470650    6.590266   -2.231741
 ---------------------------------------------------------------------

 SCF Done:  E(RCAM-B3LYP) =  -4069.81178157     A.U. after   19 cycles

 Excitation energies and oscillator strengths:

 Excited State   1:      Singlet-A      1.6755 eV  740.01 nm  f=0.2941  <S**2>=0.000
     310 -> 316        0.17090
     311 -> 314        0.12039
     312 -> 313        0.67540
     310 <- 316        0.10302
 This state for optimization and/or second-order correction.
 Total Energy, E(TD-HF/TD-DFT) =  -4069.75020991
 Copying the excited state density for this state as the 1-particle RhoCI density.

 Excited State   2:      Singlet-A      1.6800 eV  737.99 nm  f=0.4828  <S**2>=0.000
     309 -> 315        0.17285
     311 -> 314        0.67505
     312 -> 313       -0.12035
     309 <- 315        0.10350

 Excited State   3:      Singlet-A      2.1861 eV  567.14 nm  f=0.0983  <S**2>=0.000
     310 -> 313        0.64225
     312 -> 316       -0.27304

 Excited State   4:      Singlet-A      2.1926 eV  565.48 nm  f=0.1022  <S**2>=0.000
     309 -> 314        0.64048
     311 -> 315       -0.27820

 Excited State   5:      Singlet-A      3.0657 eV  404.42 nm  f=0.0000  <S**2>=0.000
     311 -> 313        0.70711

 The electronic state is 1-A.
 Alpha  occ. eigenvalues --  -46.87796 -46.87661 -19.26354 -19.26280 -19.19165
 Alpha  occ. eigenvalues --  -19.19017 -19.18814 -19.18712 -19.18168 -19.18054
 Alpha  occ. eigenvalues --  -14.42498 -14.42449 -14.41450 -14.41359 -14.39402
 Alpha  occ. eigenvalues --  -14.39352 -14.38600 -14.38586 -10.39094 -10.39077
 Alpha  occ. eigenvalues --  -10.35448 -10.35389 -10.34388 -10.34231 -10.31762
 Alpha  occ. eigenvalues --  -10.31674 -10.31404 -10.31310 -10.31023 -10.30907
 Alpha  occ. eigenvalues --  -10.30569 -10.30507 -10.30398 -10.30362 -10.30207
 Alpha  occ. eigenvalues --  -10.30140 -10.29921 -10.29895 -10.29630 -10.29436
 Alpha  occ. eigenvalues --  -10.29401 -10.29254 -10.28745 -10.28720 -10.28656
 Alpha  occ. eigenvalues --  -10.28531 -10.28405 -10.28364 -10.28140 -10.28113
 Alpha  occ. eigenvalues --  -10.28002 -10.27792 -10.27726 -10.27669 -10.27583
 Alpha  occ. eigenvalues --  -10.27517 -10.27504 -10.27484 -10.27478 -10.27467
 Alpha  occ. eigenvalues --  -10.27463 -10.27452 -10.27402 -10.27374 -10.27156
 Alpha  occ. eigenvalues --  -10.27053 -10.26699 -10.26694 -10.26410 -10.26408
 Alpha  occ. eigenvalues --  -10.26231 -10.26189 -10.26138 -10.26024 -10.26020
 Alpha  occ. eigenvalues --  -10.25935 -10.25855 -10.25845 -10.25439 -10.25393
 Alpha  occ. eigenvalues --  -10.24874 -10.24832 -10.24788 -10.24731 -10.24693
 Alpha  occ. eigenvalues --  -10.24690  -3.16539  -3.16411  -1.91420  -1.91293
 Alpha  occ. eigenvalues --   -1.91007  -1.90882  -1.90849  -1.90719  -1.16648
 Alpha  occ. eigenvalues --   -1.16629  -1.08662  -1.08626  -1.07216  -1.06964
 Alpha  occ. eigenvalues --   -1.06949  -1.06639  -1.04580  -1.04496  -1.03760
 Alpha  occ. eigenvalues --   -1.03663  -1.03233  -1.03039  -1.02411  -1.02112
 Alpha  occ. eigenvalues --   -0.91988  -0.91971  -0.89521  -0.89495  -0.89185
 Alpha  occ. eigenvalues --   -0.89152  -0.88289  -0.88220  -0.87870  -0.87796
 Alpha  occ. eigenvalues --   -0.87684  -0.87672  -0.87272  -0.87119  -0.85000
 Alpha  occ. eigenvalues --   -0.84979  -0.83939  -0.83876  -0.82967  -0.82929
 Alpha  occ. eigenvalues --   -0.82653  -0.82646  -0.81599  -0.81584  -0.80595
 Alpha  occ. eigenvalues --   -0.80444  -0.78796  -0.78635  -0.77218  -0.77145
 Alpha  occ. eigenvalues --   -0.76932  -0.76899  -0.75921  -0.75840  -0.74899
 Alpha  occ. eigenvalues --   -0.74802  -0.72774  -0.72700  -0.71671  -0.71581
 Alpha  occ. eigenvalues --   -0.69910  -0.69757  -0.68871  -0.68828  -0.67640
 Alpha  occ. eigenvalues --   -0.67602  -0.67216  -0.67200  -0.65284  -0.65273
 Alpha  occ. eigenvalues --   -0.64853  -0.64771  -0.64655  -0.64620  -0.64270
 Alpha  occ. eigenvalues --   -0.64204  -0.62296  -0.62281  -0.60442  -0.60339
 Alpha  occ. eigenvalues --   -0.59802  -0.59797  -0.58993  -0.58987  -0.58503
 Alpha  occ. eigenvalues --   -0.58426  -0.57583  -0.57557  -0.57309  -0.57237
 Alpha  occ. eigenvalues --   -0.56309  -0.56205  -0.55975  -0.55889  -0.55519
 Alpha  occ. eigenvalues --   -0.55452  -0.55340  -0.55249  -0.54523  -0.54489
 Alpha  occ. eigenvalues --   -0.53913  -0.53892  -0.53298  -0.53228  -0.53220
 Alpha  occ. eigenvalues --   -0.53142  -0.52913  -0.52903  -0.52754  -0.52666
 Alpha  occ. eigenvalues --   -0.52442  -0.52401  -0.51915  -0.51888  -0.51659
 Alpha  occ. eigenvalues --   -0.51614  -0.51203  -0.51195  -0.50571  -0.50473
 Alpha  occ. eigenvalues --   -0.50033  -0.49979  -0.49917  -0.49866  -0.49512
 Alpha  occ. eigenvalues --   -0.49487  -0.49213  -0.49203  -0.49106  -0.49093
 Alpha  occ. eigenvalues --   -0.48591  -0.48560  -0.48462  -0.48444  -0.48376
 Alpha  occ. eigenvalues --   -0.48337  -0.47693  -0.47595  -0.47296  -0.47118
 Alpha  occ. eigenvalues --   -0.46797  -0.46710  -0.46554  -0.46552  -0.46359
 Alpha  occ. eigenvalues --   -0.46271  -0.46162  -0.46087  -0.45825  -0.45821
 Alpha  occ. eigenvalues --   -0.45208  -0.45203  -0.44577  -0.44516  -0.44505
 Alpha  occ. eigenvalues --   -0.44476  -0.44145  -0.44128  -0.44086  -0.44078
 Alpha  occ. eigenvalues --   -0.44018  -0.43939  -0.43556  -0.43493  -0.43386
 Alpha  occ. eigenvalues --   -0.43384  -0.43026  -0.42933  -0.42903  -0.42698
 Alpha  occ. eigenvalues --   -0.42655  -0.42553  -0.42010  -0.41965  -0.41703
 Alpha  occ. eigenvalues --   -0.41670  -0.41531  -0.41459  -0.41140  -0.40989
 Alpha  occ. eigenvalues --   -0.40868  -0.40822  -0.40721  -0.40698  -0.40572
 Alpha  occ. eigenvalues --   -0.40493  -0.40230  -0.40227  -0.39444  -0.39425
 Alpha  occ. eigenvalues --   -0.38470  -0.38350  -0.37745  -0.37655  -0.37321
 Alpha  occ. eigenvalues --   -0.37266  -0.37261  -0.37200  -0.36774  -0.36711
 Alpha  occ. eigenvalues --   -0.36218  -0.36192  -0.34285  -0.34254  -0.33865
 Alpha  occ. eigenvalues --   -0.33768  -0.33186  -0.33176  -0.31344  -0.31271
 Alpha  occ. eigenvalues --   -0.31035  -0.30973  -0.30028  -0.29959  -0.29448
 Alpha  occ. eigenvalues --   -0.29327  -0.29321  -0.29213  -0.24080  -0.24037
 Alpha  occ. eigenvalues --   -0.21127  -0.21117
 Alpha virt. eigenvalues --   -0.08792  -0.08773  -0.01749  -0.01684  -0.00057
 Alpha virt. eigenvalues --   -0.00028   0.02201   0.02205   0.03123   0.03228
 Alpha virt. eigenvalues --    0.04721   0.04729   0.05101   0.05161   0.06181

 Mulliken charges:
               1
     1  Mg   0.838797
     2  C   -0.002951
     3  C   -0.094080
     4  C   -0.045884
     5  C   -0.063993
     6  N   -0.256784
     7  C   -0.052455
     8  C   -0.014014
     9  C   -0.087016
    10  C    0.046319
    11  C    0.104810
    12  C    0.053458
    13  C   -0.071834
    14  H    0.036182
    15  N   -0.433154
    16  C    0.168415
    17  C   -0.177129
    18  C   -0.004016
    19  C    0.148720
    20  C    0.110173
    21  C    0.012285
    22  O   -0.249659
    23  C    0.062477
    24  N   -0.341147
    25  C    0.041250
    26  C   -0.028172
    27  C   -0.023978
    28  C    0.074857
    29  C    0.076176
    30  C    0.035129
    31  C   -0.004483
    32  N   -0.310472
    33  C    0.080405
    34  C   -0.169742
    35  C    0.008368
    36  C    0.082945
    37  C    0.127319
    38  C    0.046101
    39  O   -0.188449
    40  C   -0.005314
    41  C    0.212869
    42  O   -0.257102
    43  O   -0.304796
    44  C    0.157694
    45  H   -0.017568
    46  H   -0.016861
    47  H   -0.041533
    48  H    0.000947
    49  H   -0.003989
    50  H    0.025471
    51  H    0.016433
    52  H    0.016691
    53  H    0.011224
    54  H    0.044120
    55  H    0.017871
    56  H    0.017987
    57  H    0.005910
    58  H    0.026837
    59  H    0.039599
    60  H    0.037367
    61  H    0.035641
    62  H    0.031534
    63  H    0.016523
    64  H    0.009447
    65  H    0.023183
    66  H    0.012568
    67  H    0.004740
    68  H    0.006322
    69  H    0.004707
    70  H    0.008758
    71  H    0.018082
    72  H    0.029019
    73  H    0.047550
    74  H    0.009072
    75  H    0.046004
    76  H    0.035160
    77  H    0.042948
    78  H    0.046430
    79  H    0.053688
    80  Mg   0.837916
    81  C   -0.016851
    82  C   -0.087795
    83  C   -0.045491
    84  C   -0.064862
    85  N   -0.254566
    86  C   -0.049851
    87  C   -0.015093
    88  C   -0.090511
    89  C    0.045766
    90  C    0.114370
    91  C    0.062534
    92  C   -0.077903
    93  H    0.034880
    94  N   -0.423524
    95  C    0.162945
    96  C   -0.174569
    97  C   -0.007772
    98  C    0.152122
    99  C    0.099336
   100  C    0.015590
   101  O   -0.253133
   102  C    0.061185
   103  N   -0.350074
   104  C    0.037551
   105  C   -0.019864
   106  C   -0.034807
   107  C    0.088901
   108  C    0.073628
   109  C    0.034735
   110  C   -0.007678
   111  N   -0.324106
   112  C    0.078434
   113  C   -0.163163
   114  C    0.002225
   115  C    0.096183
   116  C    0.131495
   117  C    0.042359
   118  O   -0.187940
   119  C    0.000933
   120  C    0.211256
   121  O   -0.251027
   122  O   -0.305633
   123  C    0.152040
   124  H   -0.019607
   125  H   -0.015519
   126  H   -0.040473
   127  H   -0.000661
   128  H   -0.004308
   129  H    0.022447
   130  H    0.014471
   131  H    0.016324
   132  H    0.013927
   133  H    0.037659
   134  H    0.020788
   135  H    0.019615
   136  H    0.008786
   137  H    0.026228
   138  H    0.039820
   139  H    0.038302
   140  H    0.036446
   141  H    0.033885
   142  H    0.014420
   143  H    0.012438
   144  H    0.025198
   145  H    0.011692
   146  H    0.005711
   147  H    0.006293
   148  H    0.003627
   149  H    0.010954
   150  H    0.017914
   151  H    0.030085
   152  H    0.045969
   153  H    0.008508
   154  H    0.046921
   155  H    0.035013
   156  H    0.043880
   157  H    0.049508
   158  H    0.053569
 Sum of Mulliken charges =  -0.00000

 Dipole moment (field-independent basis, Debye):
    X=              3.8452    Y=              3.3179    Z=              0.8698  Tot=              5.1527
 Quadrupole moment (field-independent basis, Debye-Ang):
   XX=           -518.6932   YY=           -535.9815   ZZ=           -462.7266
   XY=             37.1824   XZ=           -117.7917   YZ=             33.9095

 Normal termination of Gaussian 16 at Sun Sep 12 14:37:17 2021.
