 Gaussian 16, Revision A.03,
 Gaussian 16:  ES64L-G16RevA.03 25-Dec-2016

 -----------------------------------
 #p cam-b3lyp/Def2SVP td=(nstates=5)
 -----------------------------------

 --------------------------------
 TDDFT excited states in gaussian
 --------------------------------
 Symbolic Z-matrix:
 Charge =  0 Multiplicity = 1

                         Standard orientation:
 ---------------------------------------------------------------------
 Center     Atomic      Atomic             Coordinates (Angstroms)
 Number     Number       Type             X           Y           Z
 ---------------------------------------------------------------------
      1         12           0        8.004469    0.614546    0.843314
      2          6           0        8.479637   -2.454424   -0.936533
      3          6           0        9.171173    2.228962   -1.927160
      4          6           0        8.023910    3.290838    2.544402
      5          6           0        7.968625   -1.264562    3.778162
      6          7           0        8.703612   -0.128275   -1.121391
      7          6           0        8.779456   -1.323235   -1.698875
      8          6           0        9.135005   -1.255634   -3.214259
      9          6           0        9.865550    0.161306   -3.238450
     10          6           0        9.181897    0.807447   -2.046375
     11          6           0       11.363142    0.079473   -2.960918
     12          6           0        7.861017   -1.258962   -4.124575
     13          6           0        8.120453   -1.523271   -5.610572
     14          1           0        7.141171   -2.288802   -6.367088
     15          7           0        8.051266    2.501981    0.261724
     16          6           0        8.547805    2.977656   -0.905525
     17          6           0        8.351091    4.442701   -0.865213
     18          6           0        7.873239    4.800266    0.499302
     19          6           0        7.990234    3.532280    1.173024
     20          6           0        8.563986    5.334393   -2.049828
     21          6           0        7.398067    6.083756    1.103450
     22          8           0        7.249831    6.227793    2.365137
     23          6           0        7.192644    7.210351    0.175211
     24          7           0        8.216797    0.998431    2.884192
     25          6           0        8.129192    2.243504    3.364922
     26          6           0        8.028311    2.245125    4.861505
     27          6           0        7.819795    0.721706    5.292165
     28          6           0        7.924941    0.064646    3.893778
     29          6           0        9.233420    2.827498    5.612879
     30          6           0        6.581487    0.401286    6.166433
     31          6           0        5.317542    0.615515    5.364158
     32          7           0        8.010778   -1.495326    1.352675
     33          6           0        8.015581   -2.051925    2.639861
     34          6           0        8.130158   -3.513031    2.478277
     35          6           0        8.201199   -3.704904    1.099878
     36          6           0        8.161614   -2.441779    0.443189
     37          6           0        8.215236   -4.464008    3.533188
     38          6           0        8.326147   -4.681561    0.030119
     39          8           0        8.309371   -5.911985   -0.027057
     40          6           0        8.634081   -3.903850   -1.324934
     41          6           0        7.713650   -4.450486   -2.381960
     42          8           0        6.481062   -4.267631   -2.313731
     43          8           0        8.440876   -4.891653   -3.419774
     44          6           0        7.586723   -5.420253   -4.516661
     45          1           0        9.739580    2.823167   -2.645335
     46          1           0        7.920800    4.182266    3.166626
     47          1           0        7.878714   -1.921019    4.645590
     48          1           0        9.818825   -2.032926   -3.555771
     49          1           0        9.644735    0.717509   -4.149274
     50          1           0       11.658944   -0.926701   -2.664209
     51          1           0       11.547998    0.785111   -2.150734
     52          1           0       11.935672    0.445527   -3.813555
     53          1           0        7.458725   -0.247650   -4.183486
     54          1           0        7.124374   -1.972981   -3.754629
     55          1           0        9.123694   -1.916968   -5.776158
     56          1           0        8.115001   -0.566925   -6.133614
     57          1           0        9.072194    4.811103   -2.858800
     58          1           0        9.267006    6.108665   -1.743276
     59          1           0        7.635779    5.794204   -2.389442
     60          1           0        8.129571    7.429946   -0.337132
     61          1           0        6.767370    8.017187    0.771035
     62          1           0        6.484812    6.907195   -0.596812
     63          1           0        7.172785    2.830947    5.195143
     64          1           0        8.660759    0.342078    5.872971
     65          1           0        8.977489    3.651928    6.278851
     66          1           0        9.973539    3.136058    4.875108
     67          1           0        9.799927    2.104108    6.198706
     68          1           0        6.536594    1.074777    7.021618
     69          1           0        6.576542   -0.619862    6.547858
     70          1           0        5.145506    1.686771    5.462377
     71          1           0        4.492772    0.046566    5.794580
     72          1           0        5.477409    0.406821    4.306153
     73          1           0        7.562055   -5.290170    3.252512
     74          1           0        7.914639   -4.027210    4.485266
     75          1           0        9.277434   -4.706078    3.501655
     76          1           0        9.682071   -4.086862   -1.560194
     77          1           0        7.913521   -6.441209   -4.714363
     78          1           0        7.651157   -4.701224   -5.333515
     79          1           0        6.536286   -5.583864   -4.273448
     80         12           0       -7.759551    0.283120   -0.969701
     81          6           0       -9.260811   -1.549835    1.725764
     82          6           0       -9.686855    2.939018   -0.038948
     83          6           0       -6.795584    1.776651   -3.597931
     84          6           0       -6.840843   -2.779367   -2.356346
     85          7           0       -9.242880    0.539058    0.650938
     86          6           0       -9.686003   -0.207025    1.651612
     87          6           0      -10.575627    0.550303    2.673655
     88          6           0      -11.085075    1.735464    1.717229
     89          6           0       -9.919869    1.771206    0.730466
     90          6           0      -12.350095    1.388126    0.950157
     91          6           0       -9.751059    1.105977    3.887466
     92          6           0      -10.593486    1.584907    5.071813
     93          1           0      -10.076011    1.380329    6.421946
     94          7           0       -7.792609    2.211807   -1.436247
     95          6           0       -8.626393    3.153260   -0.946611
     96          6           0       -8.257712    4.407428   -1.621382
     97          6           0       -7.248266    4.096807   -2.669831
     98          6           0       -7.255225    2.648463   -2.621596
     99          6           0       -8.790025    5.745834   -1.198605
    100          6           0       -6.423720    4.960079   -3.575968
    101          8           0       -5.786094    4.471619   -4.574808
    102          6           0       -6.459879    6.406518   -3.315188
    103          7           0       -7.123969   -0.400661   -2.827340
    104          6           0       -6.710412    0.458134   -3.775677
    105          6           0       -6.043882   -0.270422   -4.918188
    106          6           0       -5.879269   -1.782951   -4.425485
    107          6           0       -6.590917   -1.682651   -3.058412
    108          6           0       -6.794366   -0.247975   -6.249599
    109          6           0       -4.448748   -2.386409   -4.471597
    110          6           0       -3.563513   -1.693613   -3.460764
    111          7           0       -7.827714   -1.786480   -0.353141
    112          6           0       -7.413923   -2.912502   -1.098078
    113          6           0       -7.763421   -4.110231   -0.307058
    114          6           0       -8.381982   -3.594690    0.841897
    115          6           0       -8.433740   -2.176760    0.762602
    116          6           0       -7.547187   -5.460459   -0.702358
    117          6           0       -9.012443   -3.928093    2.098890
    118          8           0       -9.177190   -4.965232    2.739939
    119          6           0       -9.723080   -2.625625    2.668954
    120          6           0       -9.352052   -2.491659    4.120469
    121          8           0       -8.174484   -2.271112    4.454081
    122          8           0      -10.475369   -2.429109    4.858451
    123          6           0      -10.159284   -2.284743    6.304497
    124          1           0      -10.407181    3.755031    0.025426
    125          1           0       -6.350849    2.246611   -4.478176
    126          1           0       -6.499677   -3.766731   -2.674781
    127          1           0      -11.420774   -0.015401    3.047125
    128          1           0      -11.156275    2.675957    2.257378
    129          1           0      -12.632624    0.354725    1.085873
    130          1           0      -12.126973    1.585855   -0.090118
    131          1           0      -13.156252    2.075748    1.221460
    132          1           0       -9.280042    2.053719    3.596488
    133          1           0       -9.033372    0.382999    4.223411
    134          1           0      -11.633383    1.243130    5.002933
    135          1           0      -10.665972    2.674333    5.028088
    136          1           0       -9.637873    5.642349   -0.510249
    137          1           0       -9.219750    6.215189   -2.090188
    138          1           0       -8.013911    6.399280   -0.794488
    139          1           0       -7.485897    6.760204   -3.383282
    140          1           0       -5.739676    6.846420   -4.007772
    141          1           0       -6.133409    6.584446   -2.284473
    142          1           0       -5.062996    0.142107   -5.120153
    143          1           0       -6.472167   -2.477871   -5.038172
    144          1           0       -6.196203    0.170811   -7.080795
    145          1           0       -7.708111    0.315947   -6.116901
    146          1           0       -7.166042   -1.214164   -6.586563
    147          1           0       -3.996019   -2.213152   -5.450974
    148          1           0       -4.425041   -3.455813   -4.290487
    149          1           0       -3.240490   -0.793163   -3.991723
    150          1           0       -2.715420   -2.323152   -3.199107
    151          1           0       -4.141495   -1.371461   -2.586803
    152          1           0       -7.162525   -5.980891    0.164639
    153          1           0       -6.858828   -5.523362   -1.542586
    154          1           0       -8.564354   -5.746895   -0.982686
    155          1           0      -10.797618   -2.751753    2.531024
    156          1           0      -10.664790   -3.103806    6.825358
    157          1           0      -10.459354   -1.254797    6.574521
    158          1           0       -9.131685   -2.441466    6.610989
 ---------------------------------------------------------------------

 SCF Done:  E(RCAM-B3LYP) =  -4069.81176066     A.U. after   19 cycles

 Excitation energies and oscillator strengths:

 Excited State   1:      Singlet-A      1.6698 eV  742.53 nm  f=0.0189  <S**2>=0.000
     309 -> 315       -0.10338
     310 -> 316        0.13796
     311 -> 313        0.55033
     312 -> 314       -0.41015
 This state for optimization and/or second-order correction.
 Total Energy, E(TD-HF/TD-DFT) =  -4069.75039843
 Copying the excited state density for this state as the 1-particle RhoCI density.

 Excited State   2:      Singlet-A      1.6850 eV  735.79 nm  f=0.7387  <S**2>=0.000
     309 -> 315        0.14183
     310 -> 316        0.10513
     311 -> 313        0.40964
     312 -> 314        0.54952

 Excited State   3:      Singlet-A      2.1854 eV  567.32 nm  f=0.0700  <S**2>=0.000
     309 -> 314        0.11344
     310 -> 313        0.63259
     311 -> 316       -0.26842

 Excited State   4:      Singlet-A      2.1926 eV  565.45 nm  f=0.1255  <S**2>=0.000
     309 -> 314        0.63071
     310 -> 313       -0.11261
     312 -> 315       -0.27399

 Excited State   5:      Singlet-A      2.8046 eV  442.07 nm  f=0.0000  <S**2>=0.000
     312 -> 313        0.70710

 The electronic state is 1-A.
 Alpha  occ. eigenvalues --  -46.87703 -46.87591 -19.26288 -19.26213 -19.19094
 Alpha  occ. eigenvalues --  -19.18944 -19.18729 -19.18667 -19.18081 -19.17983
 Alpha  occ. eigenvalues --  -14.42431 -14.42359 -14.41356 -14.41288 -14.39310
 Alpha  occ. eigenvalues --  -14.39285 -14.38529 -14.38493 -10.39025 -10.39003
 Alpha  occ. eigenvalues --  -10.35363 -10.35346 -10.34301 -10.34160 -10.31699
 Alpha  occ. eigenvalues --  -10.31618 -10.31315 -10.31241 -10.30963 -10.30822
 Alpha  occ. eigenvalues --  -10.30477 -10.30414 -10.30328 -10.30290 -10.30113
 Alpha  occ. eigenvalues --  -10.30071 -10.29826 -10.29821 -10.29538 -10.29371
 Alpha  occ. eigenvalues --  -10.29334 -10.29162 -10.28669 -10.28662 -10.28604
 Alpha  occ. eigenvalues --  -10.28470 -10.28340 -10.28274 -10.28084 -10.28035
 Alpha  occ. eigenvalues --  -10.27933 -10.27701 -10.27636 -10.27604 -10.27493
 Alpha  occ. eigenvalues --  -10.27432 -10.27418 -10.27416 -10.27402 -10.27400
 Alpha  occ. eigenvalues --  -10.27394 -10.27354 -10.27314 -10.27302 -10.27075
 Alpha  occ. eigenvalues --  -10.26986 -10.26636 -10.26627 -10.26384 -10.26329
 Alpha  occ. eigenvalues --  -10.26158 -10.26068 -10.26020 -10.25975 -10.25923
 Alpha  occ. eigenvalues --  -10.25858 -10.25761 -10.25741 -10.25349 -10.25342
 Alpha  occ. eigenvalues --  -10.24804 -10.24741 -10.24696 -10.24623 -10.24584
 Alpha  occ. eigenvalues --  -10.24556  -3.16446  -3.16341  -1.91327  -1.91223
 Alpha  occ. eigenvalues --   -1.90914  -1.90812  -1.90756  -1.90648  -1.16581
 Alpha  occ. eigenvalues --   -1.16561  -1.08589  -1.08539  -1.07131  -1.06920
 Alpha  occ. eigenvalues --   -1.06880  -1.06566  -1.04491  -1.04430  -1.03668
 Alpha  occ. eigenvalues --   -1.03595  -1.03141  -1.02969  -1.02318  -1.02042
 Alpha  occ. eigenvalues --   -0.91920  -0.91883  -0.89420  -0.89413  -0.89105
 Alpha  occ. eigenvalues --   -0.89092  -0.88190  -0.88140  -0.87775  -0.87719
 Alpha  occ. eigenvalues --   -0.87618  -0.87583  -0.87185  -0.87064  -0.84939
 Alpha  occ. eigenvalues --   -0.84898  -0.83837  -0.83790  -0.82878  -0.82875
 Alpha  occ. eigenvalues --   -0.82593  -0.82564  -0.81530  -0.81503  -0.80510
 Alpha  occ. eigenvalues --   -0.80378  -0.78706  -0.78572  -0.77127  -0.77077
 Alpha  occ. eigenvalues --   -0.76850  -0.76829  -0.75840  -0.75776  -0.74806
 Alpha  occ. eigenvalues --   -0.74731  -0.72681  -0.72628  -0.71584  -0.71517
 Alpha  occ. eigenvalues --   -0.69801  -0.69661  -0.68788  -0.68765  -0.67552
 Alpha  occ. eigenvalues --   -0.67537  -0.67144  -0.67137  -0.65209  -0.65201
 Alpha  occ. eigenvalues --   -0.64765  -0.64700  -0.64587  -0.64532  -0.64172
 Alpha  occ. eigenvalues --   -0.64123  -0.62216  -0.62211  -0.60351  -0.60278
 Alpha  occ. eigenvalues --   -0.59735  -0.59718  -0.58924  -0.58896  -0.58414
 Alpha  occ. eigenvalues --   -0.58357  -0.57499  -0.57487  -0.57217  -0.57167
 Alpha  occ. eigenvalues --   -0.56220  -0.56137  -0.55901  -0.55824  -0.55433
 Alpha  occ. eigenvalues --   -0.55394  -0.55247  -0.55171  -0.54434  -0.54410
 Alpha  occ. eigenvalues --   -0.53854  -0.53813  -0.53208  -0.53161  -0.53137
 Alpha  occ. eigenvalues --   -0.53080  -0.52836  -0.52828  -0.52671  -0.52618
 Alpha  occ. eigenvalues --   -0.52330  -0.52295  -0.51818  -0.51804  -0.51602
 Alpha  occ. eigenvalues --   -0.51534  -0.51128  -0.51105  -0.50485  -0.50423
 Alpha  occ. eigenvalues --   -0.49934  -0.49919  -0.49831  -0.49791  -0.49432
 Alpha  occ. eigenvalues --   -0.49430  -0.49141  -0.49127  -0.49041  -0.49013
 Alpha  occ. eigenvalues --   -0.48508  -0.48495  -0.48370  -0.48359  -0.48305
 Alpha  occ. eigenvalues --   -0.48286  -0.47607  -0.47531  -0.47209  -0.47057
 Alpha  occ. eigenvalues --   -0.46704  -0.46637  -0.46494  -0.46473  -0.46267
 Alpha  occ. eigenvalues --   -0.46200  -0.46072  -0.46015  -0.45752  -0.45735
 Alpha  occ. eigenvalues --   -0.45136  -0.45108  -0.44490  -0.44451  -0.44418
 Alpha  occ. eigenvalues --   -0.44408  -0.44065  -0.44050  -0.44004  -0.43999
 Alpha  occ. eigenvalues --   -0.43933  -0.43883  -0.43482  -0.43410  -0.43322
 Alpha  occ. eigenvalues --   -0.43297  -0.42937  -0.42864  -0.42833  -0.42618
 Alpha  occ. eigenvalues --   -0.42557  -0.42472  -0.41913  -0.41879  -0.41615
 Alpha  occ. eigenvalues --   -0.41601  -0.41449  -0.41391  -0.41054  -0.40926
 Alpha  occ. eigenvalues --   -0.40781  -0.40738  -0.40669  -0.40633  -0.40475
 Alpha  occ. eigenvalues --   -0.40412  -0.40173  -0.40155  -0.39332  -0.39323
 Alpha  occ. eigenvalues --   -0.38374  -0.38275  -0.37667  -0.37594  -0.37225
 Alpha  occ. eigenvalues --   -0.37191  -0.37178  -0.37136  -0.36704  -0.36631
 Alpha  occ. eigenvalues --   -0.36145  -0.36105  -0.34194  -0.34184  -0.33795
 Alpha  occ. eigenvalues --   -0.33691  -0.33107  -0.33095  -0.31259  -0.31225
 Alpha  occ. eigenvalues --   -0.30945  -0.30907  -0.29940  -0.29887  -0.29357
 Alpha  occ. eigenvalues --   -0.29264  -0.29229  -0.29142  -0.23988  -0.23968
 Alpha  occ. eigenvalues --   -0.21049  -0.21035
 Alpha virt. eigenvalues --   -0.08725  -0.08682  -0.01657  -0.01617   0.00028
 Alpha virt. eigenvalues --    0.00030   0.02277   0.02292   0.03231   0.03312
 Alpha virt. eigenvalues --    0.04793   0.04804   0.05176   0.05231   0.06238

 Mulliken charges:
               1
     1  Mg   0.839024
     2  C   -0.003002
     3  C   -0.094130
     4  C   -0.045856
     5  C   -0.063854
     6  N   -0.256779
     7  C   -0.052487
     8  C   -0.014021
     9  C   -0.087004
    10  C    0.046325
    11  C    0.104842
    12  C    0.053460
    13  C   -0.071680
    14  H    0.035815
    15  N   -0.433113
    16  C    0.168442
    17  C   -0.177173
    18  C   -0.004034
    19  C    0.148763
    20  C    0.110200
    21  C    0.012307
    22  O   -0.249750
    23  C    0.062455
    24  N   -0.341172
    25  C    0.041261
    26  C   -0.028131
    27  C   -0.024020
    28  C    0.074941
    29  C    0.076236
    30  C    0.035082
    31  C   -0.004550
    32  N   -0.310513
    33  C    0.080513
    34  C   -0.169498
    35  C    0.008329
    36  C    0.083096
    37  C    0.127258
    38  C    0.046183
    39  O   -0.188463
    40  C   -0.005381
    41  C    0.212878
    42  O   -0.257072
    43  O   -0.304802
    44  C    0.157767
    45  H   -0.017743
    46  H   -0.016930
    47  H   -0.041333
    48  H    0.000823
    49  H   -0.004077
    50  H    0.025408
    51  H    0.016427
    52  H    0.016525
    53  H    0.011364
    54  H    0.044092
    55  H    0.017791
    56  H    0.017995
    57  H    0.005811
    58  H    0.026633
    59  H    0.039663
    60  H    0.037231
    61  H    0.035424
    62  H    0.031703
    63  H    0.016591
    64  H    0.009359
    65  H    0.023077
    66  H    0.012410
    67  H    0.004678
    68  H    0.006255
    69  H    0.004900
    70  H    0.008647
    71  H    0.018825
    72  H    0.029025
    73  H    0.047804
    74  H    0.009327
    75  H    0.045858
    76  H    0.035038
    77  H    0.042858
    78  H    0.046317
    79  H    0.053532
    80  Mg   0.838072
    81  C   -0.016848
    82  C   -0.087890
    83  C   -0.045536
    84  C   -0.064712
    85  N   -0.254568
    86  C   -0.049795
    87  C   -0.015109
    88  C   -0.090486
    89  C    0.045741
    90  C    0.114422
    91  C    0.062545
    92  C   -0.077839
    93  H    0.034847
    94  N   -0.423422
    95  C    0.162877
    96  C   -0.174763
    97  C   -0.007948
    98  C    0.152126
    99  C    0.099422
   100  C    0.015493
   101  O   -0.253494
   102  C    0.061251
   103  N   -0.350123
   104  C    0.037573
   105  C   -0.019728
   106  C   -0.034918
   107  C    0.089106
   108  C    0.073771
   109  C    0.034665
   110  C   -0.007854
   111  N   -0.324180
   112  C    0.078666
   113  C   -0.162742
   114  C    0.002249
   115  C    0.096390
   116  C    0.131394
   117  C    0.042546
   118  O   -0.187756
   119  C    0.000841
   120  C    0.211246
   121  O   -0.250826
   122  O   -0.305699
   123  C    0.152048
   124  H   -0.019876
   125  H   -0.015804
   126  H   -0.040058
   127  H   -0.000729
   128  H   -0.004427
   129  H    0.022400
   130  H    0.014368
   131  H    0.016111
   132  H    0.013961
   133  H    0.037788
   134  H    0.020690
   135  H    0.019516
   136  H    0.008675
   137  H    0.025877
   138  H    0.039666
   139  H    0.038155
   140  H    0.035939
   141  H    0.033960
   142  H    0.014367
   143  H    0.012278
   144  H    0.024805
   145  H    0.011428
   146  H    0.005591
   147  H    0.006048
   148  H    0.004127
   149  H    0.010507
   150  H    0.019721
   151  H    0.029942
   152  H    0.046426
   153  H    0.008984
   154  H    0.046749
   155  H    0.034886
   156  H    0.043840
   157  H    0.049384
   158  H    0.053651
 Sum of Mulliken charges =  -0.00000

 Dipole moment (field-independent basis, Debye):
    X=             -0.2213    Y=              6.8692    Z=             -2.8106  Tot=              7.4252
 Quadrupole moment (field-independent basis, Debye-Ang):
   XX=           -432.3047   YY=           -536.0957   ZZ=           -474.3966
   XY=            -19.0141   XZ=            -27.7363   YZ=             15.3655

 Normal termination of Gaussian 16 at Sat Sep 11 21:21:11 2021.
