 Gaussian 16, Revision A.03,
 Gaussian 16:  ES64L-G16RevA.03 25-Dec-2016

 -----------------------------------
 #p cam-b3lyp/Def2SVP td=(nstates=5)
 -----------------------------------

 --------------------------------
 TDDFT excited states in gaussian
 --------------------------------
 Symbolic Z-matrix:
 Charge =  0 Multiplicity = 1

                         Standard orientation:
 ---------------------------------------------------------------------
 Center     Atomic      Atomic             Coordinates (Angstroms)
 Number     Number       Type             X           Y           Z
 ---------------------------------------------------------------------
      1         12           0      -15.709276   -0.836394    0.150642
      2          6           0      -15.928033    2.734442    0.266787
      3          6           0      -16.598872   -0.635296   -3.137403
      4          6           0      -15.965871   -3.997193    0.139123
      5          6           0      -15.956333   -0.817205    3.626884
      6          7           0      -16.175881    0.888276   -1.156430
      7          6           0      -16.165127    2.208968   -1.005341
      8          6           0      -16.354935    2.985378   -2.342701
      9          6           0      -17.106001    1.858199   -3.183751
     10          6           0      -16.568840    0.627560   -2.474588
     11          6           0      -18.623017    1.891499   -3.028646
     12          6           0      -14.989643    3.377514   -3.001441
     13          6           0      -15.080652    4.410945   -4.127981
     14          1           0      -14.010131    5.385918   -4.272065
     15          7           0      -15.729311   -2.114683   -1.355487
     16          6           0      -16.105082   -1.857149   -2.631324
     17          6           0      -15.942527   -3.128618   -3.368631
     18          6           0      -15.623042   -4.192344   -2.376407
     19          6           0      -15.787898   -3.473155   -1.139085
     20          6           0      -16.042614   -3.233837   -4.859491
     21          6           0      -15.241543   -5.631760   -2.520191
     22          8           0      -15.234301   -6.436035   -1.526378
     23          6           0      -14.958351   -6.102842   -3.888009
     24          7           0      -16.149845   -2.230770    1.640356
     25          6           0      -16.139361   -3.543084    1.382076
     26          6           0      -16.201964   -4.348794    2.645742
     27          6           0      -16.011877   -3.309178    3.842747
     28          6           0      -15.951416   -2.002781    3.013326
     29          6           0      -17.492798   -5.149697    2.865546
     30          6           0      -14.870034   -3.597139    4.849570
     31          6           0      -13.530721   -3.445212    4.163818
     32          7           0      -15.729825    0.671876    1.711330
     33          6           0      -15.863796    0.456234    3.090541
     34          6           0      -15.931599    1.782802    3.730611
     35          6           0      -15.848487    2.683773    2.670805
     36          6           0      -15.762325    1.965406    1.444095
     37          6           0      -16.112391    2.029362    5.120200
     38          6           0      -15.837231    4.086164    2.287361
     39          8           0      -15.790344    5.152809    2.901822
     40          6           0      -16.011008    4.174904    0.706932
     41          6           0      -14.970549    5.129709    0.188182
     42          8           0      -13.756503    4.846972    0.247495
     43          8           0      -15.571797    6.108648   -0.505159
     44          6           0      -14.593225    7.074427   -1.072453
     45          1           0      -17.097242   -0.711417   -4.105790
     46          1           0      -15.948476   -5.087814    0.190894
     47          1           0      -15.948552   -0.732253    4.715082
     48          1           0      -16.982249    3.873764   -2.267392
     49          1           0      -16.798284    1.857631   -4.229232
     50          1           0      -18.929669    2.604042   -2.263030
     51          1           0      -18.908651    0.879008   -2.742697
     52          1           0      -19.106405    2.079647   -3.987663
     53          1           0      -14.603127    2.526066   -3.561531
     54          1           0      -14.283842    3.727471   -2.247318
     55          1           0      -16.052052    4.906131   -4.137078
     56          1           0      -15.036973    3.882645   -5.080447
     57          1           0      -16.449485   -2.323880   -5.298785
     58          1           0      -16.789779   -3.997287   -5.075356
     59          1           0      -15.092111   -3.510180   -5.316119
     60          1           0      -15.838073   -5.945114   -4.512316
     61          1           0      -14.616244   -7.132190   -3.786739
     62          1           0      -14.164945   -5.489163   -4.315625
     63          1           0      -15.399406   -5.084393    2.680668
     64          1           0      -16.903479   -3.235385    4.465863
     65          1           0      -17.326971   -6.218556    3.002471
     66          1           0      -18.154125   -4.961688    2.020212
     67          1           0      -18.105467   -4.809264    3.699906
     68          1           0      -14.931597   -4.623677    5.209260
     69          1           0      -14.886707   -2.939579    5.718815
     70          1           0      -13.391315   -4.413632    3.684692
     71          1           0      -12.746742   -3.256367    4.897934
     72          1           0      -13.570424   -2.693992    3.374782
     73          1           0      -15.416563    2.826517    5.381611
     74          1           0      -15.925743    1.131677    5.709205
     75          1           0      -17.159928    2.329740    5.137371
     76          1           0      -17.023409    4.532890    0.522507
     77          1           0      -14.876600    8.064982   -0.716457
     78          1           0      -14.582407    6.907885   -2.149742
     79          1           0      -13.572497    7.004288   -0.694916
     80         12           0       16.045920   -0.683853    0.012515
     81          6           0       15.184555    2.793771    0.220307
     82          6           0       14.590933   -0.706352   -3.072464
     83          6           0       16.386038   -3.838372   -0.015509
     84          6           0       16.385827   -0.664119    3.480914
     85          7           0       15.051073    0.901718   -1.165815
     86          6           0       14.837391    2.199683   -1.010940
     87          6           0       14.290531    2.916766   -2.274384
     88          6           0       13.624183    1.649068   -3.000899
     89          6           0       14.494212    0.542487   -2.408270
     90          6           0       12.184975    1.402080   -2.580161
     91          6           0       15.433487    3.543988   -3.147470
     92          6           0       14.957144    4.519654   -4.225860
     93          1           0       15.792958    5.676135   -4.536421
     94          7           0       16.010957   -1.965926   -1.501968
     95          6           0       15.391354   -1.805168   -2.690045
     96          6           0       15.648623   -3.039345   -3.448202
     97          6           0       16.331402   -4.008657   -2.548780
     98          6           0       16.248824   -3.300726   -1.286991
     99          6           0       15.326546   -3.179872   -4.907628
    100          6           0       16.944391   -5.356145   -2.782750
    101          8           0       17.270726   -6.125368   -1.810826
    102          6           0       17.065281   -5.787162   -4.183141
    103          7           0       16.136092   -2.105779    1.526570
    104          6           0       16.341693   -3.404205    1.244195
    105          6           0       16.644076   -4.193361    2.495671
    106          6           0       16.838018   -3.106426    3.652620
    107          6           0       16.511945   -1.825503    2.853667
    108          6           0       15.577372   -5.202715    2.919637
    109          6           0       18.168278   -3.159961    4.452747
    110          6           0       19.325536   -2.783541    3.555833
    111          7           0       16.013535    0.813202    1.570013
    112          6           0       16.150927    0.601695    2.959431
    113          6           0       15.945677    1.906615    3.620858
    114          6           0       15.678228    2.789364    2.563646
    115          6           0       15.694302    2.080462    1.332102
    116          6           0       15.969455    2.140545    5.024723
    117          6           0       15.375474    4.157668    2.210376
    118          8           0       15.319303    5.221623    2.825653
    119          6           0       14.917427    4.197244    0.688851
    120          6           0       15.658964    5.315775    0.009499
    121          8           0       16.893930    5.263836   -0.127435
    122          8           0       14.770914    6.153566   -0.556059
    123          6           0       15.458711    7.273755   -1.251710
    124          1           0       13.962982   -0.878879   -3.946991
    125          1           0       16.615591   -4.905760    0.022822
    126          1           0       16.572049   -0.555635    4.551534
    127          1           0       13.537972    3.671145   -2.078603
    128          1           0       13.752726    1.699017   -4.079017
    129          1           0       11.884711    2.051192   -1.771064
    130          1           0       12.142882    0.366265   -2.269735
    131          1           0       11.520014    1.484896   -3.444618
    132          1           0       15.870040    2.761605   -3.781529
    133          1           0       16.168172    4.020583   -2.528021
    134          1           0       13.916008    4.828228   -4.071710
    135          1           0       14.942411    3.996502   -5.185086
    136          1           0       14.681077   -2.364755   -5.257426
    137          1           0       14.710168   -4.079125   -5.013911
    138          1           0       16.219182   -3.287978   -5.527453
    139          1           0       16.080149   -5.799951   -4.643367
    140          1           0       17.607118   -6.734412   -4.151614
    141          1           0       17.657619   -5.043703   -4.728133
    142          1           0       17.562536   -4.756683    2.385181
    143          1           0       16.065485   -3.196893    4.430344
    144          1           0       15.964413   -6.235367    3.008565
    145          1           0       14.765272   -5.161138    2.205971
    146          1           0       15.072920   -4.975151    3.857157
    147          1           0       18.361787   -4.178514    4.798070
    148          1           0       18.172768   -2.517276    5.326777
    149          1           0       19.554435   -3.721705    3.041501
    150          1           0       20.172410   -2.440581    4.146783
    151          1           0       19.014215   -2.058096    2.795262
    152          1           0       16.532917    3.051132    5.179117
    153          1           0       16.411714    1.302858    5.559939
    154          1           0       14.898876    2.236230    5.224662
    155          1           0       13.838182    4.354155    0.675613
    156          1           0       15.056246    8.202892   -0.836477
    157          1           0       15.302151    7.095512   -2.332200
    158          1           0       16.519075    7.401987   -1.068311
 ---------------------------------------------------------------------

 SCF Done:  E(RCAM-B3LYP) =  -4069.81176996     A.U. after   19 cycles

 Excitation energies and oscillator strengths:

 Excited State   1:      Singlet-A      1.6753 eV  740.07 nm  f=0.2098  <S**2>=0.000
     310 -> 316        0.16845
     311 -> 314       -0.16474
     312 -> 313        0.66598
     310 <- 316        0.10155
 This state for optimization and/or second-order correction.
 Total Energy, E(TD-HF/TD-DFT) =  -4069.75020356
 Copying the excited state density for this state as the 1-particle RhoCI density.

 Excited State   2:      Singlet-A      1.6801 eV  737.96 nm  f=0.5675  <S**2>=0.000
     309 -> 315        0.17047
     311 -> 314        0.66561
     312 -> 313        0.16469
     309 <- 315        0.10206

 Excited State   3:      Singlet-A      2.1861 eV  567.15 nm  f=0.0956  <S**2>=0.000
     310 -> 313        0.64212
     312 -> 316       -0.27295

 Excited State   4:      Singlet-A      2.1925 eV  565.49 nm  f=0.1046  <S**2>=0.000
     309 -> 314        0.64035
     311 -> 315       -0.27814

 Excited State   5:      Singlet-A      3.0655 eV  404.45 nm  f=0.0000  <S**2>=0.000
     312 -> 314        0.70711

 The electronic state is 1-A.
 Alpha  occ. eigenvalues --  -46.87801 -46.87660 -19.26346 -19.26287 -19.19158
 Alpha  occ. eigenvalues --  -19.19023 -19.18821 -19.18715 -19.18173 -19.18049
 Alpha  occ. eigenvalues --  -14.42497 -14.42454 -14.41454 -14.41359 -14.39407
 Alpha  occ. eigenvalues --  -14.39352 -14.38599 -14.38591 -10.39088 -10.39083
 Alpha  occ. eigenvalues --  -10.35454 -10.35393 -10.34393 -10.34226 -10.31752
 Alpha  occ. eigenvalues --  -10.31682 -10.31409 -10.31308 -10.31023 -10.30914
 Alpha  occ. eigenvalues --  -10.30574 -10.30512 -10.30397 -10.30360 -10.30211
 Alpha  occ. eigenvalues --  -10.30141 -10.29924 -10.29894 -10.29635 -10.29437
 Alpha  occ. eigenvalues --  -10.29401 -10.29259 -10.28754 -10.28717 -10.28653
 Alpha  occ. eigenvalues --  -10.28545 -10.28404 -10.28369 -10.28138 -10.28121
 Alpha  occ. eigenvalues --  -10.28000 -10.27797 -10.27732 -10.27669 -10.27589
 Alpha  occ. eigenvalues --  -10.27518 -10.27504 -10.27488 -10.27483 -10.27468
 Alpha  occ. eigenvalues --  -10.27465 -10.27453 -10.27408 -10.27376 -10.27162
 Alpha  occ. eigenvalues --  -10.27048 -10.26711 -10.26692 -10.26418 -10.26417
 Alpha  occ. eigenvalues --  -10.26239 -10.26187 -10.26138 -10.26023 -10.26021
 Alpha  occ. eigenvalues --  -10.25934 -10.25849 -10.25845 -10.25439 -10.25398
 Alpha  occ. eigenvalues --  -10.24872 -10.24837 -10.24792 -10.24732 -10.24690
 Alpha  occ. eigenvalues --  -10.24690  -3.16544  -3.16410  -1.91425  -1.91292
 Alpha  occ. eigenvalues --   -1.91012  -1.90881  -1.90854  -1.90718  -1.16640
 Alpha  occ. eigenvalues --   -1.16636  -1.08656  -1.08630  -1.07222  -1.06968
 Alpha  occ. eigenvalues --   -1.06943  -1.06646  -1.04585  -1.04494  -1.03765
 Alpha  occ. eigenvalues --   -1.03663  -1.03238  -1.03039  -1.02415  -1.02111
 Alpha  occ. eigenvalues --   -0.91986  -0.91976  -0.89523  -0.89494  -0.89193
 Alpha  occ. eigenvalues --   -0.89150  -0.88291  -0.88220  -0.87874  -0.87793
 Alpha  occ. eigenvalues --   -0.87683  -0.87677  -0.87279  -0.87121  -0.84999
 Alpha  occ. eigenvalues --   -0.84987  -0.83940  -0.83876  -0.82973  -0.82933
 Alpha  occ. eigenvalues --   -0.82653  -0.82652  -0.81594  -0.81589  -0.80601
 Alpha  occ. eigenvalues --   -0.80442  -0.78802  -0.78636  -0.77223  -0.77144
 Alpha  occ. eigenvalues --   -0.76938  -0.76897  -0.75927  -0.75837  -0.74902
 Alpha  occ. eigenvalues --   -0.74802  -0.72778  -0.72698  -0.71676  -0.71580
 Alpha  occ. eigenvalues --   -0.69911  -0.69758  -0.68878  -0.68826  -0.67646
 Alpha  occ. eigenvalues --   -0.67601  -0.67225  -0.67199  -0.65291  -0.65270
 Alpha  occ. eigenvalues --   -0.64858  -0.64769  -0.64653  -0.64625  -0.64273
 Alpha  occ. eigenvalues --   -0.64204  -0.62301  -0.62276  -0.60447  -0.60340
 Alpha  occ. eigenvalues --   -0.59809  -0.59795  -0.58992  -0.58991  -0.58508
 Alpha  occ. eigenvalues --   -0.58425  -0.57588  -0.57552  -0.57313  -0.57236
 Alpha  occ. eigenvalues --   -0.56314  -0.56204  -0.55982  -0.55884  -0.55525
 Alpha  occ. eigenvalues --   -0.55451  -0.55343  -0.55247  -0.54527  -0.54487
 Alpha  occ. eigenvalues --   -0.53911  -0.53900  -0.53303  -0.53227  -0.53227
 Alpha  occ. eigenvalues --   -0.53141  -0.52919  -0.52901  -0.52762  -0.52669
 Alpha  occ. eigenvalues --   -0.52442  -0.52402  -0.51918  -0.51883  -0.51658
 Alpha  occ. eigenvalues --   -0.51622  -0.51200  -0.51200  -0.50579  -0.50476
 Alpha  occ. eigenvalues --   -0.50035  -0.49979  -0.49924  -0.49867  -0.49520
 Alpha  occ. eigenvalues --   -0.49488  -0.49219  -0.49201  -0.49103  -0.49100
 Alpha  occ. eigenvalues --   -0.48597  -0.48557  -0.48466  -0.48450  -0.48376
 Alpha  occ. eigenvalues --   -0.48339  -0.47699  -0.47594  -0.47301  -0.47118
 Alpha  occ. eigenvalues --   -0.46801  -0.46708  -0.46560  -0.46553  -0.46363
 Alpha  occ. eigenvalues --   -0.46270  -0.46166  -0.46085  -0.45825  -0.45820
 Alpha  occ. eigenvalues --   -0.45209  -0.45205  -0.44581  -0.44513  -0.44512
 Alpha  occ. eigenvalues --   -0.44475  -0.44149  -0.44126  -0.44093  -0.44078
 Alpha  occ. eigenvalues --   -0.44024  -0.43939  -0.43551  -0.43498  -0.43390
 Alpha  occ. eigenvalues --   -0.43385  -0.43031  -0.42929  -0.42900  -0.42703
 Alpha  occ. eigenvalues --   -0.42658  -0.42554  -0.42013  -0.41964  -0.41708
 Alpha  occ. eigenvalues --   -0.41668  -0.41538  -0.41458  -0.41145  -0.40989
 Alpha  occ. eigenvalues --   -0.40874  -0.40829  -0.40722  -0.40698  -0.40575
 Alpha  occ. eigenvalues --   -0.40493  -0.40240  -0.40226  -0.39445  -0.39426
 Alpha  occ. eigenvalues --   -0.38473  -0.38350  -0.37753  -0.37653  -0.37324
 Alpha  occ. eigenvalues --   -0.37268  -0.37266  -0.37199  -0.36769  -0.36717
 Alpha  occ. eigenvalues --   -0.36216  -0.36196  -0.34290  -0.34253  -0.33860
 Alpha  occ. eigenvalues --   -0.33774  -0.33190  -0.33175  -0.31351  -0.31274
 Alpha  occ. eigenvalues --   -0.31040  -0.30972  -0.30032  -0.29953  -0.29454
 Alpha  occ. eigenvalues --   -0.29327  -0.29326  -0.29211  -0.24085  -0.24036
 Alpha  occ. eigenvalues --   -0.21132  -0.21116
 Alpha virt. eigenvalues --   -0.08791  -0.08779  -0.01754  -0.01684  -0.00063
 Alpha virt. eigenvalues --   -0.00029   0.02197   0.02208   0.03118   0.03228
 Alpha virt. eigenvalues --    0.04713   0.04730   0.05095   0.05168   0.06172

 Mulliken charges:
               1
     1  Mg   0.838743
     2  C   -0.002982
     3  C   -0.094131
     4  C   -0.045872
     5  C   -0.063964
     6  N   -0.256769
     7  C   -0.052456
     8  C   -0.014021
     9  C   -0.086998
    10  C    0.046316
    11  C    0.104811
    12  C    0.053478
    13  C   -0.071795
    14  H    0.036112
    15  N   -0.433136
    16  C    0.168422
    17  C   -0.177176
    18  C   -0.004012
    19  C    0.148699
    20  C    0.110183
    21  C    0.012268
    22  O   -0.249628
    23  C    0.062485
    24  N   -0.341173
    25  C    0.041258
    26  C   -0.028175
    27  C   -0.024002
    28  C    0.074886
    29  C    0.076164
    30  C    0.035119
    31  C   -0.004506
    32  N   -0.310472
    33  C    0.080414
    34  C   -0.169692
    35  C    0.008364
    36  C    0.082974
    37  C    0.127307
    38  C    0.046138
    39  O   -0.188399
    40  C   -0.005315
    41  C    0.212864
    42  O   -0.257105
    43  O   -0.304793
    44  C    0.157690
    45  H   -0.017614
    46  H   -0.016841
    47  H   -0.041466
    48  H    0.000952
    49  H   -0.004051
    50  H    0.025486
    51  H    0.016452
    52  H    0.016655
    53  H    0.011180
    54  H    0.044123
    55  H    0.017887
    56  H    0.017927
    57  H    0.005866
    58  H    0.026820
    59  H    0.039508
    60  H    0.037348
    61  H    0.035630
    62  H    0.031469
    63  H    0.016548
    64  H    0.009478
    65  H    0.023211
    66  H    0.012546
    67  H    0.004768
    68  H    0.006376
    69  H    0.004756
    70  H    0.008766
    71  H    0.018164
    72  H    0.028970
    73  H    0.047602
    74  H    0.009128
    75  H    0.046025
    76  H    0.035161
    77  H    0.042972
    78  H    0.046382
    79  H    0.053693
    80  Mg   0.837858
    81  C   -0.016832
    82  C   -0.087780
    83  C   -0.045525
    84  C   -0.064884
    85  N   -0.254571
    86  C   -0.049804
    87  C   -0.015100
    88  C   -0.090520
    89  C    0.045766
    90  C    0.114373
    91  C    0.062533
    92  C   -0.077899
    93  H    0.034898
    94  N   -0.423481
    95  C    0.162916
    96  C   -0.174633
    97  C   -0.007819
    98  C    0.152114
    99  C    0.099370
   100  C    0.015578
   101  O   -0.253189
   102  C    0.061198
   103  N   -0.350071
   104  C    0.037549
   105  C   -0.019851
   106  C   -0.034826
   107  C    0.088932
   108  C    0.073647
   109  C    0.034724
   110  C   -0.007674
   111  N   -0.324111
   112  C    0.078455
   113  C   -0.163118
   114  C    0.002251
   115  C    0.096181
   116  C    0.131485
   117  C    0.042420
   118  O   -0.187806
   119  C    0.000917
   120  C    0.211253
   121  O   -0.251026
   122  O   -0.305615
   123  C    0.152032
   124  H   -0.019655
   125  H   -0.015572
   126  H   -0.040437
   127  H   -0.000602
   128  H   -0.004338
   129  H    0.022517
   130  H    0.014435
   131  H    0.016300
   132  H    0.013899
   133  H    0.037673
   134  H    0.020823
   135  H    0.019573
   136  H    0.008761
   137  H    0.026140
   138  H    0.039776
   139  H    0.038249
   140  H    0.036387
   141  H    0.033892
   142  H    0.014394
   143  H    0.012454
   144  H    0.025134
   145  H    0.011657
   146  H    0.005702
   147  H    0.006267
   148  H    0.003666
   149  H    0.010925
   150  H    0.017933
   151  H    0.030098
   152  H    0.046019
   153  H    0.008513
   154  H    0.047009
   155  H    0.035091
   156  H    0.043954
   157  H    0.049482
   158  H    0.053567
 Sum of Mulliken charges =  -0.00000

 Dipole moment (field-independent basis, Debye):
    X=             -4.3630    Y=             -3.0832    Z=             -7.3056  Tot=              9.0506
 Quadrupole moment (field-independent basis, Debye-Ang):
   XX=           -524.0107   YY=           -555.6434   ZZ=           -446.3473
   XY=            -10.0033   XZ=             17.8201   YZ=            -44.0565

 Normal termination of Gaussian 16 at Sun Sep 12 19:32:08 2021.
