 Gaussian 16, Revision A.03,
 Gaussian 16:  ES64L-G16RevA.03 25-Dec-2016

 -----------------------------------
 #p cam-b3lyp/Def2SVP td=(nstates=5)
 -----------------------------------

 --------------------------------
 TDDFT excited states in gaussian
 --------------------------------
 Symbolic Z-matrix:
 Charge =  0 Multiplicity = 1

                         Standard orientation:
 ---------------------------------------------------------------------
 Center     Atomic      Atomic             Coordinates (Angstroms)
 Number     Number       Type             X           Y           Z
 ---------------------------------------------------------------------
      1         12           0        4.181529   -1.463174    0.184339
      2          6           0        5.260614    1.380680   -1.702534
      3          6           0        5.713940   -0.061606    2.891808
      4          6           0        3.635671   -4.163627    1.754757
      5          6           0        3.745839   -3.124717   -2.848005
      6          7           0        5.309691    0.424657    0.437307
      7          6           0        5.600864    1.455434   -0.350023
      8          6           0        6.234922    2.656365    0.413593
      9          6           0        6.828314    1.871815    1.668330
     10          6           0        5.873008    0.691642    1.690831
     11          6           0        8.245402    1.352525    1.447643
     12          6           0        5.166040    3.713266    0.851978
     13          6           0        5.729822    5.061610    1.309658
     14          1           0        4.986560    6.273317    0.998733
     15          7           0        4.172823   -1.837947    2.124009
     16          6           0        4.841393   -1.154602    3.083874
     17          6           0        4.511964   -1.820344    4.362524
     18          6           0        3.749964   -3.060406    4.046776
     19          6           0        3.846218   -3.084247    2.609576
     20          6           0        4.869960   -1.252905    5.701778
     21          6           0        3.055600   -4.070191    4.904869
     22          8           0        2.654415   -5.193370    4.444331
     23          6           0        2.934565   -3.743115    6.337144
     24          7           0        3.961055   -3.445116   -0.432858
     25          6           0        3.672644   -4.412938    0.444138
     26          6           0        3.284962   -5.683412   -0.252668
     27          6           0        3.132621   -5.311286   -1.798006
     28          6           0        3.563411   -3.825492   -1.726531
     29          6           0        4.266075   -6.854455   -0.104055
     30          6           0        1.782051   -5.655932   -2.474465
     31          6           0        0.682903   -4.794257   -1.894390
     32          7           0        4.275725   -0.935215   -1.918857
     33          6           0        4.081058   -1.791141   -3.012552
     34          6           0        4.353289   -1.005176   -4.230016
     35          6           0        4.705799    0.257017   -3.756252
     36          6           0        4.682330    0.251988   -2.332274
     37          6           0        4.316752   -1.496657   -5.564761
     38          6           0        5.120720    1.601843   -4.121135
     39          8           0        5.224056    2.219661   -5.181850
     40          6           0        5.614565    2.348509   -2.804155
     41          6           0        4.967497    3.706491   -2.781861
     42          8           0        3.733687    3.824934   -2.636778
     43          8           0        5.917492    4.650233   -2.695815
     44          6           0        5.341295    6.020273   -2.639771
     45          1           0        6.355561    0.164666    3.745661
     46          1           0        3.336028   -5.087858    2.253204
     47          1           0        3.548484   -3.552591   -3.832600
     48          1           0        7.037752    3.162931   -0.122392
     49          1           0        6.739262    2.449018    2.588453
     50          1           0        8.566053    1.495829    0.415863
     51          1           0        8.207281    0.290406    1.690424
     52          1           0        8.937168    1.798678    2.162615
     53          1           0        4.694960    3.385026    1.778479
     54          1           0        4.437838    3.878086    0.057068
     55          1           0        6.776937    5.172575    1.026556
     56          1           0        5.741003    5.074901    2.399565
     57          1           0        5.569001   -0.422456    5.610996
     58          1           0        5.429366   -2.021881    6.234177
     59          1           0        3.987873   -0.974290    6.278516
     60          1           0        3.929653   -3.600531    6.759067
     61          1           0        2.332674   -4.537445    6.777163
     62          1           0        2.418713   -2.787861    6.438812
     63          1           0        2.332776   -6.058878    0.119880
     64          1           0        3.875804   -5.816302   -2.415511
     65          1           0        3.814567   -7.753275    0.316622
     66          1           0        5.104509   -6.516524    0.504321
     67          1           0        4.770455   -7.147793   -1.024365
     68          1           0        1.513570   -6.693416   -2.278275
     69          1           0        1.793777   -5.515092   -3.555334
     70          1           0        0.401195   -5.334382   -0.991208
     71          1           0       -0.155908   -4.729538   -2.588234
     72          1           0        1.061839   -3.819574   -1.586351
     73          1           0        3.805637   -0.736743   -6.155743
     74          1           0        3.800597   -2.454857   -5.619904
     75          1           0        5.382202   -1.583455   -5.777219
     76          1           0        6.700248    2.413363   -2.869011
     77          1           0        5.789000    6.590325   -3.453918
     78          1           0        5.498460    6.381187   -1.623186
     79          1           0        4.282302    6.108225   -2.885003
     80         12           0       -4.339917    1.412475    0.601630
     81          6           0       -5.228992   -1.616965   -1.104562
     82          6           0       -3.170138    2.574565   -2.384296
     83          6           0       -3.139485    3.905121    2.155040
     84          6           0       -4.513600   -0.380678    3.584939
     85          7           0       -4.265470    0.503254   -1.413323
     86          6           0       -4.689044   -0.629123   -1.954292
     87          6           0       -4.598509   -0.675329   -3.503245
     88          6           0       -3.438117    0.415576   -3.708936
     89          6           0       -3.653388    1.242997   -2.443355
     90          6           0       -2.039583   -0.176920   -3.660098
     91          6           0       -5.935078   -0.229377   -4.193687
     92          6           0       -6.022329   -0.543134   -5.688906
     93          1           0       -7.318925   -0.916807   -6.247179
     94          7           0       -3.758065    3.186461   -0.071430
     95          6           0       -3.336066    3.485441   -1.317946
     96          6           0       -3.004514    4.918554   -1.297534
     97          6           0       -3.108640    5.404178    0.105335
     98          6           0       -3.323895    4.152054    0.802428
     99          6           0       -2.711191    5.703702   -2.542898
    100          6           0       -3.015484    6.768121    0.719474
    101          8           0       -2.898726    6.929935    1.985584
    102          6           0       -2.970970    7.904820   -0.211882
    103          7           0       -3.684164    1.672669    2.557295
    104          6           0       -3.258203    2.872431    2.989778
    105          6           0       -3.100089    2.886296    4.491508
    106          6           0       -3.742680    1.514368    5.003842
    107          6           0       -4.096342    0.876609    3.642386
    108          6           0       -1.666164    3.000648    5.008413
    109          6           0       -4.855228    1.618016    6.082806
    110          6           0       -6.086001    2.269222    5.494147
    111          7           0       -4.963164   -0.570728    1.190288
    112          6           0       -4.929453   -1.125233    2.488544
    113          6           0       -5.344122   -2.538136    2.369393
    114          6           0       -5.569934   -2.715271    0.996029
    115          6           0       -5.294596   -1.504243    0.305310
    116          6           0       -5.421877   -3.475230    3.438004
    117          6           0       -5.968364   -3.654322   -0.027745
    118          8           0       -6.401223   -4.806004   -0.029207
    119          6           0       -5.643635   -3.020610   -1.448783
    120          6           0       -6.853626   -3.198950   -2.324360
    121          8           0       -7.919502   -2.617311   -2.055654
    122          8           0       -6.493616   -3.847970   -3.446646
    123          6           0       -7.657803   -4.038943   -4.352200
    124          1           0       -2.570128    2.946089   -3.215474
    125          1           0       -2.832038    4.765614    2.753805
    126          1           0       -4.687365   -0.979619    4.481468
    127          1           0       -4.288389   -1.629588   -3.911883
    128          1           0       -3.616611    1.019893   -4.594538
    129          1           0       -2.053097   -1.218768   -3.376358
    130          1           0       -1.497889    0.407577   -2.927991
    131          1           0       -1.528104   -0.015042   -4.613255
    132          1           0       -5.971160    0.867058   -4.229359
    133          1           0       -6.783404   -0.646578   -3.686813
    134          1           0       -5.248190   -1.251890   -6.007206
    135          1           0       -5.797728    0.368207   -6.248402
    136          1           0       -2.545219    5.044782   -3.404099
    137          1           0       -1.745921    6.198186   -2.389222
    138          1           0       -3.468231    6.463042   -2.750192
    139          1           0       -2.116995    7.794345   -0.875953
    140          1           0       -2.995364    8.797868    0.415601
    141          1           0       -3.866246    7.875322   -0.842930
    142          1           0       -3.643561    3.714231    4.929969
    143          1           0       -2.990618    0.861531    5.470795
    144          1           0       -1.511674    3.867092    5.678841
    145          1           0       -0.999938    3.054585    4.157672
    146          1           0       -1.294767    2.124693    5.537524
    147          1           0       -4.527431    2.259702    6.904368
    148          1           0       -5.130993    0.660662    6.512236
    149          1           0       -5.860860    3.337153    5.571061
    150          1           0       -6.970450    2.009659    6.072439
    151          1           0       -6.186938    2.029472    4.429261
    152          1           0       -6.344170   -4.024657    3.303796
    153          1           0       -5.391357   -2.978419    4.405485
    154          1           0       -4.518828   -4.061818    3.249113
    155          1           0       -4.770351   -3.538852   -1.846751
    156          1           0       -7.729970   -5.111382   -4.557964
    157          1           0       -7.477312   -3.371397   -5.215655
    158          1           0       -8.643527   -3.833701   -3.951346
 ---------------------------------------------------------------------

 SCF Done:  E(RCAM-B3LYP) =  -4069.81241354     A.U. after   19 cycles

 Excitation energies and oscillator strengths:

 Excited State   1:      Singlet-A      1.6599 eV  746.92 nm  f=0.1753  <S**2>=0.000
     309 -> 315        0.11444
     310 -> 316        0.12477
     311 -> 313        0.46070
     312 -> 314        0.50916
 This state for optimization and/or second-order correction.
 Total Energy, E(TD-HF/TD-DFT) =  -4069.75141156
 Copying the excited state density for this state as the 1-particle RhoCI density.

 Excited State   2:      Singlet-A      1.6896 eV  733.80 nm  f=0.5004  <S**2>=0.000
     309 -> 315        0.13184
     310 -> 316       -0.11872
     311 -> 313        0.50779
     312 -> 314       -0.45969

 Excited State   3:      Singlet-A      2.1858 eV  567.22 nm  f=0.0682  <S**2>=0.000
     309 -> 313        0.23831
     310 -> 314        0.59717
     312 -> 316       -0.25232

 Excited State   4:      Singlet-A      2.1930 eV  565.36 nm  f=0.1240  <S**2>=0.000
     309 -> 313        0.59510
     310 -> 314       -0.23620
     311 -> 315       -0.25857
     312 -> 316        0.10309

 Excited State   5:      Singlet-A      2.3384 eV  530.22 nm  f=0.0000  <S**2>=0.000
     312 -> 313        0.70708

 The electronic state is 1-A.
 Alpha  occ. eigenvalues --  -46.87918 -46.87434 -19.26504 -19.26208 -19.19260
 Alpha  occ. eigenvalues --  -19.19003 -19.18921 -19.18518 -19.18355 -19.17845
 Alpha  occ. eigenvalues --  -14.42568 -14.42254 -14.41565 -14.41149 -14.39524
 Alpha  occ. eigenvalues --  -14.39116 -14.38726 -14.38376 -10.39308 -10.38931
 Alpha  occ. eigenvalues --  -10.35554 -10.35195 -10.34575 -10.34027 -10.31906
 Alpha  occ. eigenvalues --  -10.31635 -10.31538 -10.31047 -10.31023 -10.30769
 Alpha  occ. eigenvalues --  -10.30712 -10.30640 -10.30308 -10.30190 -10.30116
 Alpha  occ. eigenvalues --  -10.30041 -10.29930 -10.29770 -10.29719 -10.29376
 Alpha  occ. eigenvalues --  -10.29189 -10.29174 -10.28850 -10.28595 -10.28499
 Alpha  occ. eigenvalues --  -10.28463 -10.28452 -10.28219 -10.28163 -10.27937
 Alpha  occ. eigenvalues --  -10.27847 -10.27826 -10.27757 -10.27717 -10.27597
 Alpha  occ. eigenvalues --  -10.27579 -10.27535 -10.27517 -10.27413 -10.27376
 Alpha  occ. eigenvalues --  -10.27333 -10.27287 -10.27259 -10.27227 -10.27088
 Alpha  occ. eigenvalues --  -10.26862 -10.26785 -10.26517 -10.26468 -10.26331
 Alpha  occ. eigenvalues --  -10.26249 -10.26217 -10.26143 -10.26059 -10.26045
 Alpha  occ. eigenvalues --  -10.25723 -10.25633 -10.25613 -10.25485 -10.25392
 Alpha  occ. eigenvalues --  -10.24986 -10.24902 -10.24761 -10.24644 -10.24637
 Alpha  occ. eigenvalues --  -10.24487  -3.16661  -3.16184  -1.91543  -1.91129
 Alpha  occ. eigenvalues --   -1.91066  -1.90972  -1.90655  -1.90491  -1.16855
 Alpha  occ. eigenvalues --   -1.16497  -1.08821  -1.08461  -1.07319  -1.06877
 Alpha  occ. eigenvalues --   -1.06788  -1.06773  -1.04703  -1.04250  -1.03877
 Alpha  occ. eigenvalues --   -1.03438  -1.03363  -1.02824  -1.02537  -1.01889
 Alpha  occ. eigenvalues --   -0.92117  -0.91767  -0.89625  -0.89325  -0.89291
 Alpha  occ. eigenvalues --   -0.88874  -0.88381  -0.88079  -0.88030  -0.87788
 Alpha  occ. eigenvalues --   -0.87565  -0.87441  -0.87397  -0.86860  -0.85089
 Alpha  occ. eigenvalues --   -0.84754  -0.84035  -0.83755  -0.83075  -0.82766
 Alpha  occ. eigenvalues --   -0.82725  -0.82417  -0.81749  -0.81408  -0.80736
 Alpha  occ. eigenvalues --   -0.80234  -0.78929  -0.78381  -0.77333  -0.77055
 Alpha  occ. eigenvalues --   -0.76920  -0.76697  -0.76058  -0.75590  -0.74999
 Alpha  occ. eigenvalues --   -0.74659  -0.72906  -0.72470  -0.71789  -0.71368
 Alpha  occ. eigenvalues --   -0.69992  -0.69633  -0.68987  -0.68587  -0.67772
 Alpha  occ. eigenvalues --   -0.67391  -0.67320  -0.66974  -0.65404  -0.65038
 Alpha  occ. eigenvalues --   -0.64994  -0.64744  -0.64561  -0.64448  -0.64374
 Alpha  occ. eigenvalues --   -0.64040  -0.62470  -0.62104  -0.60557  -0.60120
 Alpha  occ. eigenvalues --   -0.59920  -0.59537  -0.59114  -0.58783  -0.58638
 Alpha  occ. eigenvalues --   -0.58220  -0.57763  -0.57433  -0.57362  -0.57052
 Alpha  occ. eigenvalues --   -0.56454  -0.56149  -0.55970  -0.55696  -0.55650
 Alpha  occ. eigenvalues --   -0.55468  -0.55235  -0.55103  -0.54668  -0.54348
 Alpha  occ. eigenvalues --   -0.54001  -0.53650  -0.53427  -0.53348  -0.53066
 Alpha  occ. eigenvalues --   -0.53024  -0.52922  -0.52869  -0.52686  -0.52529
 Alpha  occ. eigenvalues --   -0.52411  -0.52278  -0.52095  -0.51736  -0.51666
 Alpha  occ. eigenvalues --   -0.51416  -0.51333  -0.51000  -0.50684  -0.50229
 Alpha  occ. eigenvalues --   -0.50123  -0.50030  -0.49767  -0.49665  -0.49636
 Alpha  occ. eigenvalues --   -0.49361  -0.49253  -0.49218  -0.48960  -0.48858
 Alpha  occ. eigenvalues --   -0.48743  -0.48583  -0.48560  -0.48337  -0.48232
 Alpha  occ. eigenvalues --   -0.48118  -0.47813  -0.47418  -0.47367  -0.46916
 Alpha  occ. eigenvalues --   -0.46892  -0.46666  -0.46500  -0.46492  -0.46310
 Alpha  occ. eigenvalues --   -0.46300  -0.46051  -0.45988  -0.45912  -0.45628
 Alpha  occ. eigenvalues --   -0.45298  -0.45071  -0.44738  -0.44612  -0.44318
 Alpha  occ. eigenvalues --   -0.44270  -0.44233  -0.44200  -0.44152  -0.43908
 Alpha  occ. eigenvalues --   -0.43879  -0.43712  -0.43664  -0.43489  -0.43377
 Alpha  occ. eigenvalues --   -0.43170  -0.43157  -0.42891  -0.42761  -0.42758
 Alpha  occ. eigenvalues --   -0.42706  -0.42382  -0.42121  -0.41837  -0.41792
 Alpha  occ. eigenvalues --   -0.41636  -0.41464  -0.41254  -0.41240  -0.40968
 Alpha  occ. eigenvalues --   -0.40923  -0.40764  -0.40667  -0.40513  -0.40487
 Alpha  occ. eigenvalues --   -0.40318  -0.40317  -0.40005  -0.39518  -0.39306
 Alpha  occ. eigenvalues --   -0.38555  -0.38203  -0.37847  -0.37430  -0.37422
 Alpha  occ. eigenvalues --   -0.37380  -0.37084  -0.36956  -0.36899  -0.36621
 Alpha  occ. eigenvalues --   -0.36330  -0.36044  -0.34416  -0.34034  -0.33993
 Alpha  occ. eigenvalues --   -0.33691  -0.33322  -0.32948  -0.31450  -0.31160
 Alpha  occ. eigenvalues --   -0.31080  -0.30751  -0.30216  -0.29756  -0.29584
 Alpha  occ. eigenvalues --   -0.29471  -0.29085  -0.28979  -0.24207  -0.23807
 Alpha  occ. eigenvalues --   -0.21254  -0.20884
 Alpha virt. eigenvalues --   -0.08906  -0.08554  -0.01866  -0.01467  -0.00182
 Alpha virt. eigenvalues --    0.00212   0.02043   0.02403   0.02836   0.03492
 Alpha virt. eigenvalues --    0.04610   0.04883   0.04975   0.05332   0.06086

 Mulliken charges:
               1
     1  Mg   0.838944
     2  C   -0.003225
     3  C   -0.093938
     4  C   -0.045461
     5  C   -0.064274
     6  N   -0.256933
     7  C   -0.052219
     8  C   -0.014209
     9  C   -0.087112
    10  C    0.046726
    11  C    0.104734
    12  C    0.053413
    13  C   -0.072172
    14  H    0.036813
    15  N   -0.433250
    16  C    0.168824
    17  C   -0.177031
    18  C   -0.003693
    19  C    0.149125
    20  C    0.110142
    21  C    0.012469
    22  O   -0.248635
    23  C    0.062500
    24  N   -0.341209
    25  C    0.041491
    26  C   -0.028518
    27  C   -0.023989
    28  C    0.074855
    29  C    0.075971
    30  C    0.034982
    31  C   -0.005249
    32  N   -0.310099
    33  C    0.079828
    34  C   -0.171298
    35  C    0.007681
    36  C    0.082290
    37  C    0.127721
    38  C    0.044774
    39  O   -0.189715
    40  C   -0.004884
    41  C    0.212892
    42  O   -0.258994
    43  O   -0.304202
    44  C    0.158298
    45  H   -0.017225
    46  H   -0.016073
    47  H   -0.041850
    48  H    0.000793
    49  H   -0.003557
    50  H    0.025453
    51  H    0.016513
    52  H    0.017028
    53  H    0.012004
    54  H    0.043575
    55  H    0.017616
    56  H    0.018699
    57  H    0.006276
    58  H    0.027288
    59  H    0.039381
    60  H    0.037623
    61  H    0.036100
    62  H    0.030720
    63  H    0.017695
    64  H    0.009588
    65  H    0.024115
    66  H    0.012432
    67  H    0.004911
    68  H    0.007972
    69  H    0.003854
    70  H    0.011438
    71  H    0.017087
    72  H    0.028057
    73  H    0.045507
    74  H    0.008881
    75  H    0.046503
    76  H    0.035523
    77  H    0.042926
    78  H    0.047467
    79  H    0.051579
    80  Mg   0.837527
    81  C   -0.016631
    82  C   -0.085884
    83  C   -0.045617
    84  C   -0.065169
    85  N   -0.254551
    86  C   -0.050040
    87  C   -0.014987
    88  C   -0.090324
    89  C    0.044513
    90  C    0.113104
    91  C    0.062533
    92  C   -0.077540
    93  H    0.033861
    94  N   -0.423961
    95  C    0.162206
    96  C   -0.170829
    97  C   -0.008291
    98  C    0.153172
    99  C    0.098454
   100  C    0.015660
   101  O   -0.254566
   102  C    0.061124
   103  N   -0.350024
   104  C    0.037495
   105  C   -0.019585
   106  C   -0.034471
   107  C    0.088546
   108  C    0.074383
   109  C    0.034973
   110  C   -0.007512
   111  N   -0.323957
   112  C    0.077875
   113  C   -0.163302
   114  C    0.002095
   115  C    0.095834
   116  C    0.131437
   117  C    0.042078
   118  O   -0.188961
   119  C    0.000939
   120  C    0.211314
   121  O   -0.251105
   122  O   -0.305914
   123  C    0.152135
   124  H   -0.014106
   125  H   -0.016692
   126  H   -0.041345
   127  H   -0.001878
   128  H   -0.003784
   129  H    0.020204
   130  H    0.019002
   131  H    0.018769
   132  H    0.014011
   133  H    0.037105
   134  H    0.020386
   135  H    0.020145
   136  H    0.011299
   137  H    0.029727
   138  H    0.038456
   139  H    0.039202
   140  H    0.035121
   141  H    0.033816
   142  H    0.013941
   143  H    0.010915
   144  H    0.023799
   145  H    0.012016
   146  H    0.003149
   147  H    0.004992
   148  H    0.003367
   149  H    0.010562
   150  H    0.017543
   151  H    0.030844
   152  H    0.045266
   153  H    0.007682
   154  H    0.047900
   155  H    0.034203
   156  H    0.043216
   157  H    0.049621
   158  H    0.053446
 Sum of Mulliken charges =  -0.00000

 Dipole moment (field-independent basis, Debye):
    X=              5.2729    Y=              2.2882    Z=              1.1726  Tot=              5.8664
 Quadrupole moment (field-independent basis, Debye-Ang):
   XX=           -523.0178   YY=           -522.3086   ZZ=           -474.6200
   XY=            -12.7638   XZ=             38.5741   YZ=             15.1642

 Normal termination of Gaussian 16 at Fri Sep  3 19:11:13 2021.
