 Gaussian 16, Revision A.03,
 Gaussian 16:  ES64L-G16RevA.03 25-Dec-2016

 -----------------------------------
 #p cam-b3lyp/Def2SVP td=(nstates=5)
 -----------------------------------

 --------------------------------
 TDDFT excited states in gaussian
 --------------------------------
 Symbolic Z-matrix:
 Charge =  0 Multiplicity = 1

                         Standard orientation:
 ---------------------------------------------------------------------
 Center     Atomic      Atomic             Coordinates (Angstroms)
 Number     Number       Type             X           Y           Z
 ---------------------------------------------------------------------
      1         12           0      -15.792941   -0.715788    0.288435
      2          6           0      -15.995655    2.792088   -0.394152
      3          6           0      -16.713442   -1.248555   -2.953771
      4          6           0      -16.062830   -3.797664    0.985443
      5          6           0      -16.006292    0.080808    3.674521
      6          7           0      -16.264959    0.676283   -1.366854
      7          6           0      -16.247230    1.997268   -1.514694
      8          6           0      -16.446717    2.456561   -2.990034
      9          6           0      -17.210580    1.174719   -3.551634
     10          6           0      -16.671730    0.130220   -2.590080
     11          6           0      -18.725873    1.251268   -3.395010
     12          6           0      -15.086233    2.683163   -3.731294
     13          6           0      -15.183816    3.439447   -5.059400
     14          1           0      -14.110677    4.350928   -5.426718
     15          7           0      -15.832876   -2.298006   -0.893869
     16          6           0      -16.219887   -2.329575   -2.191756
     17          6           0      -16.069779   -3.734582   -2.627767
     18          6           0      -15.745158   -4.551815   -1.425750
     19          6           0      -15.895038   -3.573445   -0.378990
     20          6           0      -16.184715   -4.169473   -4.056546
     21          6           0      -15.371080   -5.989334   -1.247600
     22          8           0      -15.357587   -6.551375   -0.099339
     23          6           0      -15.103096   -6.755749   -2.477980
     24          7           0      -16.224903   -1.739474    2.055667
     25          6           0      -16.222396   -3.076363    2.096977
     26          6           0      -16.276141   -3.579101    3.509176
     27          6           0      -16.070150   -2.299620    4.442048
     28          6           0      -16.012257   -1.211857    3.341280
     29          6           0      -17.568121   -4.302630    3.913285
     30          6           0      -14.919837   -2.362560    5.478020
     31          6           0      -13.586594   -2.375966    4.764310
     32          7           0      -15.792102    1.103035    1.472887
     33          6           0      -15.913630    1.201700    2.866505
     34          6           0      -15.969700    2.638105    3.194626
     35          6           0      -15.893080    3.279097    1.959675
     36          6           0      -15.821783    2.304389    0.923744
     37          6           0      -16.136017    3.189897    4.495510
     38          6           0      -15.879676    4.560334    1.272573
     39          8           0      -15.822397    5.736953    1.632821
     40          6           0      -16.068355    4.294955   -0.286209
     41          6           0      -15.028983    5.103290   -1.013951
     42          8           0      -13.815612    4.833383   -0.903292
     43          8           0      -15.632815    5.906385   -1.903315
     44          6           0      -14.655750    6.714962   -2.680299
     45          1           0      -17.221466   -1.535918   -3.876417
     46          1           0      -16.049489   -4.849264    1.279377
     47          1           0      -15.987634    0.406593    4.716139
     48          1           0      -17.069560    3.343217   -3.109750
     49          1           0      -16.912991    0.938761   -4.573146
     50          1           0      -19.022130    2.118696   -2.805331
     51          1           0      -19.012953    0.330010   -2.887701
     52          1           0      -19.217722    1.223493   -4.367681
     53          1           0      -14.708709    1.725743   -4.090298
     54          1           0      -14.371719    3.188296   -3.080421
     55          1           0      -16.153182    3.926135   -5.170632
     56          1           0      -15.151555    2.711513   -5.870124
     57          1           0      -16.592012   -3.378090   -4.684533
     58          1           0      -16.937113   -4.957180   -4.090064
     59          1           0      -15.239834   -4.546731   -4.447962
     60          1           0      -15.988148   -6.735955   -3.114251
     61          1           0      -14.764328   -7.738593   -2.152244
     62          1           0      -14.311308   -6.258024   -3.038596
     63          1           0      -15.476361   -4.293306    3.700720
     64          1           0      -16.955369   -2.082977    5.040484
     65          1           0      -17.405442   -5.314924    4.284098
     66          1           0      -18.236801   -4.304043    3.052961
     67          1           0      -18.171268   -3.780646    4.655689
     68          1           0      -14.982204   -3.282436    6.058438
     69          1           0      -14.925359   -1.527388    6.178525
     70          1           0      -13.455872   -3.427779    4.512449
     71          1           0      -12.794772   -2.032827    5.431007
     72          1           0      -13.630788   -1.819704    3.827771
     73          1           0      -15.434372    4.020950    4.566329
     74          1           0      -15.947431    2.445284    5.268549
     75          1           0      -17.182075    3.493043    4.454044
     76          1           0      -17.080988    4.609010   -0.537335
     77          1           0      -14.931532    7.761748   -2.552174
     78          1           0      -14.656045    6.311969   -3.693216
     79          1           0      -13.631721    6.724553   -2.305317
     80         12           0       15.961796   -0.793082   -0.147232
     81          6           0       15.779425    2.614686    0.963130
     82          6           0       15.045671    0.321657   -3.237970
     83          6           0       15.674681   -3.822591   -1.045599
     84          6           0       15.737256   -1.748920    3.196673
     85          7           0       15.500781    1.229763   -0.913932
     86          6           0       15.524567    2.456519   -0.415080
     87          6           0       15.339668    3.582491   -1.467481
     88          6           0       14.562493    2.737133   -2.590085
     89          6           0       15.091102    1.343632   -2.256329
     90          6           0       13.054303    2.733126   -2.403855
     91          6           0       16.708789    4.128878   -2.005065
     92          6           0       16.613247    5.433053   -2.799891
     93          1           0       17.699046    6.402183   -2.680303
     94          7           0       15.919045   -1.596042   -1.961613
     95          6           0       15.542250   -0.994074   -3.109190
     96          6           0       15.670075   -2.015549   -4.160110
     97          6           0       15.995299   -3.315801   -3.513352
     98          6           0       15.852003   -2.958432   -2.116269
     99          6           0       15.565369   -1.695489   -5.622987
    100          6           0       16.360690   -4.661824   -4.061897
    101          8           0       16.368865   -5.709965   -3.324222
    102          6           0       16.617785   -4.732780   -5.507704
    103          7           0       15.526061   -2.537852    0.895975
    104          6           0       15.514853   -3.730256    0.274721
    105          6           0       15.451027   -4.863627    1.270621
    106          6           0       15.666575   -4.188464    2.704239
    107          6           0       15.731532   -2.705307    2.278276
    108          6           0       14.152627   -5.670163    1.278246
    109          6           0       16.814148   -4.755769    3.583953
    110          6           0       18.151589   -4.441710    2.953076
    111          7           0       15.974777    0.216063    1.763146
    112          6           0       15.842852   -0.372829    3.039813
    113          6           0       15.794796    0.727779    4.024086
    114          6           0       15.879602    1.890608    3.243619
    115          6           0       15.953536    1.540046    1.868434
    116          6           0       15.638286    0.579281    5.431056
    117          6           0       15.912697    3.335218    3.269661
    118          8           0       15.968839    4.187016    4.155674
    119          6           0       15.721891    3.871906    1.785765
    120          6           0       16.768277    4.922633    1.533699
    121          8           0       17.974541    4.620861    1.511631
    122          8           0       16.165018    6.061372    1.146765
    123          6           0       17.162383    7.130413    0.874295
    124          1           0       14.544862    0.532225   -4.183338
    125          1           0       15.680580   -4.886747   -1.292602
    126          1           0       15.766729   -1.966970    4.266376
    127          1           0       14.728741    4.414946   -1.139513
    128          1           0       14.869834    3.032131   -3.590023
    129          1           0       12.761599    3.203011   -1.476657
    130          1           0       12.759948    1.691796   -2.409692
    131          1           0       12.566311    3.189121   -3.270031
    132          1           0       17.078981    3.457066   -2.790161
    133          1           0       17.413636    4.244263   -1.204754
    134          1           0       15.642186    5.925706   -2.668395
    135          1           0       16.650171    5.193561   -3.865404
    136          1           0       15.157612   -0.690323   -5.786659
    137          1           0       14.809369   -2.367149   -6.043949
    138          1           0       16.507033   -1.845357   -6.155399
    139          1           0       15.736367   -4.395949   -6.048196
    140          1           0       16.950445   -5.755488   -5.695523
    141          1           0       17.424509   -4.033507   -5.754337
    142          1           0       16.246301   -5.577709    1.095332
    143          1           0       14.776641   -4.293538    3.342065
    144          1           0       14.309543   -6.751590    1.105147
    145          1           0       13.489984   -5.257374    0.529212
    146          1           0       13.558878   -5.580934    2.186373
    147          1           0       16.745458   -5.844951    3.639841
    148          1           0       16.804527   -4.379845    4.601588
    149          1           0       18.271054   -5.241970    2.216595
    150          1           0       18.943230   -4.470457    3.699084
    151          1           0       18.115384   -3.492659    2.405676
    152          1           0       16.337604    1.261515    5.895826
    153          1           0       15.815262   -0.447423    5.744616
    154          1           0       14.589516    0.867410    5.542118
    155          1           0       14.711027    4.274470    1.710449
    156          1           0       16.889201    7.988315    1.496440
    157          1           0       17.149464    7.278672   -0.221882
    158          1           0       18.183736    6.955680    1.191686
 ---------------------------------------------------------------------

 SCF Done:  E(RCAM-B3LYP) =  -4069.81177104     A.U. after   19 cycles

 Excitation energies and oscillator strengths:

 Excited State   1:      Singlet-A      1.6754 eV  740.04 nm  f=0.2471  <S**2>=0.000
     310 -> 316        0.16955
     311 -> 314       -0.14622
     312 -> 313        0.67029
     310 <- 316        0.10221
 This state for optimization and/or second-order correction.
 Total Energy, E(TD-HF/TD-DFT) =  -4069.75020242
 Copying the excited state density for this state as the 1-particle RhoCI density.

 Excited State   2:      Singlet-A      1.6800 eV  737.98 nm  f=0.5300  <S**2>=0.000
     309 -> 315        0.17157
     311 -> 314        0.66993
     312 -> 313        0.14617
     309 <- 315        0.10273

 Excited State   3:      Singlet-A      2.1861 eV  567.16 nm  f=0.0965  <S**2>=0.000
     310 -> 313        0.64216
     312 -> 316       -0.27295

 Excited State   4:      Singlet-A      2.1925 eV  565.48 nm  f=0.1038  <S**2>=0.000
     309 -> 314        0.64038
     311 -> 315       -0.27818

 Excited State   5:      Singlet-A      3.0659 eV  404.39 nm  f=0.0000  <S**2>=0.000
     311 -> 313        0.70711

 The electronic state is 1-A.
 Alpha  occ. eigenvalues --  -46.87796 -46.87660 -19.26345 -19.26286 -19.19157
 Alpha  occ. eigenvalues --  -19.19022 -19.18815 -19.18716 -19.18169 -19.18049
 Alpha  occ. eigenvalues --  -14.42497 -14.42450 -14.41449 -14.41359 -14.39403
 Alpha  occ. eigenvalues --  -14.39352 -14.38599 -14.38586 -10.39087 -10.39081
 Alpha  occ. eigenvalues --  -10.35448 -10.35393 -10.34389 -10.34226 -10.31751
 Alpha  occ. eigenvalues --  -10.31682 -10.31405 -10.31308 -10.31022 -10.30909
 Alpha  occ. eigenvalues --  -10.30570 -10.30507 -10.30398 -10.30360 -10.30206
 Alpha  occ. eigenvalues --  -10.30141 -10.29920 -10.29894 -10.29630 -10.29437
 Alpha  occ. eigenvalues --  -10.29401 -10.29254 -10.28750 -10.28716 -10.28651
 Alpha  occ. eigenvalues --  -10.28543 -10.28404 -10.28365 -10.28138 -10.28118
 Alpha  occ. eigenvalues --  -10.28000 -10.27793 -10.27727 -10.27668 -10.27584
 Alpha  occ. eigenvalues --  -10.27519 -10.27499 -10.27483 -10.27482 -10.27468
 Alpha  occ. eigenvalues --  -10.27465 -10.27448 -10.27403 -10.27377 -10.27159
 Alpha  occ. eigenvalues --  -10.27048 -10.26708 -10.26690 -10.26418 -10.26410
 Alpha  occ. eigenvalues --  -10.26235 -10.26181 -10.26139 -10.26020 -10.26018
 Alpha  occ. eigenvalues --  -10.25934 -10.25849 -10.25842 -10.25433 -10.25398
 Alpha  occ. eigenvalues --  -10.24872 -10.24832 -10.24787 -10.24733 -10.24690
 Alpha  occ. eigenvalues --  -10.24684  -3.16539  -3.16410  -1.91421  -1.91292
 Alpha  occ. eigenvalues --   -1.91007  -1.90881  -1.90849  -1.90718  -1.16639
 Alpha  occ. eigenvalues --   -1.16635  -1.08656  -1.08627  -1.07216  -1.06968
 Alpha  occ. eigenvalues --   -1.06942  -1.06644  -1.04581  -1.04494  -1.03760
 Alpha  occ. eigenvalues --   -1.03663  -1.03233  -1.03039  -1.02411  -1.02111
 Alpha  occ. eigenvalues --   -0.91986  -0.91972  -0.89518  -0.89495  -0.89189
 Alpha  occ. eigenvalues --   -0.89149  -0.88286  -0.88221  -0.87869  -0.87793
 Alpha  occ. eigenvalues --   -0.87683  -0.87673  -0.87274  -0.87121  -0.84998
 Alpha  occ. eigenvalues --   -0.84983  -0.83935  -0.83877  -0.82967  -0.82933
 Alpha  occ. eigenvalues --   -0.82652  -0.82649  -0.81594  -0.81587  -0.80597
 Alpha  occ. eigenvalues --   -0.80441  -0.78797  -0.78636  -0.77218  -0.77144
 Alpha  occ. eigenvalues --   -0.76935  -0.76897  -0.75924  -0.75837  -0.74897
 Alpha  occ. eigenvalues --   -0.74803  -0.72774  -0.72699  -0.71672  -0.71580
 Alpha  occ. eigenvalues --   -0.69905  -0.69758  -0.68874  -0.68826  -0.67641
 Alpha  occ. eigenvalues --   -0.67601  -0.67221  -0.67199  -0.65287  -0.65270
 Alpha  occ. eigenvalues --   -0.64854  -0.64769  -0.64652  -0.64621  -0.64268
 Alpha  occ. eigenvalues --   -0.64204  -0.62298  -0.62276  -0.60442  -0.60340
 Alpha  occ. eigenvalues --   -0.59805  -0.59795  -0.58992  -0.58987  -0.58503
 Alpha  occ. eigenvalues --   -0.58425  -0.57585  -0.57552  -0.57308  -0.57236
 Alpha  occ. eigenvalues --   -0.56310  -0.56204  -0.55980  -0.55884  -0.55520
 Alpha  occ. eigenvalues --   -0.55451  -0.55339  -0.55247  -0.54523  -0.54487
 Alpha  occ. eigenvalues --   -0.53910  -0.53896  -0.53299  -0.53227  -0.53223
 Alpha  occ. eigenvalues --   -0.53141  -0.52915  -0.52901  -0.52756  -0.52668
 Alpha  occ. eigenvalues --   -0.52436  -0.52402  -0.51914  -0.51884  -0.51657
 Alpha  occ. eigenvalues --   -0.51618  -0.51200  -0.51196  -0.50572  -0.50477
 Alpha  occ. eigenvalues --   -0.50030  -0.49979  -0.49918  -0.49868  -0.49515
 Alpha  occ. eigenvalues --   -0.49487  -0.49215  -0.49201  -0.49102  -0.49097
 Alpha  occ. eigenvalues --   -0.48593  -0.48557  -0.48460  -0.48445  -0.48376
 Alpha  occ. eigenvalues --   -0.48339  -0.47695  -0.47594  -0.47297  -0.47118
 Alpha  occ. eigenvalues --   -0.46797  -0.46708  -0.46556  -0.46552  -0.46359
 Alpha  occ. eigenvalues --   -0.46270  -0.46162  -0.46085  -0.45822  -0.45820
 Alpha  occ. eigenvalues --   -0.45209  -0.45200  -0.44578  -0.44513  -0.44507
 Alpha  occ. eigenvalues --   -0.44475  -0.44144  -0.44126  -0.44089  -0.44078
 Alpha  occ. eigenvalues --   -0.44020  -0.43939  -0.43551  -0.43495  -0.43386
 Alpha  occ. eigenvalues --   -0.43384  -0.43027  -0.42928  -0.42900  -0.42699
 Alpha  occ. eigenvalues --   -0.42654  -0.42554  -0.42009  -0.41964  -0.41704
 Alpha  occ. eigenvalues --   -0.41668  -0.41535  -0.41458  -0.41141  -0.40988
 Alpha  occ. eigenvalues --   -0.40869  -0.40823  -0.40722  -0.40698  -0.40570
 Alpha  occ. eigenvalues --   -0.40493  -0.40236  -0.40225  -0.39439  -0.39427
 Alpha  occ. eigenvalues --   -0.38468  -0.38351  -0.37750  -0.37652  -0.37319
 Alpha  occ. eigenvalues --   -0.37266  -0.37264  -0.37198  -0.36768  -0.36714
 Alpha  occ. eigenvalues --   -0.36216  -0.36193  -0.34286  -0.34253  -0.33859
 Alpha  occ. eigenvalues --   -0.33772  -0.33186  -0.33175  -0.31344  -0.31275
 Alpha  occ. eigenvalues --   -0.31035  -0.30972  -0.30029  -0.29953  -0.29449
 Alpha  occ. eigenvalues --   -0.29327  -0.29321  -0.29211  -0.24080  -0.24036
 Alpha  occ. eigenvalues --   -0.21127  -0.21117
 Alpha virt. eigenvalues --   -0.08792  -0.08774  -0.01749  -0.01684  -0.00058
 Alpha virt. eigenvalues --   -0.00029   0.02201   0.02208   0.03122   0.03226
 Alpha virt. eigenvalues --    0.04717   0.04731   0.05097   0.05168   0.06175

 Mulliken charges:
               1
     1  Mg   0.838699
     2  C   -0.002970
     3  C   -0.094131
     4  C   -0.045836
     5  C   -0.063944
     6  N   -0.256783
     7  C   -0.052456
     8  C   -0.014022
     9  C   -0.087005
    10  C    0.046323
    11  C    0.104815
    12  C    0.053477
    13  C   -0.071788
    14  H    0.036081
    15  N   -0.433128
    16  C    0.168418
    17  C   -0.177157
    18  C   -0.003997
    19  C    0.148692
    20  C    0.110178
    21  C    0.012282
    22  O   -0.249612
    23  C    0.062479
    24  N   -0.341106
    25  C    0.041231
    26  C   -0.028196
    27  C   -0.023960
    28  C    0.074845
    29  C    0.076165
    30  C    0.035110
    31  C   -0.004505
    32  N   -0.310478
    33  C    0.080399
    34  C   -0.169697
    35  C    0.008350
    36  C    0.082991
    37  C    0.127308
    38  C    0.046125
    39  O   -0.188434
    40  C   -0.005343
    41  C    0.212888
    42  O   -0.257116
    43  O   -0.304797
    44  C    0.157700
    45  H   -0.017613
    46  H   -0.016827
    47  H   -0.041469
    48  H    0.000937
    49  H   -0.004051
    50  H    0.025476
    51  H    0.016458
    52  H    0.016648
    53  H    0.011198
    54  H    0.044117
    55  H    0.017877
    56  H    0.017938
    57  H    0.005862
    58  H    0.026828
    59  H    0.039537
    60  H    0.037344
    61  H    0.035658
    62  H    0.031490
    63  H    0.016565
    64  H    0.009471
    65  H    0.023224
    66  H    0.012541
    67  H    0.004763
    68  H    0.006384
    69  H    0.004749
    70  H    0.008781
    71  H    0.018170
    72  H    0.028970
    73  H    0.047583
    74  H    0.009132
    75  H    0.046014
    76  H    0.035150
    77  H    0.042945
    78  H    0.046382
    79  H    0.053675
    80  Mg   0.837803
    81  C   -0.016813
    82  C   -0.087786
    83  C   -0.045494
    84  C   -0.064866
    85  N   -0.254564
    86  C   -0.049841
    87  C   -0.015080
    88  C   -0.090503
    89  C    0.045758
    90  C    0.114363
    91  C    0.062518
    92  C   -0.077914
    93  H    0.034910
    94  N   -0.423493
    95  C    0.162934
    96  C   -0.174613
    97  C   -0.007822
    98  C    0.152113
    99  C    0.099359
   100  C    0.015564
   101  O   -0.253194
   102  C    0.061191
   103  N   -0.350043
   104  C    0.037505
   105  C   -0.019822
   106  C   -0.034826
   107  C    0.088928
   108  C    0.073646
   109  C    0.034722
   110  C   -0.007677
   111  N   -0.324106
   112  C    0.078454
   113  C   -0.163115
   114  C    0.002263
   115  C    0.096205
   116  C    0.131485
   117  C    0.042394
   118  O   -0.187816
   119  C    0.000907
   120  C    0.211272
   121  O   -0.251043
   122  O   -0.305609
   123  C    0.152024
   124  H   -0.019651
   125  H   -0.015584
   126  H   -0.040441
   127  H   -0.000598
   128  H   -0.004327
   129  H    0.022517
   130  H    0.014430
   131  H    0.016318
   132  H    0.013902
   133  H    0.037674
   134  H    0.020830
   135  H    0.019587
   136  H    0.008774
   137  H    0.026135
   138  H    0.039782
   139  H    0.038249
   140  H    0.036377
   141  H    0.033897
   142  H    0.014386
   143  H    0.012449
   144  H    0.025127
   145  H    0.011654
   146  H    0.005702
   147  H    0.006261
   148  H    0.003665
   149  H    0.010924
   150  H    0.017931
   151  H    0.030106
   152  H    0.046017
   153  H    0.008509
   154  H    0.047006
   155  H    0.035093
   156  H    0.043956
   157  H    0.049498
   158  H    0.053568
 Sum of Mulliken charges =  -0.00000

 Dipole moment (field-independent basis, Debye):
    X=             -4.1081    Y=             -2.3799    Z=             -7.4243  Tot=              8.8125
 Quadrupole moment (field-independent basis, Debye-Ang):
   XX=           -516.2797   YY=           -545.1912   ZZ=           -453.7507
   XY=             27.0392   XZ=             -7.7466   YZ=            -42.6115

 Normal termination of Gaussian 16 at Sat Sep  4 19:17:16 2021.
