 Gaussian 16, Revision A.03,
 Gaussian 16:  ES64L-G16RevA.03 25-Dec-2016

 -----------------------------------
 #p cam-b3lyp/Def2SVP td=(nstates=5)
 -----------------------------------

 --------------------------------
 TDDFT excited states in gaussian
 --------------------------------
 Symbolic Z-matrix:
 Charge =  0 Multiplicity = 1

                         Standard orientation:
 ---------------------------------------------------------------------
 Center     Atomic      Atomic             Coordinates (Angstroms)
 Number     Number       Type             X           Y           Z
 ---------------------------------------------------------------------
      1         12           0        6.862604    0.297931    0.194317
      2          6           0        6.893519   -3.052161   -1.065900
      3          6           0        7.754647    1.324888   -2.935009
      4          6           0        7.284454    3.205898    1.386956
      5          6           0        7.093291   -1.061120    3.395165
      6          7           0        7.243876   -0.817044   -1.679746
      7          6           0        7.163307   -2.092844   -2.044455
      8          6           0        7.317964   -2.307445   -3.579838
      9          6           0        8.130668   -0.983474   -3.938462
     10          6           0        7.655645   -0.092218   -2.804469
     11          6           0        9.643172   -1.149424   -3.832191
     12          6           0        5.936866   -2.349089   -4.316429
     13          6           0        5.978488   -2.876490   -5.753603
     14          1           0        4.859001   -3.667414   -6.242004
     15          7           0        6.956076    2.052178   -0.709413
     16          6           0        7.323352    2.283506   -1.992722
     17          6           0        7.230807    3.746677   -2.185716
     18          6           0        6.963192    4.364816   -0.857417
     19          6           0        7.084802    3.219950    0.008534
     20          6           0        7.342710    4.408712   -3.524723
     21          6           0        6.658238    5.767000   -0.434314
     22          8           0        6.688838    6.129512    0.791338
     23          6           0        6.406023    6.738753   -1.513723
     24          7           0        7.369162    0.992920    2.096427
     25          6           0        7.428547    2.303032    2.359230
     26          6           0        7.527805    2.560207    3.833661
     27          6           0        7.278353    1.152870    4.545650
     28          6           0        7.153131    0.267599    3.281179
     29          6           0        8.857855    3.150547    4.322003
     30          6           0        6.148820    1.090804    5.604291
     31          6           0        4.806363    1.279822    4.934082
     32          7           0        6.797377   -1.691405    1.059958
     33          6           0        6.936498   -2.026420    2.414611
     34          6           0        6.931956   -3.498512    2.498227
     35          6           0        6.806347   -3.920493    1.176108
     36          6           0        6.763233   -2.784382    0.318387
     37          6           0        7.093578   -4.266301    3.685161
     38          6           0        6.723307   -5.067296    0.286274
     39          8           0        6.617959   -6.284032    0.447355
     40          6           0        6.899026   -4.553669   -1.210769
     41          6           0        5.812235   -5.184253   -2.038149
     42          8           0        4.614420   -4.885288   -1.855870
     43          8           0        6.364372   -5.852527   -3.062403
     44          6           0        5.339018   -6.477776   -3.939824
     45          1           0        8.260501    1.740397   -3.808740
     46          1           0        7.323986    4.193272    1.851680
     47          1           0        7.076368   -1.555136    4.368363
     48          1           0        7.897553   -3.187329   -3.859667
     49          1           0        7.827924   -0.567857   -4.899363
     50          1           0        9.908769   -2.114919   -3.401845
     51          1           0        9.980209   -0.338834   -3.185784
     52          1           0       10.120182   -0.980583   -4.797971
     53          1           0        5.597903   -1.330004   -4.502522
     54          1           0        5.210451   -2.924965   -3.741960
     55          1           0        6.922647   -3.378529   -5.966744
     56          1           0        5.966658   -2.022720   -6.431200
     57          1           0        7.703254    3.716692   -4.284763
     58          1           0        8.129764    5.158263   -3.444539
     59          1           0        6.409968    4.885832   -3.825855
     60          1           0        7.278966    6.787865   -2.164959
     61          1           0        6.117868    7.666920   -1.021459
     62          1           0        5.583418    6.375713   -2.130548
     63          1           0        6.764735    3.265746    4.159798
     64          1           0        8.162165    0.801937    5.078938
     65          1           0        8.747652    4.092714    4.859480
     66          1           0        9.512074    3.267148    3.458468
     67          1           0        9.448240    2.486791    4.953106
     68          1           0        6.262512    1.897377    6.327796
     69          1           0        6.127271    0.150936    6.156048
     70          1           0        4.719946    2.363513    4.863521
     71          1           0        4.010404    0.864162    5.552861
     72          1           0        4.810073    0.886351    3.917395
     73          1           0        6.355828   -5.066933    3.633365
     74          1           0        6.951662   -3.653862    4.575319
     75          1           0        8.123859   -4.602449    3.569486
     76          1           0        7.892074   -4.864140   -1.534166
     77          1           0        5.568578   -7.542023   -3.993802
     78          1           0        5.341594   -5.911717   -4.871476
     79          1           0        4.321743   -6.506305   -3.547808
     80         12           0       -6.360492    0.928604    0.334267
     81          6           0       -8.666054   -1.815904    0.158003
     82          6           0       -7.995143    2.278850   -2.337688
     83          6           0       -4.079563    3.128609    0.176879
     84          6           0       -4.258578   -1.137516    2.194061
     85          7           0       -8.092873    0.227772   -0.848914
     86          6           0       -8.926292   -0.799681   -0.784861
     87          6           0      -10.150527   -0.694922   -1.733458
     88          6           0       -9.523399    0.300627   -2.826372
     89          6           0       -8.494330    1.010133   -1.948721
     90          6           0       -8.784361   -0.419132   -3.942224
     91          6           0      -11.400371   -0.060209   -1.028459
     92          6           0      -12.716197   -0.209719   -1.795285
     93          1           0      -13.947177   -0.404071   -1.034105
     94          7           0       -6.345594    2.701585   -0.557313
     95          6           0       -7.090353    3.086931   -1.614725
     96          6           0       -6.693555    4.474051   -1.902155
     97          6           0       -5.536653    4.820777   -1.032625
     98          6           0       -5.256392    3.528732   -0.439177
     99          6           0       -7.442877    5.352623   -2.861356
    100          6           0       -4.795996    6.100309   -0.786824
    101          8           0       -3.672053    6.120114   -0.171044
    102          6           0       -5.379024    7.317635   -1.369646
    103          7           0       -4.357948    0.925880    0.892997
    104          6           0       -3.602869    2.030991    0.764514
    105          6           0       -2.283059    1.876304    1.481851
    106          6           0       -2.408673    0.523620    2.325680
    107          6           0       -3.807623    0.063808    1.859947
    108          6           0       -1.044724    1.805479    0.588611
    109          6           0       -2.131287    0.617394    3.851104
    110          6           0       -3.210849    1.435302    4.522659
    111          7           0       -6.496087   -1.039160    1.216060
    112          6           0       -5.489689   -1.724592    1.931214
    113          6           0       -6.010926   -3.073968    2.231099
    114          6           0       -7.285591   -3.087977    1.644996
    115          6           0       -7.532743   -1.842782    1.006310
    116          6           0       -5.306861   -4.104622    2.915316
    117          6           0       -8.474031   -3.876741    1.412241
    118          8           0       -8.873443   -4.977773    1.788962
    119          6           0       -9.370322   -3.133040    0.330601
    120          6           0      -10.786249   -3.109290    0.837669
    121          8           0      -11.081242   -2.463255    1.858555
    122          8           0      -11.592969   -3.670028   -0.081655
    123          6           0      -13.009622   -3.659901    0.370919
    124          1           0       -8.290644    2.677200   -3.308709
    125          1           0       -3.300609    3.891448    0.246089
    126          1           0       -3.702886   -1.806795    2.854324
    127          1           0      -10.442249   -1.626604   -2.203190
    128          1           0      -10.265814    1.006331   -3.189921
    129          1           0       -8.701476   -1.478959   -3.752393
    130          1           0       -7.803210    0.035243   -3.986106
    131          1           0       -9.257693   -0.207839   -4.905374
    132          1           0      -11.300353    1.032788   -1.038253
    133          1           0      -11.515110   -0.447853   -0.034880
    134          1           0      -12.641783   -0.949909   -2.601218
    135          1           0      -12.924988    0.729795   -2.312699
    136          1           0       -8.145340    4.773052   -3.472959
    137          1           0       -6.711500    5.738407   -3.579774
    138          1           0       -7.931269    6.195223   -2.367236
    139          1           0       -5.461750    7.198216   -2.447309
    140          1           0       -4.757134    8.140130   -1.010987
    141          1           0       -6.398959    7.434980   -0.986792
    142          1           0       -2.114240    2.701139    2.163215
    143          1           0       -1.695916   -0.239669    1.980406
    144          1           0       -0.291550    2.580849    0.824393
    145          1           0       -1.362595    1.885201   -0.442477
    146          1           0       -0.523688    0.849622    0.596480
    147          1           0       -1.188352    1.138790    4.033222
    148          1           0       -2.063805   -0.349709    4.338103
    149          1           0       -2.876855    2.464640    4.361413
    150          1           0       -3.265764    1.199777    5.583578
    151          1           0       -4.171812    1.316233    4.008836
    152          1           0       -6.005820   -4.550754    3.610239
    153          1           0       -4.429892   -3.714492    3.427676
    154          1           0       -5.037957   -4.748853    2.073930
    155          1           0       -9.279929   -3.685407   -0.605511
    156          1           0      -13.364454   -4.694477    0.333266
    157          1           0      -13.525130   -2.926662   -0.277422
    158          1           0      -13.202999   -3.407571    1.406967
 ---------------------------------------------------------------------

 SCF Done:  E(RCAM-B3LYP) =  -4069.81183151     A.U. after   19 cycles

 Excitation energies and oscillator strengths:

 Excited State   1:      Singlet-A      1.6648 eV  744.74 nm  f=0.0093  <S**2>=0.000
     309 -> 315       -0.10812
     310 -> 316        0.13284
     311 -> 313       -0.43210
     312 -> 314        0.53365
 This state for optimization and/or second-order correction.
 Total Energy, E(TD-HF/TD-DFT) =  -4069.75065155
 Copying the excited state density for this state as the 1-particle RhoCI density.

 Excited State   2:      Singlet-A      1.6898 eV  733.74 nm  f=0.7322  <S**2>=0.000
     309 -> 315        0.13853
     310 -> 316        0.11152
     311 -> 313        0.53244
     312 -> 314        0.43117

 Excited State   3:      Singlet-A      2.1850 eV  567.42 nm  f=0.0897  <S**2>=0.000
     309 -> 313       -0.10728
     310 -> 314        0.63381
     312 -> 316       -0.26869

 Excited State   4:      Singlet-A      2.1939 eV  565.13 nm  f=0.1092  <S**2>=0.000
     309 -> 313        0.63163
     310 -> 314        0.10612
     311 -> 315       -0.27508

 Excited State   5:      Singlet-A      2.6466 eV  468.46 nm  f=0.0000  <S**2>=0.000
     312 -> 313        0.70687

 The electronic state is 1-A.
 Alpha  occ. eigenvalues --  -46.87838 -46.87541 -19.26316 -19.26262 -19.19069
 Alpha  occ. eigenvalues --  -19.19060 -19.18809 -19.18621 -19.18200 -19.17937
 Alpha  occ. eigenvalues --  -14.42487 -14.42382 -14.41490 -14.41232 -14.39437
 Alpha  occ. eigenvalues --  -14.39236 -14.38629 -14.38478 -10.39118 -10.38996
 Alpha  occ. eigenvalues --  -10.35439 -10.35301 -10.34421 -10.34114 -10.31704
 Alpha  occ. eigenvalues --  -10.31679 -10.31445 -10.31193 -10.30938 -10.30920
 Alpha  occ. eigenvalues --  -10.30609 -10.30544 -10.30274 -10.30242 -10.30239
 Alpha  occ. eigenvalues --  -10.30011 -10.29963 -10.29757 -10.29661 -10.29318
 Alpha  occ. eigenvalues --  -10.29284 -10.29283 -10.28780 -10.28628 -10.28586
 Alpha  occ. eigenvalues --  -10.28568 -10.28397 -10.28293 -10.28147 -10.28047
 Alpha  occ. eigenvalues --  -10.27882 -10.27823 -10.27762 -10.27610 -10.27556
 Alpha  occ. eigenvalues --  -10.27551 -10.27491 -10.27488 -10.27438 -10.27388
 Alpha  occ. eigenvalues --  -10.27368 -10.27354 -10.27347 -10.27216 -10.27191
 Alpha  occ. eigenvalues --  -10.26943 -10.26739 -10.26612 -10.26368 -10.26350
 Alpha  occ. eigenvalues --  -10.26261 -10.26261 -10.26061 -10.25982 -10.25939
 Alpha  occ. eigenvalues --  -10.25882 -10.25796 -10.25677 -10.25463 -10.25217
 Alpha  occ. eigenvalues --  -10.24865 -10.24822 -10.24807 -10.24752 -10.24599
 Alpha  occ. eigenvalues --  -10.24567  -3.16581  -3.16291  -1.91463  -1.91173
 Alpha  occ. eigenvalues --   -1.91049  -1.90891  -1.90761  -1.90598  -1.16666
 Alpha  occ. eigenvalues --   -1.16554  -1.08659  -1.08545  -1.07207  -1.06875
 Alpha  occ. eigenvalues --   -1.06853  -1.06681  -1.04616  -1.04382  -1.03798
 Alpha  occ. eigenvalues --   -1.03543  -1.03270  -1.02913  -1.02449  -1.01989
 Alpha  occ. eigenvalues --   -0.92007  -0.91871  -0.89569  -0.89359  -0.89220
 Alpha  occ. eigenvalues --   -0.89054  -0.88333  -0.88078  -0.87906  -0.87708
 Alpha  occ. eigenvalues --   -0.87658  -0.87566  -0.87286  -0.87022  -0.85012
 Alpha  occ. eigenvalues --   -0.84899  -0.83989  -0.83736  -0.82975  -0.82833
 Alpha  occ. eigenvalues --   -0.82673  -0.82553  -0.81619  -0.81489  -0.80625
 Alpha  occ. eigenvalues --   -0.80335  -0.78820  -0.78524  -0.77257  -0.77033
 Alpha  occ. eigenvalues --   -0.76971  -0.76786  -0.75955  -0.75736  -0.74938
 Alpha  occ. eigenvalues --   -0.74665  -0.72811  -0.72573  -0.71706  -0.71460
 Alpha  occ. eigenvalues --   -0.69971  -0.69614  -0.68902  -0.68725  -0.67670
 Alpha  occ. eigenvalues --   -0.67487  -0.67242  -0.67109  -0.65321  -0.65170
 Alpha  occ. eigenvalues --   -0.64891  -0.64658  -0.64651  -0.64544  -0.64315
 Alpha  occ. eigenvalues --   -0.64068  -0.62333  -0.62170  -0.60464  -0.60228
 Alpha  occ. eigenvalues --   -0.59836  -0.59692  -0.59024  -0.58871  -0.58538
 Alpha  occ. eigenvalues --   -0.58307  -0.57619  -0.57444  -0.57343  -0.57114
 Alpha  occ. eigenvalues --   -0.56338  -0.56088  -0.56009  -0.55789  -0.55538
 Alpha  occ. eigenvalues --   -0.55384  -0.55352  -0.55116  -0.54568  -0.54363
 Alpha  occ. eigenvalues --   -0.53926  -0.53817  -0.53327  -0.53241  -0.53113
 Alpha  occ. eigenvalues --   -0.53038  -0.52950  -0.52797  -0.52766  -0.52583
 Alpha  occ. eigenvalues --   -0.52505  -0.52262  -0.51952  -0.51735  -0.51639
 Alpha  occ. eigenvalues --   -0.51565  -0.51235  -0.51083  -0.50572  -0.50386
 Alpha  occ. eigenvalues --   -0.50077  -0.49932  -0.49879  -0.49735  -0.49534
 Alpha  occ. eigenvalues --   -0.49390  -0.49241  -0.49125  -0.49099  -0.48995
 Alpha  occ. eigenvalues --   -0.48625  -0.48496  -0.48454  -0.48451  -0.48242
 Alpha  occ. eigenvalues --   -0.48235  -0.47723  -0.47488  -0.47322  -0.47004
 Alpha  occ. eigenvalues --   -0.46838  -0.46586  -0.46585  -0.46455  -0.46396
 Alpha  occ. eigenvalues --   -0.46201  -0.46148  -0.45952  -0.45857  -0.45700
 Alpha  occ. eigenvalues --   -0.45242  -0.45073  -0.44612  -0.44530  -0.44410
 Alpha  occ. eigenvalues --   -0.44362  -0.44185  -0.44117  -0.44039  -0.44023
 Alpha  occ. eigenvalues --   -0.43959  -0.43840  -0.43529  -0.43444  -0.43420
 Alpha  occ. eigenvalues --   -0.43273  -0.43062  -0.42828  -0.42781  -0.42740
 Alpha  occ. eigenvalues --   -0.42705  -0.42424  -0.42061  -0.41843  -0.41738
 Alpha  occ. eigenvalues --   -0.41566  -0.41553  -0.41353  -0.41173  -0.40909
 Alpha  occ. eigenvalues --   -0.40874  -0.40825  -0.40631  -0.40617  -0.40595
 Alpha  occ. eigenvalues --   -0.40358  -0.40261  -0.40143  -0.39512  -0.39282
 Alpha  occ. eigenvalues --   -0.38514  -0.38214  -0.37781  -0.37559  -0.37364
 Alpha  occ. eigenvalues --   -0.37296  -0.37135  -0.37093  -0.36752  -0.36668
 Alpha  occ. eigenvalues --   -0.36233  -0.36093  -0.34324  -0.34133  -0.33810
 Alpha  occ. eigenvalues --   -0.33765  -0.33223  -0.33055  -0.31341  -0.31179
 Alpha  occ. eigenvalues --   -0.31068  -0.30855  -0.30060  -0.29841  -0.29475
 Alpha  occ. eigenvalues --   -0.29356  -0.29217  -0.29089  -0.24118  -0.23915
 Alpha  occ. eigenvalues --   -0.21163  -0.20996
 Alpha virt. eigenvalues --   -0.08805  -0.08675  -0.01784  -0.01563  -0.00074
 Alpha virt. eigenvalues --    0.00073   0.02167   0.02329   0.03027   0.03335
 Alpha virt. eigenvalues --    0.04682   0.04840   0.05062   0.05261   0.06145

 Mulliken charges:
               1
     1  Mg   0.837864
     2  C   -0.003071
     3  C   -0.093986
     4  C   -0.045910
     5  C   -0.064181
     6  N   -0.256803
     7  C   -0.052596
     8  C   -0.013961
     9  C   -0.087014
    10  C    0.046336
    11  C    0.104777
    12  C    0.053433
    13  C   -0.071831
    14  H    0.036122
    15  N   -0.433281
    16  C    0.168516
    17  C   -0.176910
    18  C   -0.003681
    19  C    0.148675
    20  C    0.110141
    21  C    0.012718
    22  O   -0.249278
    23  C    0.062258
    24  N   -0.341048
    25  C    0.041131
    26  C   -0.028289
    27  C   -0.023893
    28  C    0.074447
    29  C    0.076090
    30  C    0.035234
    31  C   -0.004641
    32  N   -0.310372
    33  C    0.079915
    34  C   -0.170128
    35  C    0.008364
    36  C    0.082522
    37  C    0.127391
    38  C    0.045890
    39  O   -0.188365
    40  C   -0.005243
    41  C    0.213007
    42  O   -0.257540
    43  O   -0.304707
    44  C    0.157628
    45  H   -0.017422
    46  H   -0.016550
    47  H   -0.041637
    48  H    0.001020
    49  H   -0.003947
    50  H    0.025548
    51  H    0.016498
    52  H    0.016771
    53  H    0.011200
    54  H    0.043898
    55  H    0.017971
    56  H    0.018001
    57  H    0.005816
    58  H    0.026995
    59  H    0.040098
    60  H    0.037090
    61  H    0.036389
    62  H    0.032195
    63  H    0.016626
    64  H    0.009666
    65  H    0.023487
    66  H    0.012698
    67  H    0.004847
    68  H    0.006742
    69  H    0.004743
    70  H    0.009148
    71  H    0.016936
    72  H    0.028410
    73  H    0.047362
    74  H    0.008904
    75  H    0.046205
    76  H    0.035299
    77  H    0.043158
    78  H    0.046426
    79  H    0.053665
    80  Mg   0.837782
    81  C   -0.016969
    82  C   -0.088090
    83  C   -0.045673
    84  C   -0.063978
    85  N   -0.254586
    86  C   -0.049783
    87  C   -0.015094
    88  C   -0.090488
    89  C    0.045744
    90  C    0.114464
    91  C    0.062581
    92  C   -0.077740
    93  H    0.034662
    94  N   -0.423396
    95  C    0.162838
    96  C   -0.175054
    97  C   -0.008059
    98  C    0.152042
    99  C    0.099565
   100  C    0.015226
   101  O   -0.253230
   102  C    0.061255
   103  N   -0.349997
   104  C    0.037561
   105  C   -0.019993
   106  C   -0.035243
   107  C    0.088837
   108  C    0.072967
   109  C    0.034594
   110  C   -0.007649
   111  N   -0.324199
   112  C    0.078392
   113  C   -0.162665
   114  C    0.002247
   115  C    0.096323
   116  C    0.131582
   117  C    0.042550
   118  O   -0.187796
   119  C    0.000848
   120  C    0.211216
   121  O   -0.251112
   122  O   -0.305625
   123  C    0.152099
   124  H   -0.020173
   125  H   -0.015633
   126  H   -0.039379
   127  H   -0.000747
   128  H   -0.004632
   129  H    0.022541
   130  H    0.014422
   131  H    0.015839
   132  H    0.013856
   133  H    0.037664
   134  H    0.020698
   135  H    0.019412
   136  H    0.008503
   137  H    0.025510
   138  H    0.039466
   139  H    0.037797
   140  H    0.036113
   141  H    0.033858
   142  H    0.014313
   143  H    0.014642
   144  H    0.025129
   145  H    0.011067
   146  H    0.007568
   147  H    0.006362
   148  H    0.004063
   149  H    0.010826
   150  H    0.017468
   151  H    0.029883
   152  H    0.045743
   153  H    0.009120
   154  H    0.048064
   155  H    0.035039
   156  H    0.043822
   157  H    0.049333
   158  H    0.053497
 Sum of Mulliken charges =  -0.00000

 Dipole moment (field-independent basis, Debye):
    X=              1.8470    Y=              4.9141    Z=             -6.8766  Tot=              8.6514
 Quadrupole moment (field-independent basis, Debye-Ang):
   XX=           -464.2151   YY=           -559.0061   ZZ=           -459.8461
   XY=            -21.1998   XZ=             26.4406   YZ=             -4.6961

 Normal termination of Gaussian 16 at Sat Sep 11 16:51:17 2021.
