 Gaussian 16, Revision A.03,
 Gaussian 16:  ES64L-G16RevA.03 25-Dec-2016

 -----------------------------------
 #p cam-b3lyp/Def2SVP td=(nstates=5)
 -----------------------------------

 --------------------------------
 TDDFT excited states in gaussian
 --------------------------------
 Symbolic Z-matrix:
 Charge =  0 Multiplicity = 1

                         Standard orientation:
 ---------------------------------------------------------------------
 Center     Atomic      Atomic             Coordinates (Angstroms)
 Number     Number       Type             X           Y           Z
 ---------------------------------------------------------------------
      1         12           0       -4.037132    0.995961   -0.280525
      2          6           0       -4.685239   -2.094033    1.405923
      3          6           0       -4.850492    2.582609    2.628781
      4          6           0       -3.912853    3.738231   -1.868333
      5          6           0       -4.383521   -0.740112   -3.282479
      6          7           0       -4.669575    0.231786    1.698541
      7          6           0       -4.821392   -0.976255    2.232168
      8          6           0       -5.064700   -0.945896    3.770756
      9          6           0       -5.651111    0.530729    3.903789
     10          6           0       -4.990810    1.164390    2.692013
     11          6           0       -7.164988    0.602840    3.732098
     12          6           0       -3.738020   -1.111040    4.585850
     13          6           0       -3.920066   -1.418429    6.075053
     14          1           0       -2.970369   -2.306781    6.727935
     15          7           0       -3.861049    2.850449    0.377291
     16          6           0       -4.228506    3.316016    1.595284
     17          6           0       -3.893914    4.756404    1.598983
     18          6           0       -3.477680    5.130394    0.218775
     19          6           0       -3.762632    3.911602   -0.494476
     20          6           0       -3.938217    5.608261    2.830294
     21          6           0       -2.922582    6.390218   -0.366753
     22          8           0       -2.847338    6.578038   -1.629145
     23          6           0       -2.546199    7.448292    0.588159
     24          7           0       -4.349722    1.492294   -2.283916
     25          6           0       -4.174782    2.744583   -2.719980
     26          6           0       -4.176358    2.806108   -4.218697
     27          6           0       -4.146300    1.291452   -4.723343
     28          6           0       -4.219176    0.583045   -3.348163
     29          6           0       -5.367695    3.533276   -4.857409
     30          6           0       -3.007299    0.897049   -5.696761
     31          6           0       -1.676859    0.954219   -4.979991
     32          7           0       -4.282591   -1.078101   -0.871339
     33          6           0       -4.428957   -1.571511   -2.175869
     34          6           0       -4.673350   -3.021315   -2.064482
     35          6           0       -4.668632   -3.269369   -0.693245
     36          6           0       -4.462176   -2.047353    0.008428
     37          6           0       -4.921838   -3.910166   -3.147364
     38          6           0       -4.814527   -4.278520    0.343184
     39          8           0       -4.913241   -5.506405    0.350177
     40          6           0       -4.952642   -3.538994    1.746698
     41          6           0       -4.019702   -4.218061    2.711997
     42          8           0       -2.782714   -4.148789    2.562242
     43          8           0       -4.713904   -4.636630    3.781308
     44          6           0       -3.842314   -5.293384    4.791832
     45          1           0       -5.308399    3.193623    3.409117
     46          1           0       -3.766430    4.643923   -2.460549
     47          1           0       -4.416937   -1.361186   -4.179475
     48          1           0       -5.795795   -1.670537    4.129672
     49          1           0       -5.315918    1.020911    4.817622
     50          1           0       -7.576439   -0.356269    3.417871
     51          1           0       -7.335311    1.359519    2.965990
     52          1           0       -7.639948    0.981112    4.637692
     53          1           0       -3.236523   -0.145796    4.655602
     54          1           0       -3.100963   -1.873153    4.135663
     55          1           0       -4.943129   -1.723434    6.296914
     56          1           0       -3.786339   -0.492104    6.633836
     57          1           0       -4.438486    5.098063    3.652470
     58          1           0       -4.582111    6.458503    2.606244
     59          1           0       -2.948851    5.962639    3.119955
     60          1           0       -3.420358    7.730905    1.175122
     61          1           0       -2.086283    8.238382   -0.004364
     62          1           0       -1.820168    7.044544    1.294428
     63          1           0       -3.292790    3.323842   -4.589756
     64          1           0       -5.057688    1.019808   -5.256498
     65          1           0       -5.079000    4.360017   -5.506916
     66          1           0       -6.022459    3.875432   -4.056469
     67          1           0       -6.040222    2.894220   -5.429014
     68          1           0       -2.955671    1.602270   -6.525582
     69          1           0       -3.127340   -0.101264   -6.117727
     70          1           0       -1.408886    2.007983   -5.047831
     71          1           0       -0.942353    0.330907   -5.491061
     72          1           0       -1.783789    0.712632   -3.922310
     73          1           0       -4.334224   -4.806133   -2.947559
     74          1           0       -4.645846   -3.459855   -4.100596
     75          1           0       -5.997874   -4.052625   -3.048832
     76          1           0       -5.994973   -3.633500    2.049579
     77          1           0       -4.252310   -6.287206    4.971988
     78          1           0       -3.780978   -4.610131    5.639067
     79          1           0       -2.831692   -5.543457    4.467108
     80         12           0        4.878775   -0.078665    0.102434
     81          6           0        2.127524   -2.015955   -1.145201
     82          6           0        2.925341    2.686665   -0.311853
     83          6           0        7.423242    1.696364    0.767537
     84          6           0        6.944806   -2.781057   -0.655365
     85          7           0        2.810649    0.174278   -0.639958
     86          6           0        1.840627   -0.639960   -1.027781
     87          6           0        0.464189    0.049064   -1.228300
     88          6           0        0.981268    1.545403   -1.497526
     89          6           0        2.307314    1.485406   -0.742099
     90          6           0        1.277780    1.825421   -2.961429
     91          6           0       -0.434444   -0.025814    0.055795
     92          6           0       -1.901396    0.350883   -0.163034
     93          1           0       -2.923767   -0.359710    0.600058
     94          7           0        5.008006    1.816892    0.675778
     95          6           0        4.113914    2.800421    0.442260
     96          6           0        4.681435    4.013105    1.051768
     97          6           0        6.059152    3.701797    1.520494
     98          6           0        6.228285    2.369684    0.975546
     99          6           0        3.899357    5.283908    1.215539
    100          6           0        7.063636    4.479897    2.315328
    101          8           0        8.286904    4.107525    2.403578
    102          6           0        6.594989    5.740109    2.910071
    103          7           0        6.919982   -0.396716   -0.131380
    104          6           0        7.814317    0.515327    0.288449
    105          6           0        9.216007   -0.046189    0.269389
    106          6           0        9.048549   -1.609715   -0.022059
    107          6           0        7.517676   -1.668040   -0.218122
    108          6           0       10.163499    0.564994   -0.762651
    109          6           0        9.701712   -2.588525    0.991833
    110          6           0        8.991314   -2.502203    2.323475
    111          7           0        4.595790   -2.112091   -0.570741
    112          6           0        5.599233   -3.065653   -0.849835
    113          6           0        4.923407   -4.264150   -1.387694
    114          6           0        3.565022   -3.913472   -1.405894
    115          6           0        3.407605   -2.582626   -0.933066
    116          6           0        5.566926   -5.455763   -1.825927
    117          6           0        2.229593   -4.362741   -1.727576
    118          8           0        1.734950   -5.431169   -2.084688
    119          6           0        1.252548   -3.109541   -1.692099
    120          6           0        0.033158   -3.493544   -0.899543
    121          8           0        0.122240   -3.745250    0.315081
    122          8           0       -1.063572   -3.289624   -1.651849
    123          6           0       -2.299481   -3.645750   -0.905174
    124          1           0        2.482225    3.635618   -0.615207
    125          1           0        8.324316    2.225716    1.085881
    126          1           0        7.509019   -3.700906   -0.823358
    127          1           0       -0.102465   -0.307420   -2.080117
    128          1           0        0.318484    2.279459   -1.046704
    129          1           0        1.204272    0.933134   -3.565232
    130          1           0        2.285898    2.217921   -2.987529
    131          1           0        0.632314    2.627834   -3.329998
    132          1           0       -0.136803    0.772184    0.748148
    133          1           0       -0.374209   -0.997169    0.506857
    134          1           0       -2.165663    0.378103   -1.227161
    135          1           0       -2.050067    1.378832    0.176426
    136          1           0        2.973276    5.264889    0.627817
    137          1           0        4.492592    6.085192    0.761815
    138          1           0        3.712901    5.531768    2.262665
    139          1           0        6.231334    6.397285    2.123719
    140          1           0        7.428297    6.106488    3.512761
    141          1           0        5.739695    5.523541    3.559830
    142          1           0        9.697238    0.082434    1.231143
    143          1           0        9.499622   -1.895535   -0.983653
    144          1           0       11.082973    0.987138   -0.314941
    145          1           0        9.624757    1.325129   -1.312638
    146          1           0       10.482085   -0.110896   -1.554400
    147          1           0       10.741087   -2.305537    1.175621
    148          1           0        9.703337   -3.620270    0.656457
    149          1           0        9.462765   -1.636949    2.799043
    150          1           0        9.153393   -3.408441    2.903559
    151          1           0        7.929376   -2.266204    2.188459
    152          1           0        4.987497   -6.283129   -1.438329
    153          1           0        6.599375   -5.498377   -1.485319
    154          1           0        5.497085   -5.327974   -2.909469
    155          1           0        1.006987   -2.856273   -2.724156
    156          1           0       -2.840206   -4.377794   -1.512964
    157          1           0       -2.810575   -2.686639   -0.698676
    158          1           0       -2.183793   -4.188081    0.025930
 ---------------------------------------------------------------------

 SCF Done:  E(RCAM-B3LYP) =  -4069.74422370     A.U. after   19 cycles

 Excitation energies and oscillator strengths:

 Excited State   1:      Singlet-A      1.6272 eV  761.95 nm  f=0.0189  <S**2>=0.000
     309 -> 315        0.12999
     311 -> 313        0.54625
     312 -> 314        0.41904
 This state for optimization and/or second-order correction.
 Total Energy, E(TD-HF/TD-DFT) =  -4069.68442520
 Copying the excited state density for this state as the 1-particle RhoCI density.

 Excited State   2:      Singlet-A      1.7053 eV  727.07 nm  f=0.6658  <S**2>=0.000
     309 -> 315       -0.11100
     310 -> 316       -0.14364
     311 -> 313       -0.41527
     312 -> 314        0.54284

 Excited State   3:      Singlet-A      2.1218 eV  584.33 nm  f=0.0897  <S**2>=0.000
     309 -> 313        0.64204
     311 -> 315       -0.24530
     312 -> 313       -0.12088

 Excited State   4:      Singlet-A      2.1784 eV  569.15 nm  f=0.1056  <S**2>=0.000
     310 -> 314        0.61043
     312 -> 313        0.21326
     312 -> 316        0.25818

 Excited State   5:      Singlet-A      2.1877 eV  566.74 nm  f=0.0142  <S**2>=0.000
     309 -> 313        0.10155
     310 -> 314       -0.20016
     312 -> 313        0.66172

 The electronic state is 1-A.
 Alpha  occ. eigenvalues --  -46.87409 -46.87146 -19.26400 -19.24248 -19.19372
 Alpha  occ. eigenvalues --  -19.19264 -19.18525 -19.18458 -19.17593 -19.17521
 Alpha  occ. eigenvalues --  -14.42838 -14.42299 -14.41631 -14.41092 -14.39477
 Alpha  occ. eigenvalues --  -14.39103 -14.38551 -14.38315 -10.39255 -10.37555
 Alpha  occ. eigenvalues --  -10.35998 -10.35211 -10.34618 -10.33658 -10.31893
 Alpha  occ. eigenvalues --  -10.31621 -10.31367 -10.31054 -10.31041 -10.30995
 Alpha  occ. eigenvalues --  -10.30803 -10.30512 -10.30388 -10.30215 -10.30136
 Alpha  occ. eigenvalues --  -10.30073 -10.29927 -10.29633 -10.29528 -10.29417
 Alpha  occ. eigenvalues --  -10.29198 -10.29147 -10.29054 -10.28751 -10.28648
 Alpha  occ. eigenvalues --  -10.28631 -10.28450 -10.28172 -10.28161 -10.28118
 Alpha  occ. eigenvalues --  -10.28076 -10.27970 -10.27965 -10.27963 -10.27857
 Alpha  occ. eigenvalues --  -10.27850 -10.27827 -10.27691 -10.27503 -10.27438
 Alpha  occ. eigenvalues --  -10.27357 -10.27325 -10.27318 -10.27216 -10.27177
 Alpha  occ. eigenvalues --  -10.27166 -10.26962 -10.26901 -10.26574 -10.26519
 Alpha  occ. eigenvalues --  -10.26340 -10.26303 -10.26273 -10.26121 -10.25968
 Alpha  occ. eigenvalues --  -10.25784 -10.25702 -10.25679 -10.25564 -10.25308
 Alpha  occ. eigenvalues --  -10.25223 -10.25222 -10.24974 -10.24566 -10.24536
 Alpha  occ. eigenvalues --  -10.24422  -3.16160  -3.16148  -1.91042  -1.91033
 Alpha  occ. eigenvalues --   -1.90642  -1.90631  -1.90473  -1.90467  -1.16768
 Alpha  occ. eigenvalues --   -1.14754  -1.08991  -1.08054  -1.07775  -1.06865
 Alpha  occ. eigenvalues --   -1.06783  -1.05355  -1.05135  -1.04267  -1.04162
 Alpha  occ. eigenvalues --   -1.03820  -1.03422  -1.02952  -1.02775  -1.01838
 Alpha  occ. eigenvalues --   -0.92450  -0.91562  -0.89942  -0.89619  -0.89290
 Alpha  occ. eigenvalues --   -0.89214  -0.88697  -0.88480  -0.88092  -0.88003
 Alpha  occ. eigenvalues --   -0.87792  -0.87626  -0.87476  -0.86916  -0.85332
 Alpha  occ. eigenvalues --   -0.85199  -0.84416  -0.83600  -0.83476  -0.83022
 Alpha  occ. eigenvalues --   -0.82759  -0.82611  -0.82014  -0.81139  -0.80891
 Alpha  occ. eigenvalues --   -0.79741  -0.79219  -0.78392  -0.77828  -0.77557
 Alpha  occ. eigenvalues --   -0.77287  -0.76611  -0.76289  -0.75281  -0.75220
 Alpha  occ. eigenvalues --   -0.74304  -0.73227  -0.72492  -0.72062  -0.71331
 Alpha  occ. eigenvalues --   -0.70340  -0.70020  -0.69503  -0.69159  -0.68082
 Alpha  occ. eigenvalues --   -0.67803  -0.67552  -0.67239  -0.65687  -0.65294
 Alpha  occ. eigenvalues --   -0.65259  -0.64974  -0.64689  -0.64528  -0.64150
 Alpha  occ. eigenvalues --   -0.63845  -0.62546  -0.61299  -0.60902  -0.60476
 Alpha  occ. eigenvalues --   -0.60111  -0.59701  -0.59387  -0.58914  -0.58671
 Alpha  occ. eigenvalues --   -0.58088  -0.57971  -0.57661  -0.57061  -0.56911
 Alpha  occ. eigenvalues --   -0.56648  -0.56213  -0.56057  -0.55931  -0.55713
 Alpha  occ. eigenvalues --   -0.55529  -0.55148  -0.54851  -0.54776  -0.54329
 Alpha  occ. eigenvalues --   -0.54138  -0.53894  -0.53670  -0.53611  -0.53495
 Alpha  occ. eigenvalues --   -0.53257  -0.53209  -0.53116  -0.52919  -0.52792
 Alpha  occ. eigenvalues --   -0.52492  -0.52260  -0.51974  -0.51838  -0.51540
 Alpha  occ. eigenvalues --   -0.51489  -0.51270  -0.51110  -0.51020  -0.50661
 Alpha  occ. eigenvalues --   -0.50431  -0.50324  -0.50057  -0.49878  -0.49766
 Alpha  occ. eigenvalues --   -0.49673  -0.49451  -0.49379  -0.49212  -0.49043
 Alpha  occ. eigenvalues --   -0.48941  -0.48780  -0.48720  -0.48309  -0.48237
 Alpha  occ. eigenvalues --   -0.48150  -0.47976  -0.47800  -0.47726  -0.47619
 Alpha  occ. eigenvalues --   -0.47167  -0.46949  -0.46795  -0.46537  -0.46454
 Alpha  occ. eigenvalues --   -0.46157  -0.45989  -0.45955  -0.45724  -0.45335
 Alpha  occ. eigenvalues --   -0.45234  -0.45033  -0.44920  -0.44782  -0.44690
 Alpha  occ. eigenvalues --   -0.44605  -0.44383  -0.44362  -0.44116  -0.43954
 Alpha  occ. eigenvalues --   -0.43891  -0.43868  -0.43650  -0.43615  -0.43441
 Alpha  occ. eigenvalues --   -0.43225  -0.43072  -0.42833  -0.42665  -0.42559
 Alpha  occ. eigenvalues --   -0.42321  -0.42273  -0.42140  -0.41936  -0.41822
 Alpha  occ. eigenvalues --   -0.41619  -0.41344  -0.41329  -0.41215  -0.41169
 Alpha  occ. eigenvalues --   -0.41056  -0.40883  -0.40725  -0.40551  -0.40390
 Alpha  occ. eigenvalues --   -0.40373  -0.40343  -0.39938  -0.39594  -0.39332
 Alpha  occ. eigenvalues --   -0.39145  -0.38398  -0.38068  -0.37791  -0.37492
 Alpha  occ. eigenvalues --   -0.37090  -0.37043  -0.36957  -0.36485  -0.36180
 Alpha  occ. eigenvalues --   -0.36133  -0.34982  -0.34055  -0.34013  -0.33942
 Alpha  occ. eigenvalues --   -0.33196  -0.33003  -0.32299  -0.31878  -0.31414
 Alpha  occ. eigenvalues --   -0.31077  -0.30634  -0.30335  -0.29826  -0.29409
 Alpha  occ. eigenvalues --   -0.29084  -0.28898  -0.28548  -0.24299  -0.23737
 Alpha  occ. eigenvalues --   -0.21640  -0.20879
 Alpha virt. eigenvalues --   -0.09294  -0.08515  -0.02121  -0.01451  -0.00648
 Alpha virt. eigenvalues --    0.00198   0.01523   0.02585   0.03419   0.04011
 Alpha virt. eigenvalues --    0.04512   0.04865   0.05124   0.06245   0.06381

 Mulliken charges:
               1
     1  Mg   0.369478
     2  C    0.035377
     3  C   -0.091917
     4  C   -0.044633
     5  C   -0.055836
     6  N   -0.242814
     7  C   -0.058565
     8  C   -0.013133
     9  C   -0.085015
    10  C    0.054780
    11  C    0.105143
    12  C    0.050061
    13  C   -0.072296
    14  H    0.039873
    15  N   -0.425484
    16  C    0.180004
    17  C   -0.176858
    18  C   -0.008126
    19  C    0.153037
    20  C    0.110621
    21  C    0.009711
    22  O   -0.249353
    23  C    0.063280
    24  N   -0.313855
    25  C    0.044829
    26  C   -0.026606
    27  C   -0.023263
    28  C    0.063418
    29  C    0.077070
    30  C    0.043851
    31  C   -0.018508
    32  N   -0.293949
    33  C    0.091329
    34  C   -0.204563
    35  C   -0.036827
    36  C    0.020466
    37  C    0.145994
    38  C    0.017912
    39  O   -0.182396
    40  C    0.004406
    41  C    0.215875
    42  O   -0.245625
    43  O   -0.305250
    44  C    0.155110
    45  H   -0.017961
    46  H   -0.018517
    47  H   -0.043167
    48  H    0.001606
    49  H   -0.003668
    50  H    0.026639
    51  H    0.016901
    52  H    0.017406
    53  H    0.012648
    54  H    0.048681
    55  H    0.017957
    56  H    0.017618
    57  H    0.007506
    58  H    0.028134
    59  H    0.039138
    60  H    0.039076
    61  H    0.035899
    62  H    0.029318
    63  H    0.013959
    64  H    0.010748
    65  H    0.023310
    66  H    0.013295
    67  H    0.006146
    68  H    0.006869
    69  H    0.006866
    70  H    0.010541
    71  H    0.023703
    72  H    0.027687
    73  H    0.039857
    74  H    0.011868
    75  H    0.048499
    76  H    0.036124
    77  H    0.044064
    78  H    0.046184
    79  H    0.059950
    80  Mg   0.837140
    81  C   -0.013975
    82  C   -0.089109
    83  C   -0.046258
    84  C   -0.065922
    85  N   -0.253799
    86  C   -0.046857
    87  C   -0.031055
    88  C   -0.097247
    89  C    0.043081
    90  C    0.113546
    91  C    0.165559
    92  C   -0.265284
    93  H    0.236311
    94  N   -0.423378
    95  C    0.161940
    96  C   -0.175021
    97  C   -0.008755
    98  C    0.151946
    99  C    0.099194
   100  C    0.014974
   101  O   -0.253910
   102  C    0.061556
   103  N   -0.350360
   104  C    0.037331
   105  C   -0.019568
   106  C   -0.034862
   107  C    0.089542
   108  C    0.073902
   109  C    0.034877
   110  C   -0.007569
   111  N   -0.324230
   112  C    0.079140
   113  C   -0.163603
   114  C    0.003766
   115  C    0.095210
   116  C    0.131375
   117  C    0.042175
   118  O   -0.184548
   119  C    0.007369
   120  C    0.212470
   121  O   -0.245973
   122  O   -0.316807
   123  C    0.232000
   124  H   -0.017814
   125  H   -0.016462
   126  H   -0.040880
   127  H    0.003789
   128  H    0.002399
   129  H    0.024643
   130  H    0.012465
   131  H    0.022285
   132  H    0.011547
   133  H    0.046475
   134  H    0.166526
   135  H    0.151807
   136  H    0.008709
   137  H    0.025979
   138  H    0.036917
   139  H    0.038019
   140  H    0.035552
   141  H    0.032623
   142  H    0.013812
   143  H    0.012080
   144  H    0.024490
   145  H    0.011560
   146  H    0.005206
   147  H    0.005699
   148  H    0.003584
   149  H    0.010479
   150  H    0.017571
   151  H    0.030576
   152  H    0.047064
   153  H    0.007698
   154  H    0.046377
   155  H    0.030867
   156  H    0.024005
   157  H    0.033849
   158  H    0.062553
 Sum of Mulliken charges =  -0.00000

 Dipole moment (field-independent basis, Debye):
    X=             -2.9399    Y=              7.1698    Z=              2.1522  Tot=              8.0424
 Quadrupole moment (field-independent basis, Debye-Ang):
   XX=           -493.0406   YY=           -545.2788   ZZ=           -472.5182
   XY=            -32.7402   XZ=            -23.0014   YZ=              8.0858

 Normal termination of Gaussian 16 at Thu Sep  9 22:51:33 2021.
