 Gaussian 16, Revision A.03,
 Gaussian 16:  ES64L-G16RevA.03 25-Dec-2016

 -----------------------------------
 #p cam-b3lyp/Def2SVP td=(nstates=5)
 -----------------------------------

 --------------------------------
 TDDFT excited states in gaussian
 --------------------------------
 Symbolic Z-matrix:
 Charge =  0 Multiplicity = 1

                         Standard orientation:
 ---------------------------------------------------------------------
 Center     Atomic      Atomic             Coordinates (Angstroms)
 Number     Number       Type             X           Y           Z
 ---------------------------------------------------------------------
      1         12           0        4.252487    0.142499    0.522988
      2          6           0        4.282601   -3.001345   -1.188021
      3          6           0        5.466831    1.544128   -2.341252
      4          6           0        4.663645    2.836531    2.144643
      5          6           0        4.137015   -1.651056    3.508869
      6          7           0        4.766757   -0.722551   -1.448778
      7          6           0        4.675638   -1.931162   -1.994788
      8          6           0        4.964590   -1.940854   -3.525732
      9          6           0        5.853095   -0.620559   -3.622569
     10          6           0        5.306411    0.128836   -2.420294
     11          6           0        7.342425   -0.871441   -3.409361
     12          6           0        3.657264   -1.815425   -4.378315
     13          6           0        3.813629   -2.142660   -5.866207
     14          1           0        2.717248   -2.805034   -6.556538
     15          7           0        4.491057    1.997403   -0.113618
     16          6           0        4.983830    2.384312   -1.314769
     17          6           0        4.961068    3.862863   -1.307529
     18          6           0        4.593127    4.305551    0.066057
     19          6           0        4.593493    3.048509    0.769779
     20          6           0        5.220034    4.695736   -2.525318
     21          6           0        4.299643    5.649614    0.653844
     22          8           0        4.228997    5.839188    1.916241
     23          6           0        4.183062    6.770797   -0.296102
     24          7           0        4.604301    0.545810    2.540710
     25          6           0        4.685008    1.803320    2.989193
     26          6           0        4.655875    1.851364    4.488120
     27          6           0        4.292090    0.373379    4.970795
     28          6           0        4.253824   -0.323616    3.588405
     29          6           0        5.954736    2.305234    5.168540
     30          6           0        3.067639    0.221036    5.907774
     31          6           0        1.800702    0.563772    5.156442
     32          7           0        4.037302   -1.941149    1.091449
     33          6           0        4.038154   -2.464566    2.392490
     34          6           0        3.974153   -3.932351    2.267670
     35          6           0        3.957131   -4.163039    0.893502
     36          6           0        4.033802   -2.919530    0.203502
     37          6           0        3.997769   -4.862108    3.344437
     38          6           0        3.916857   -5.172065   -0.152491
     39          8           0        3.754325   -6.392975   -0.173804
     40          6           0        4.248787   -4.467461   -1.541441
     41          6           0        3.222056   -4.926378   -2.540705
     42          8           0        2.023735   -4.598365   -2.423233
     43          8           0        3.843115   -5.473834   -3.596698
     44          6           0        2.882352   -5.923557   -4.639213
     45          1           0        6.065929    2.050641   -3.100507
     46          1           0        4.694507    3.748035    2.745181
     47          1           0        4.012436   -2.272175    4.397769
     48          1           0        5.536393   -2.800826   -3.874894
     49          1           0        5.655690   -0.063447   -4.538200
     50          1           0        7.532823   -1.898287   -3.097500
     51          1           0        7.646238   -0.173899   -2.628576
     52          1           0        7.912705   -0.595027   -4.296578
     53          1           0        3.373060   -0.765466   -4.448143
     54          1           0        2.860856   -2.429157   -3.955951
     55          1           0        4.755280   -2.655284   -6.064747
     56          1           0        3.894781   -1.204645   -6.415518
     57          1           0        5.625073    4.097782   -3.340756
     58          1           0        6.022083    5.388870   -2.272351
     59          1           0        4.336631    5.253506   -2.836482
     60          1           0        5.113899    6.866833   -0.855449
     61          1           0        3.883219    7.635582    0.294738
     62          1           0        3.409056    6.535199   -1.027100
     63          1           0        3.891072    2.541247    4.842471
     64          1           0        5.109677   -0.088956    5.524394
     65          1           0        5.828259    3.169199    5.821437
     66          1           0        6.690018    2.507521    4.390253
     67          1           0        6.460273    1.533992    5.749088
     68          1           0        3.141910    0.914712    6.744580
     69          1           0        2.961935   -0.783363    6.317969
     70          1           0        1.759335    1.649805    5.231630
     71          1           0        0.936606    0.105822    5.638967
     72          1           0        1.884994    0.313345    4.098771
     73          1           0        3.240349   -5.612019    3.116581
     74          1           0        3.795397   -4.371123    4.296058
     75          1           0        5.021893   -5.228031    3.272837
     76          1           0        5.256055   -4.777788   -1.817538
     77          1           0        3.078404   -6.980144   -4.822028
     78          1           0        2.991327   -5.236154   -5.478264
     79          1           0        1.832694   -5.956886   -4.345195
     80         12           0       -3.638205    0.886863   -0.027700
     81          6           0       -6.441728   -1.341460    0.204545
     82          6           0       -5.650288    2.993785   -1.801668
     83          6           0       -1.077892    2.659427   -0.636181
     84          6           0       -1.593034   -1.829356    0.737271
     85          7           0       -5.754452    0.735023   -0.652752
     86          6           0       -6.737741   -0.129888   -0.454182
     87          6           0       -8.133235    0.364514   -0.920776
     88          6           0       -7.654563    1.436688   -2.016299
     89          6           0       -6.280273    1.775487   -1.442541
     90          6           0       -7.460313    0.838041   -3.399497
     91          6           0       -8.942866    1.048092    0.236475
     92          6           0      -10.425898    1.276372   -0.063973
     93          1           0      -11.385693    1.145000    1.028724
     94          7           0       -3.495197    2.772891   -0.628528
     95          6           0       -4.415467    3.479251   -1.318068
     96          6           0       -3.824021    4.809029   -1.532623
     97          6           0       -2.414140    4.777580   -1.057263
     98          6           0       -2.264791    3.365371   -0.768400
     99          6           0       -4.609614    5.973049   -2.063014
    100          6           0       -1.368770    5.840267   -0.902014
    101          8           0       -0.137659    5.548815   -0.696427
    102          6           0       -1.812674    7.229093   -1.090656
    103          7           0       -1.613319    0.437317   -0.169391
    104          6           0       -0.704658    1.403123   -0.391826
    105          6           0        0.699699    0.890165   -0.179564
    106          6           0        0.533174   -0.561931    0.469479
    107          6           0       -1.006507   -0.678873    0.436344
    108          6           0        1.568079    0.790312   -1.433492
    109          6           0        1.265238   -0.819574    1.814988
    110          6           0        0.644515    0.018915    2.909071
    111          7           0       -3.939517   -1.165077    0.577944
    112          6           0       -2.944847   -2.137522    0.821048
    113          6           0       -3.639746   -3.412399    1.093496
    114          6           0       -5.000676   -3.095891    0.966319
    115          6           0       -5.143147   -1.725552    0.617973
    116          6           0       -3.011773   -4.661335    1.361701
    117          6           0       -6.348773   -3.611963    1.037125
    118          8           0       -6.852472   -4.682671    1.374178
    119          6           0       -7.337239   -2.529278    0.423016
    120          6           0       -8.495821   -2.368718    1.368752
    121          8           0       -8.322426   -1.897093    2.506346
    122          8           0       -9.642980   -2.592949    0.702323
    123          6           0      -10.821470   -2.434640    1.595583
    124          1           0       -6.124841    3.620127   -2.557573
    125          1           0       -0.164400    3.251587   -0.727584
    126          1           0       -1.029590   -2.699623    1.080534
    127          1           0       -8.751016   -0.393369   -1.387406
    128          1           0       -8.295049    2.314836   -2.015709
    129          1           0       -7.562621   -0.236950   -3.391242
    130          1           0       -6.461325    1.120689   -3.704717
    131          1           0       -8.139241    1.312059   -4.114140
    132          1           0       -8.609819    2.088786    0.340234
    133          1           0       -8.840128    0.496547    1.150732
    134          1           0      -10.761110    0.708376   -0.940302
    135          1           0      -10.564671    2.321109   -0.352591
    136          1           0       -5.572631    5.652276   -2.479082
    137          1           0       -4.058396    6.364787   -2.924743
    138          1           0       -4.728728    6.771164   -1.327152
    139          1           0       -2.236552    7.340729   -2.085807
    140          1           0       -0.945661    7.848025   -0.851721
    141          1           0       -2.619713    7.438073   -0.379572
    142          1           0        1.242532    1.523674    0.511166
    143          1           0        0.922509   -1.350564   -0.191053
    144          1           0        2.509969    1.365979   -1.359100
    145          1           0        0.984030    1.124586   -2.280658
    146          1           0        1.841596   -0.221896   -1.726415
    147          1           0        2.310863   -0.510461    1.742470
    148          1           0        1.257639   -1.861184    2.118299
    149          1           0        1.135598    0.988778    2.785373
    150          1           0        0.856664   -0.409070    3.886751
    151          1           0       -0.427028    0.166971    2.731480
    152          1           0       -3.553297   -5.112153    2.182681
    153          1           0       -1.958381   -4.533206    1.601963
    154          1           0       -3.155607   -5.162328    0.400674
    155          1           0       -7.654555   -2.892846   -0.555103
    156          1           0      -11.392229   -3.366736    1.539687
    157          1           0      -11.329858   -1.511719    1.258684
    158          1           0      -10.636778   -2.363309    2.661062
 ---------------------------------------------------------------------

 SCF Done:  E(RCAM-B3LYP) =  -4069.74536513     A.U. after   19 cycles

 Excitation energies and oscillator strengths:

 Excited State   1:      Singlet-A      1.6226 eV  764.09 nm  f=0.0007  <S**2>=0.000
     309 -> 315        0.11486
     310 -> 316       -0.10963
     311 -> 313        0.49291
     312 -> 314       -0.47525
 This state for optimization and/or second-order correction.
 Total Energy, E(TD-HF/TD-DFT) =  -4069.68573406
 Copying the excited state density for this state as the 1-particle RhoCI density.

 Excited State   2:      Singlet-A      1.7102 eV  724.96 nm  f=0.6588  <S**2>=0.000
     309 -> 315        0.12623
     310 -> 316        0.12823
     311 -> 313        0.47091
     312 -> 314        0.49131

 Excited State   3:      Singlet-A      2.1785 eV  569.13 nm  f=0.0998  <S**2>=0.000
     309 -> 313       -0.35485
     310 -> 314        0.51091
     311 -> 315        0.15115
     312 -> 313       -0.17999
     312 -> 316       -0.21171

 Excited State   4:      Singlet-A      2.1817 eV  568.29 nm  f=0.0926  <S**2>=0.000
     309 -> 313        0.47273
     310 -> 314        0.39060
     311 -> 315       -0.19722
     312 -> 313        0.20809
     312 -> 316       -0.15719

 Excited State   5:      Singlet-A      2.2074 eV  561.69 nm  f=0.0137  <S**2>=0.000
     309 -> 313       -0.25247
     311 -> 315        0.10574
     312 -> 313        0.64377

 The electronic state is 1-A.
 Alpha  occ. eigenvalues --  -46.87995 -46.87417 -19.26453 -19.26185 -19.19254
 Alpha  occ. eigenvalues --  -19.18987 -19.18694 -19.18526 -19.18265 -19.17831
 Alpha  occ. eigenvalues --  -14.42540 -14.42254 -14.41526 -14.41111 -14.39454
 Alpha  occ. eigenvalues --  -14.39123 -14.38542 -14.38339 -10.39284 -10.38911
 Alpha  occ. eigenvalues --  -10.35350 -10.35149 -10.34496 -10.34005 -10.31805
 Alpha  occ. eigenvalues --  -10.31613 -10.31596 -10.31043 -10.30981 -10.30839
 Alpha  occ. eigenvalues --  -10.30756 -10.30643 -10.30264 -10.30132 -10.30075
 Alpha  occ. eigenvalues --  -10.30064 -10.29890 -10.29714 -10.29672 -10.29269
 Alpha  occ. eigenvalues --  -10.29199 -10.29143 -10.28869 -10.28655 -10.28542
 Alpha  occ. eigenvalues --  -10.28523 -10.28413 -10.28238 -10.28197 -10.27947
 Alpha  occ. eigenvalues --  -10.27904 -10.27854 -10.27762 -10.27611 -10.27558
 Alpha  occ. eigenvalues --  -10.27424 -10.27398 -10.27380 -10.27342 -10.27331
 Alpha  occ. eigenvalues --  -10.27321 -10.27294 -10.27246 -10.27244 -10.27083
 Alpha  occ. eigenvalues --  -10.26864 -10.26840 -10.26538 -10.26405 -10.26332
 Alpha  occ. eigenvalues --  -10.26149 -10.25955 -10.25849 -10.25788 -10.25741
 Alpha  occ. eigenvalues --  -10.25643 -10.25570 -10.25376 -10.25349 -10.25032
 Alpha  occ. eigenvalues --  -10.24918 -10.24846 -10.24627 -10.24472 -10.23161
 Alpha  occ. eigenvalues --  -10.22965  -3.16698  -3.16166  -1.91589  -1.91164
 Alpha  occ. eigenvalues --   -1.91048  -1.91009  -1.90637  -1.90474  -1.16808
 Alpha  occ. eigenvalues --   -1.16476  -1.08737  -1.08437  -1.06932  -1.06905
 Alpha  occ. eigenvalues --   -1.06853  -1.06770  -1.04703  -1.04263  -1.03876
 Alpha  occ. eigenvalues --   -1.03422  -1.03358  -1.02787  -1.02510  -1.01870
 Alpha  occ. eigenvalues --   -0.92118  -0.91749  -0.89663  -0.89354  -0.89217
 Alpha  occ. eigenvalues --   -0.88960  -0.88341  -0.88122  -0.87943  -0.87798
 Alpha  occ. eigenvalues --   -0.87497  -0.87424  -0.87174  -0.86953  -0.85121
 Alpha  occ. eigenvalues --   -0.84835  -0.84475  -0.83657  -0.82979  -0.82701
 Alpha  occ. eigenvalues --   -0.82529  -0.82450  -0.81695  -0.81394  -0.80649
 Alpha  occ. eigenvalues --   -0.80253  -0.78813  -0.78434  -0.77689  -0.77160
 Alpha  occ. eigenvalues --   -0.76861  -0.76678  -0.76033  -0.75670  -0.75137
 Alpha  occ. eigenvalues --   -0.74540  -0.72883  -0.72509  -0.71769  -0.71402
 Alpha  occ. eigenvalues --   -0.71065  -0.69162  -0.68755  -0.68528  -0.67713
 Alpha  occ. eigenvalues --   -0.67393  -0.67233  -0.67042  -0.65493  -0.65193
 Alpha  occ. eigenvalues --   -0.64999  -0.64817  -0.64568  -0.64466  -0.64309
 Alpha  occ. eigenvalues --   -0.63672  -0.62448  -0.62064  -0.60422  -0.60184
 Alpha  occ. eigenvalues --   -0.59928  -0.59586  -0.59074  -0.58801  -0.58583
 Alpha  occ. eigenvalues --   -0.58233  -0.57756  -0.57400  -0.57332  -0.57108
 Alpha  occ. eigenvalues --   -0.56627  -0.56165  -0.55988  -0.55890  -0.55707
 Alpha  occ. eigenvalues --   -0.55450  -0.55396  -0.55274  -0.54760  -0.54600
 Alpha  occ. eigenvalues --   -0.54039  -0.53725  -0.53480  -0.53340  -0.53157
 Alpha  occ. eigenvalues --   -0.53021  -0.52959  -0.52758  -0.52650  -0.52568
 Alpha  occ. eigenvalues --   -0.52475  -0.52288  -0.52049  -0.51626  -0.51551
 Alpha  occ. eigenvalues --   -0.51498  -0.51415  -0.50956  -0.50423  -0.50296
 Alpha  occ. eigenvalues --   -0.50145  -0.50029  -0.49777  -0.49579  -0.49420
 Alpha  occ. eigenvalues --   -0.49339  -0.49242  -0.49167  -0.48999  -0.48898
 Alpha  occ. eigenvalues --   -0.48716  -0.48478  -0.48343  -0.48323  -0.48250
 Alpha  occ. eigenvalues --   -0.48108  -0.47592  -0.47426  -0.47280  -0.47228
 Alpha  occ. eigenvalues --   -0.46982  -0.46844  -0.46606  -0.46539  -0.46408
 Alpha  occ. eigenvalues --   -0.46304  -0.46013  -0.45873  -0.45782  -0.45566
 Alpha  occ. eigenvalues --   -0.45353  -0.45060  -0.44744  -0.44464  -0.44384
 Alpha  occ. eigenvalues --   -0.44336  -0.44122  -0.44073  -0.43959  -0.43930
 Alpha  occ. eigenvalues --   -0.43823  -0.43749  -0.43596  -0.43503  -0.43287
 Alpha  occ. eigenvalues --   -0.43126  -0.43066  -0.42861  -0.42774  -0.42691
 Alpha  occ. eigenvalues --   -0.42469  -0.42346  -0.41881  -0.41773  -0.41678
 Alpha  occ. eigenvalues --   -0.41503  -0.41363  -0.41176  -0.41077  -0.40896
 Alpha  occ. eigenvalues --   -0.40832  -0.40638  -0.40584  -0.40500  -0.40356
 Alpha  occ. eigenvalues --   -0.40205  -0.40075  -0.40039  -0.39268  -0.38429
 Alpha  occ. eigenvalues --   -0.38120  -0.37850  -0.37536  -0.37366  -0.37281
 Alpha  occ. eigenvalues --   -0.37047  -0.36989  -0.36821  -0.36638  -0.36268
 Alpha  occ. eigenvalues --   -0.36220  -0.34364  -0.34024  -0.33986  -0.33828
 Alpha  occ. eigenvalues --   -0.33633  -0.33250  -0.32889  -0.31235  -0.31194
 Alpha  occ. eigenvalues --   -0.30998  -0.30716  -0.30121  -0.29730  -0.29410
 Alpha  occ. eigenvalues --   -0.29346  -0.29122  -0.28950  -0.24191  -0.23772
 Alpha  occ. eigenvalues --   -0.21262  -0.20864
 Alpha virt. eigenvalues --   -0.08868  -0.08553  -0.01853  -0.01449   0.00008
 Alpha virt. eigenvalues --    0.00127   0.02099   0.02464   0.03440   0.04525
 Alpha virt. eigenvalues --    0.04871   0.04954   0.05329   0.05456   0.06041

 Mulliken charges:
               1
     1  Mg   0.678305
     2  C   -0.001563
     3  C   -0.082294
     4  C   -0.047520
     5  C   -0.054303
     6  N   -0.244810
     7  C   -0.058489
     8  C   -0.013923
     9  C   -0.085643
    10  C    0.043648
    11  C    0.104587
    12  C    0.047635
    13  C   -0.070746
    14  H    0.036572
    15  N   -0.433348
    16  C    0.159239
    17  C   -0.173706
    18  C   -0.001022
    19  C    0.156672
    20  C    0.111145
    21  C    0.024430
    22  O   -0.249226
    23  C    0.058220
    24  N   -0.319915
    25  C    0.038630
    26  C   -0.024262
    27  C   -0.022292
    28  C    0.057809
    29  C    0.077861
    30  C    0.064465
    31  C    0.008078
    32  N   -0.303943
    33  C    0.063371
    34  C   -0.170194
    35  C    0.009369
    36  C    0.075848
    37  C    0.128263
    38  C    0.041723
    39  O   -0.187985
    40  C   -0.007915
    41  C    0.213211
    42  O   -0.259910
    43  O   -0.304145
    44  C    0.157284
    45  H   -0.018144
    46  H   -0.016327
    47  H   -0.043872
    48  H   -0.000118
    49  H   -0.003858
    50  H    0.026020
    51  H    0.018126
    52  H    0.016993
    53  H    0.014079
    54  H    0.045112
    55  H    0.018326
    56  H    0.018433
    57  H    0.004522
    58  H    0.026761
    59  H    0.045677
    60  H    0.032304
    61  H    0.034945
    62  H    0.045171
    63  H    0.017442
    64  H    0.008335
    65  H    0.023552
    66  H    0.012597
    67  H    0.004980
    68  H   -0.002471
    69  H   -0.004371
    70  H    0.003138
    71  H    0.018842
    72  H   -0.020369
    73  H    0.045496
    74  H    0.008781
    75  H    0.046655
    76  H    0.036134
    77  H    0.043754
    78  H    0.046776
    79  H    0.053788
    80  Mg   0.838968
    81  C   -0.017626
    82  C   -0.088434
    83  C   -0.045159
    84  C   -0.065353
    85  N   -0.254644
    86  C   -0.049300
    87  C   -0.015155
    88  C   -0.090398
    89  C    0.045449
    90  C    0.114637
    91  C    0.062607
    92  C   -0.077566
    93  H    0.034366
    94  N   -0.422984
    95  C    0.162234
    96  C   -0.175820
    97  C   -0.009611
    98  C    0.151257
    99  C    0.099813
   100  C    0.016270
   101  O   -0.257313
   102  C    0.061224
   103  N   -0.350983
   104  C    0.041503
   105  C   -0.058149
   106  C   -0.038553
   107  C    0.100453
   108  C    0.057363
   109  C    0.021492
   110  C    0.072732
   111  N   -0.324499
   112  C    0.076649
   113  C   -0.161127
   114  C    0.001782
   115  C    0.097070
   116  C    0.132748
   117  C    0.042884
   118  O   -0.187597
   119  C    0.000869
   120  C    0.211162
   121  O   -0.251347
   122  O   -0.305603
   123  C    0.152179
   124  H   -0.020928
   125  H   -0.016807
   126  H   -0.031379
   127  H   -0.000879
   128  H   -0.004985
   129  H    0.022418
   130  H    0.014245
   131  H    0.015349
   132  H    0.013895
   133  H    0.037581
   134  H    0.020618
   135  H    0.019287
   136  H    0.008363
   137  H    0.024144
   138  H    0.038945
   139  H    0.037383
   140  H    0.034178
   141  H    0.035302
   142  H    0.039188
   143  H    0.037191
   144  H    0.081337
   145  H    0.002956
   146  H    0.034747
   147  H    0.032602
   148  H    0.016974
   149  H    0.003609
   150  H    0.010437
   151  H    0.010443
   152  H    0.044253
   153  H    0.012914
   154  H    0.050526
   155  H    0.034930
   156  H    0.043690
   157  H    0.049211
   158  H    0.053347
 Sum of Mulliken charges =  -0.00000

 Dipole moment (field-independent basis, Debye):
    X=              1.3974    Y=              6.0803    Z=             -5.8384  Tot=              8.5446
 Quadrupole moment (field-independent basis, Debye-Ang):
   XX=           -468.1010   YY=           -543.1717   ZZ=           -476.3030
   XY=            -31.6826   XZ=              8.4264   YZ=            -12.4121

 Normal termination of Gaussian 16 at Thu Sep  9 11:40:40 2021.
