 Gaussian 16, Revision A.03,
 Gaussian 16:  ES64L-G16RevA.03 25-Dec-2016

 -----------------------------------
 #p cam-b3lyp/Def2SVP td=(nstates=5)
 -----------------------------------

 --------------------------------
 TDDFT excited states in gaussian
 --------------------------------
 Symbolic Z-matrix:
 Charge =  0 Multiplicity = 1

                         Standard orientation:
 ---------------------------------------------------------------------
 Center     Atomic      Atomic             Coordinates (Angstroms)
 Number     Number       Type             X           Y           Z
 ---------------------------------------------------------------------
      1         12           0       -5.017504   -0.962356    0.091059
      2          6           0       -5.372770    1.980446    2.097526
      3          6           0       -6.048204    0.908079   -2.570180
      4          6           0       -5.148797   -3.640752   -1.601744
      5          6           0       -5.122643   -2.809785    3.044297
      6          7           0       -5.605247    1.164433   -0.087739
      7          6           0       -5.640704    2.200374    0.744571
      8          6           0       -5.915732    3.557499    0.030466
      9          6           0       -6.655297    3.011223   -1.272079
     10          6           0       -6.041178    1.623901   -1.336251
     11          6           0       -8.164819    2.872807   -1.102711
     12          6           0       -4.595173    4.314953   -0.335754
     13          6           0       -4.773127    5.782492   -0.735771
     14          1           0       -3.748910    6.742131   -0.351817
     15          7           0       -5.048454   -1.241874   -1.864386
     16          6           0       -5.486045   -0.366148   -2.800816
     17          6           0       -5.303506   -1.038938   -4.104930
     18          6           0       -4.901742   -2.447941   -3.837740
     19          6           0       -5.044211   -2.507951   -2.405441
     20          6           0       -5.460276   -0.339979   -5.420464
     21          6           0       -4.469661   -3.566349   -4.732503
     22          8           0       -4.389859   -4.774298   -4.321326
     23          6           0       -4.224229   -3.220734   -6.144365
     24          7           0       -5.341084   -2.957539    0.612763
     25          6           0       -5.289142   -3.928182   -0.306007
     26          6           0       -5.267970   -5.284819    0.333545
     27          6           0       -5.070431   -5.033014    1.897938
     28          6           0       -5.095826   -3.484596    1.892785
     29          6           0       -6.515945   -6.149896    0.109469
     30          6           0       -3.877815   -5.748862    2.580323
     31          6           0       -2.574771   -5.181406    2.063441
     32          7           0       -5.033960   -0.519827    2.215898
     33          6           0       -5.102712   -1.443403    3.268967
     34          6           0       -5.196819   -0.667069    4.518975
     35          6           0       -5.192951    0.662693    4.102368
     36          6           0       -5.128645    0.713393    2.680543
     37          6           0       -5.330221   -1.208282    5.828069
     38          6           0       -5.253025    2.052148    4.526237
     39          8           0       -5.223368    2.628872    5.614356
     40          6           0       -5.494723    2.958554    3.239444
     41          6           0       -4.515054    4.098877    3.296207
     42          8           0       -3.289341    3.895679    3.179148
     43          8           0       -5.182527    5.261589    3.240322
     44          6           0       -4.267067    6.433590    3.262723
     45          1           0       -6.582380    1.331521   -3.422996
     46          1           0       -5.086058   -4.588722   -2.140126
     47          1           0       -5.073705   -3.316693    4.009751
     48          1           0       -6.574178    4.233212    0.576621
     49          1           0       -6.390847    3.584160   -2.160635
     50          1           0       -8.467897    3.050360   -0.070945
     51          1           0       -8.398131    1.849439   -1.397290
     52          1           0       -8.694136    3.515352   -1.806797
     53          1           0       -4.198440    3.915097   -1.268910
     54          1           0       -3.873533    4.248366    0.479187
     55          1           0       -5.762959    6.151886   -0.466160
     56          1           0       -4.747550    5.845467   -1.823696
     57          1           0       -5.920553    0.640023   -5.300941
     58          1           0       -6.184783   -0.911457   -6.000301
     59          1           0       -4.519046   -0.277799   -5.966864
     60          1           0       -5.134329   -2.803958   -6.576298
     61          1           0       -3.837710   -4.125299   -6.612569
     62          1           0       -3.473954   -2.430782   -6.189223
     63          1           0       -4.436113   -5.880414   -0.040228
     64          1           0       -5.938007   -5.351650    2.476259
     65          1           0       -6.302394   -7.116578   -0.347288
     66          1           0       -7.218253   -5.577820   -0.496158
     67          1           0       -7.106972   -6.340241    1.004943
     68          1           0       -3.883844   -6.810931    2.337590
     69          1           0       -3.884963   -5.656851    3.666479
     70          1           0       -2.416794   -5.736852    1.139669
     71          1           0       -1.769510   -5.369127    2.774445
     72          1           0       -2.676497   -4.129053    1.797562
     73          1           0       -4.656441   -0.635409    6.465098
     74          1           0       -5.084168   -2.269783    5.844664
     75          1           0       -6.387266   -1.021662    6.016975
     76          1           0       -6.527225    3.303071    3.288136
     77          1           0       -4.574696    7.065290    4.096121
     78          1           0       -4.293753    6.866792    2.262708
     79          1           0       -3.229764    6.229944    3.530810
     80         12           0        5.544520   -0.303327   -0.054799
     81          6           0        3.253895    1.898771   -1.722992
     82          6           0        7.855038    2.198666   -0.244789
     83          6           0        7.714959   -2.362275    1.002260
     84          6           0        3.482292   -2.945766   -1.008954
     85          7           0        5.447565    1.739396   -0.897496
     86          6           0        4.505869    2.488626   -1.450864
     87          6           0        4.903752    3.975113   -1.654848
     88          6           0        6.498846    3.793701   -1.695425
     89          6           0        6.620875    2.517313   -0.865586
     90          6           0        7.037178    3.511200   -3.088175
     91          6           0        4.459245    4.882948   -0.454745
     92          6           0        4.538302    6.387500   -0.722786
     93          1           0        3.525261    7.254691   -0.127647
     94          7           0        7.324732    0.014017    0.762943
     95          6           0        8.115631    1.094795    0.596570
     96          6           0        9.325002    0.834724    1.392784
     97          6           0        9.255149   -0.558796    1.910392
     98          6           0        8.079789   -1.040487    1.212836
     99          6           0       10.362346    1.885397    1.663773
    100          6           0       10.112631   -1.334101    2.864249
    101          8           0       10.003516   -2.605253    2.987111
    102          6           0       11.147134   -0.574694    3.581600
    103          7           0        5.708692   -2.371559   -0.188194
    104          6           0        6.724194   -3.024087    0.404175
    105          6           0        6.485568   -4.515206    0.408847
    106          6           0        4.978823   -4.710742   -0.090221
    107          6           0        4.620469   -3.239776   -0.395530
    108          6           0        7.423890   -5.341815   -0.470165
    109          6           0        4.031986   -5.525964    0.832601
    110          6           0        3.777161   -4.763854    2.113079
    111          7           0        3.611866   -0.505335   -0.999317
    112          6           0        2.944855   -1.705549   -1.328960
    113          6           0        1.715917   -1.334080   -2.059813
    114          6           0        1.765237    0.066551   -2.125298
    115          6           0        2.951933    0.533798   -1.498448
    116          6           0        0.763536   -2.242632   -2.601683
    117          6           0        1.088522    1.255430   -2.591489
    118          8           0       -0.000890    1.486197   -3.114616
    119          6           0        2.084778    2.487231   -2.462931
    120          6           0        1.340932    3.620084   -1.810375
    121          8           0        0.947620    3.523710   -0.634520
    122          8           0        1.406917    4.705175   -2.603218
    123          6           0        0.692856    5.858575   -1.993625
    124          1           0        8.719250    2.829733   -0.454063
    125          1           0        8.376103   -3.110304    1.445884
    126          1           0        2.737912   -3.706334   -1.254143
    127          1           0        4.555917    4.415405   -2.581627
    128          1           0        7.003047    4.619788   -1.200726
    129          1           0        6.242962    3.361413   -3.804364
    130          1           0        7.637050    2.615308   -2.995558
    131          1           0        7.725297    4.304331   -3.394383
    132          1           0        5.198189    4.796805    0.352275
    133          1           0        3.470460    4.625554   -0.128133
    134          1           0        4.655977    6.610379   -1.790226
    135          1           0        5.452680    6.773793   -0.265941
    136          1           0       10.226612    2.760955    1.016936
    137          1           0       11.327676    1.468244    1.357191
    138          1           0       10.415983    2.162113    2.718861
    139          1           0       11.813653   -0.104336    2.862586
    140          1           0       11.596585   -1.282082    4.281218
    141          1           0       10.663335    0.235224    4.138909
    142          1           0        6.579471   -4.918741    1.409567
    143          1           0        4.933491   -5.250444   -1.047557
    144          1           0        7.967358   -6.126673    0.089046
    145          1           0        8.119356   -4.668974   -0.954054
    146          1           0        6.949364   -5.832663   -1.318162
    147          1           0        4.503491   -6.468630    1.121061
    148          1           0        3.081746   -5.769690    0.369327
    149          1           0        4.648689   -5.012661    2.725951
    150          1           0        2.855244   -5.101062    2.582567
    151          1           0        3.795667   -3.681969    1.937504
    152          1           0       -0.214815   -1.847252   -2.362940
    153          1           0        0.896983   -3.244952   -2.200025
    154          1           0        1.022944   -2.187545   -3.662316
    155          1           0        2.420508    2.743369   -3.468549
    156          1           0       -0.046415    6.199437   -2.725046
    157          1           0        1.481242    6.577584   -1.701708
    158          1           0        0.063830    5.660849   -1.133566
 ---------------------------------------------------------------------

 SCF Done:  E(RCAM-B3LYP) =  -4069.81137929     A.U. after   19 cycles

 Excitation energies and oscillator strengths:

 Excited State   1:      Singlet-A      1.6598 eV  746.97 nm  f=0.2457  <S**2>=0.000
     309 -> 315       -0.13129
     310 -> 316       -0.10674
     311 -> 313        0.53069
     312 -> 314       -0.43613
 This state for optimization and/or second-order correction.
 Total Energy, E(TD-HF/TD-DFT) =  -4069.75038147
 Copying the excited state density for this state as the 1-particle RhoCI density.

 Excited State   2:      Singlet-A      1.6921 eV  732.73 nm  f=0.5261  <S**2>=0.000
     309 -> 315       -0.11254
     310 -> 316        0.13719
     311 -> 313        0.43491
     312 -> 314        0.52919

 Excited State   3:      Singlet-A      2.1803 eV  568.65 nm  f=0.0102  <S**2>=0.000
     309 -> 313        0.54304
     310 -> 314       -0.34773
     311 -> 315        0.22677
     312 -> 316        0.14373

 Excited State   4:      Singlet-A      2.1934 eV  565.27 nm  f=0.1669  <S**2>=0.000
     309 -> 313        0.34443
     310 -> 314        0.53892
     311 -> 315        0.14990
     312 -> 316       -0.23516

 Excited State   5:      Singlet-A      2.3950 eV  517.67 nm  f=0.0000  <S**2>=0.000
     312 -> 313        0.70594

 The electronic state is 1-A.
 Alpha  occ. eigenvalues --  -46.87561 -46.87238 -19.26285 -19.25791 -19.19017
 Alpha  occ. eigenvalues --  -19.18628 -19.18444 -19.18375 -19.18041 -19.17674
 Alpha  occ. eigenvalues --  -14.42403 -14.41897 -14.41266 -14.40945 -14.39257
 Alpha  occ. eigenvalues --  -14.38850 -14.38504 -14.38044 -10.38961 -10.38516
 Alpha  occ. eigenvalues --  -10.35305 -10.35010 -10.34209 -10.33892 -10.31748
 Alpha  occ. eigenvalues --  -10.31273 -10.31224 -10.30932 -10.30862 -10.30348
 Alpha  occ. eigenvalues --  -10.30307 -10.30273 -10.30043 -10.30028 -10.30012
 Alpha  occ. eigenvalues --  -10.29805 -10.29726 -10.29466 -10.29340 -10.29314
 Alpha  occ. eigenvalues --  -10.29129 -10.28725 -10.28636 -10.28568 -10.28317
 Alpha  occ. eigenvalues --  -10.28202 -10.28142 -10.28066 -10.27917 -10.27814
 Alpha  occ. eigenvalues --  -10.27591 -10.27581 -10.27422 -10.27393 -10.27383
 Alpha  occ. eigenvalues --  -10.27378 -10.27288 -10.27269 -10.27185 -10.27155
 Alpha  occ. eigenvalues --  -10.27113 -10.27065 -10.26994 -10.26895 -10.26874
 Alpha  occ. eigenvalues --  -10.26647 -10.26574 -10.26329 -10.26050 -10.26034
 Alpha  occ. eigenvalues --  -10.25979 -10.25968 -10.25934 -10.25833 -10.25785
 Alpha  occ. eigenvalues --  -10.25755 -10.25529 -10.25419 -10.25323 -10.25135
 Alpha  occ. eigenvalues --  -10.24794 -10.24621 -10.24601 -10.24498 -10.24312
 Alpha  occ. eigenvalues --  -10.24304  -3.16309  -3.15977  -1.91191  -1.90858
 Alpha  occ. eigenvalues --   -1.90780  -1.90618  -1.90446  -1.90289  -1.16566
 Alpha  occ. eigenvalues --   -1.16126  -1.08645  -1.08134  -1.06880  -1.06821
 Alpha  occ. eigenvalues --   -1.06785  -1.06081  -1.04404  -1.04031  -1.03571
 Alpha  occ. eigenvalues --   -1.03252  -1.02946  -1.02706  -1.02020  -1.01890
 Alpha  occ. eigenvalues --   -0.91906  -0.91449  -0.89402  -0.89111  -0.89068
 Alpha  occ. eigenvalues --   -0.88655  -0.88129  -0.87883  -0.87706  -0.87592
 Alpha  occ. eigenvalues --   -0.87378  -0.87144  -0.87033  -0.86752  -0.84913
 Alpha  occ. eigenvalues --   -0.84474  -0.83787  -0.83575  -0.82845  -0.82571
 Alpha  occ. eigenvalues --   -0.82514  -0.82164  -0.81529  -0.81109  -0.80365
 Alpha  occ. eigenvalues --   -0.80103  -0.78548  -0.78281  -0.77058  -0.76824
 Alpha  occ. eigenvalues --   -0.76769  -0.76474  -0.75770  -0.75440  -0.74723
 Alpha  occ. eigenvalues --   -0.74493  -0.72609  -0.72284  -0.71501  -0.71197
 Alpha  occ. eigenvalues --   -0.69662  -0.69572  -0.68744  -0.68380  -0.67519
 Alpha  occ. eigenvalues --   -0.67149  -0.67108  -0.66701  -0.65189  -0.64766
 Alpha  occ. eigenvalues --   -0.64684  -0.64573  -0.64365  -0.64155  -0.64115
 Alpha  occ. eigenvalues --   -0.63833  -0.62206  -0.61820  -0.60252  -0.59957
 Alpha  occ. eigenvalues --   -0.59712  -0.59274  -0.58907  -0.58500  -0.58342
 Alpha  occ. eigenvalues --   -0.58013  -0.57476  -0.57151  -0.57077  -0.56850
 Alpha  occ. eigenvalues --   -0.56115  -0.55818  -0.55813  -0.55494  -0.55371
 Alpha  occ. eigenvalues --   -0.55164  -0.55048  -0.54930  -0.54402  -0.54090
 Alpha  occ. eigenvalues --   -0.53826  -0.53365  -0.53143  -0.53057  -0.52832
 Alpha  occ. eigenvalues --   -0.52803  -0.52720  -0.52584  -0.52433  -0.52304
 Alpha  occ. eigenvalues --   -0.52265  -0.52089  -0.51797  -0.51572  -0.51450
 Alpha  occ. eigenvalues --   -0.51131  -0.51092  -0.50729  -0.50388  -0.50073
 Alpha  occ. eigenvalues --   -0.49895  -0.49783  -0.49644  -0.49425  -0.49400
 Alpha  occ. eigenvalues --   -0.49117  -0.49044  -0.49026  -0.48715  -0.48619
 Alpha  occ. eigenvalues --   -0.48480  -0.48306  -0.48260  -0.48137  -0.48028
 Alpha  occ. eigenvalues --   -0.47972  -0.47515  -0.47223  -0.47033  -0.46818
 Alpha  occ. eigenvalues --   -0.46619  -0.46469  -0.46339  -0.46181  -0.46050
 Alpha  occ. eigenvalues --   -0.45994  -0.45873  -0.45746  -0.45701  -0.45363
 Alpha  occ. eigenvalues --   -0.45125  -0.44807  -0.44440  -0.44393  -0.44113
 Alpha  occ. eigenvalues --   -0.44063  -0.44056  -0.43992  -0.43864  -0.43717
 Alpha  occ. eigenvalues --   -0.43613  -0.43535  -0.43483  -0.43303  -0.43027
 Alpha  occ. eigenvalues --   -0.42905  -0.42853  -0.42826  -0.42562  -0.42462
 Alpha  occ. eigenvalues --   -0.42308  -0.42198  -0.41875  -0.41607  -0.41591
 Alpha  occ. eigenvalues --   -0.41371  -0.41220  -0.41056  -0.40914  -0.40672
 Alpha  occ. eigenvalues --   -0.40634  -0.40610  -0.40430  -0.40406  -0.40362
 Alpha  occ. eigenvalues --   -0.40154  -0.40132  -0.39673  -0.39327  -0.39127
 Alpha  occ. eigenvalues --   -0.38260  -0.38068  -0.37561  -0.37253  -0.37172
 Alpha  occ. eigenvalues --   -0.37108  -0.36876  -0.36732  -0.36673  -0.36224
 Alpha  occ. eigenvalues --   -0.36120  -0.35707  -0.34159  -0.33764  -0.33719
 Alpha  occ. eigenvalues --   -0.33197  -0.33079  -0.32660  -0.31186  -0.30907
 Alpha  occ. eigenvalues --   -0.30881  -0.30523  -0.29941  -0.29534  -0.29242
 Alpha  occ. eigenvalues --   -0.29131  -0.28919  -0.28796  -0.23942  -0.23547
 Alpha  occ. eigenvalues --   -0.21027  -0.20606
 Alpha virt. eigenvalues --   -0.08706  -0.08249  -0.01590  -0.01242   0.00053
 Alpha virt. eigenvalues --    0.00456   0.02267   0.02688   0.03386   0.03726
 Alpha virt. eigenvalues --    0.04816   0.05177   0.05275   0.05642   0.06222

 Mulliken charges:
               1
     1  Mg   0.843364
     2  C   -0.000063
     3  C   -0.089754
     4  C   -0.047664
     5  C   -0.065128
     6  N   -0.256540
     7  C   -0.050610
     8  C   -0.015464
     9  C   -0.088178
    10  C    0.048937
    11  C    0.105120
    12  C    0.052491
    13  C   -0.070153
    14  H    0.029279
    15  N   -0.433317
    16  C    0.173141
    17  C   -0.173658
    18  C   -0.004082
    19  C    0.148049
    20  C    0.110721
    21  C    0.011646
    22  O   -0.252191
    23  C    0.061649
    24  N   -0.341149
    25  C    0.041358
    26  C   -0.027741
    27  C   -0.023618
    28  C    0.074445
    29  C    0.076625
    30  C    0.035711
    31  C   -0.004610
    32  N   -0.310434
    33  C    0.080549
    34  C   -0.170544
    35  C    0.007726
    36  C    0.084095
    37  C    0.127424
    38  C    0.046467
    39  O   -0.190067
    40  C   -0.005986
    41  C    0.211380
    42  O   -0.252530
    43  O   -0.305682
    44  C    0.158430
    45  H   -0.018735
    46  H   -0.018761
    47  H   -0.043189
    48  H   -0.000733
    49  H   -0.003720
    50  H    0.024712
    51  H    0.015909
    52  H    0.015395
    53  H    0.018536
    54  H    0.048883
    55  H    0.016634
    56  H    0.017321
    57  H    0.005806
    58  H    0.024452
    59  H    0.043615
    60  H    0.036815
    61  H    0.033383
    62  H    0.034709
    63  H    0.014509
    64  H    0.008696
    65  H    0.021865
    66  H    0.012694
    67  H    0.004031
    68  H    0.004828
    69  H    0.004544
    70  H    0.006090
    71  H    0.016201
    72  H    0.031352
    73  H    0.046937
    74  H    0.007985
    75  H    0.044872
    76  H    0.033789
    77  H    0.041177
    78  H    0.045131
    79  H    0.054181
    80  Mg   0.839364
    81  C   -0.015909
    82  C   -0.087834
    83  C   -0.045463
    84  C   -0.064919
    85  N   -0.254612
    86  C   -0.049621
    87  C   -0.015354
    88  C   -0.090534
    89  C    0.046083
    90  C    0.114516
    91  C    0.062333
    92  C   -0.077754
    93  H    0.034990
    94  N   -0.423433
    95  C    0.163271
    96  C   -0.174649
    97  C   -0.007718
    98  C    0.152280
    99  C    0.099436
   100  C    0.015721
   101  O   -0.253252
   102  C    0.061108
   103  N   -0.350115
   104  C    0.037561
   105  C   -0.019827
   106  C   -0.034817
   107  C    0.088910
   108  C    0.073720
   109  C    0.034586
   110  C   -0.007615
   111  N   -0.324108
   112  C    0.078608
   113  C   -0.163290
   114  C    0.000919
   115  C    0.097527
   116  C    0.129972
   117  C    0.043366
   118  O   -0.191105
   119  C    0.000795
   120  C    0.209205
   121  O   -0.245861
   122  O   -0.306742
   123  C    0.151472
   124  H   -0.019946
   125  H   -0.015672
   126  H   -0.039810
   127  H   -0.001470
   128  H   -0.004324
   129  H    0.021883
   130  H    0.014348
   131  H    0.015938
   132  H    0.014490
   133  H    0.039514
   134  H    0.019817
   135  H    0.019520
   136  H    0.008646
   137  H    0.025885
   138  H    0.040041
   139  H    0.038045
   140  H    0.036322
   141  H    0.034232
   142  H    0.014415
   143  H    0.012477
   144  H    0.024979
   145  H    0.011427
   146  H    0.005604
   147  H    0.005842
   148  H    0.004178
   149  H    0.010760
   150  H    0.017528
   151  H    0.030919
   152  H    0.047614
   153  H    0.011141
   154  H    0.045255
   155  H    0.033563
   156  H    0.040695
   157  H    0.049501
   158  H    0.056071
 Sum of Mulliken charges =  -0.00000

 Dipole moment (field-independent basis, Debye):
    X=              2.1086    Y=              2.8380    Z=             -4.6380  Tot=              5.8319
 Quadrupole moment (field-independent basis, Debye-Ang):
   XX=           -469.5375   YY=           -468.4623   ZZ=           -524.8774
   XY=             25.7681   XZ=             10.3302   YZ=            -28.8007

 Normal termination of Gaussian 16 at Fri Sep 10 16:48:08 2021.
