 Gaussian 16, Revision A.03,
 Gaussian 16:  ES64L-G16RevA.03 25-Dec-2016

 -----------------------------------
 #p cam-b3lyp/Def2SVP td=(nstates=5)
 -----------------------------------

 --------------------------------
 TDDFT excited states in gaussian
 --------------------------------
 Symbolic Z-matrix:
 Charge =  0 Multiplicity = 1

                         Standard orientation:
 ---------------------------------------------------------------------
 Center     Atomic      Atomic             Coordinates (Angstroms)
 Number     Number       Type             X           Y           Z
 ---------------------------------------------------------------------
      1         12           0       -5.194398    0.567522   -0.586740
      2          6           0       -5.437751   -2.765103    0.696460
      3          6           0       -6.406391    1.651779    2.413014
      4          6           0       -5.417982    3.468226   -1.848703
      5          6           0       -5.097149   -0.826760   -3.779259
      6          7           0       -5.805715   -0.515757    1.244502
      7          6           0       -5.793832   -1.788238    1.628976
      8          6           0       -6.122845   -1.980285    3.139685
      9          6           0       -6.941529   -0.635619    3.391932
     10          6           0       -6.324190    0.231418    2.308852
     11          6           0       -8.436077   -0.772046    3.119504
     12          6           0       -4.833432   -2.040775    4.025962
     13          6           0       -5.045990   -2.549072    5.454880
     14          1           0       -4.005131   -3.356424    6.073057
     15          7           0       -5.349770    2.334555    0.282917
     16          6           0       -5.852354    2.589465    1.514873
     17          6           0       -5.750186    4.052762    1.701968
     18          6           0       -5.323230    4.648539    0.405491
     19          6           0       -5.372565    3.495570   -0.456835
     20          6           0       -5.995909    4.733755    3.013311
     21          6           0       -4.942842    6.038778    0.004650
     22          8           0       -4.829129    6.386370   -1.220431
     23          6           0       -4.791223    7.018712    1.095422
     24          7           0       -5.471173    1.248671   -2.540472
     25          6           0       -5.472594    2.556306   -2.821671
     26          6           0       -5.401717    2.796856   -4.300539
     27          6           0       -5.105178    1.375871   -4.965835
     28          6           0       -5.140512    0.504232   -3.686278
     29          6           0       -6.656134    3.407971   -4.940062
     30          6           0       -3.866557    1.277475   -5.891338
     31          6           0       -2.603163    1.447533   -5.077697
     32          7           0       -5.076415   -1.433476   -1.419284
     33          6           0       -5.071281   -1.782625   -2.777497
     34          6           0       -5.089340   -3.255441   -2.844992
     35          6           0       -5.120670   -3.663205   -1.512854
     36          6           0       -5.148600   -2.517493   -0.667362
     37          6           0       -5.134579   -4.034670   -4.034610
     38          6           0       -5.161923   -4.800161   -0.607600
     39          8           0       -5.065685   -6.020724   -0.743458
     40          6           0       -5.491835   -4.264243    0.855198
     41          6           0       -4.517678   -4.906365    1.804939
     42          8           0       -3.300834   -4.634184    1.754202
     43          8           0       -5.194607   -5.550296    2.768092
     44          6           0       -4.286940   -6.185201    3.760659
     45          1           0       -6.997136    2.088481    3.220636
     46          1           0       -5.384215    4.450267   -2.325035
     47          1           0       -4.982828   -1.333239   -4.739396
     48          1           0       -6.748864   -2.844584    3.362198
     49          1           0       -6.738570   -0.214185    4.376271
     50          1           0       -8.673019   -1.737275    2.672164
     51          1           0       -8.681528    0.037035    2.431293
     52          1           0       -9.013738   -0.581369    4.024339
     53          1           0       -4.495279   -1.026544    4.238208
     54          1           0       -4.060289   -2.638522    3.541943
     55          1           0       -6.018638   -3.029048    5.566629
     56          1           0       -5.091089   -1.687253    6.120788
     57          1           0       -6.453616    4.058853    3.735500
     58          1           0       -6.752756    5.498115    2.838252
     59          1           0       -5.092322    5.195529    3.411589
     60          1           0       -5.729890    7.093797    1.644800
     61          1           0       -4.430099    7.934540    0.628841
     62          1           0       -4.050351    6.646787    1.803751
     63          1           0       -4.592024    3.482539   -4.546837
     64          1           0       -5.931608    1.036328   -5.590654
     65          1           0       -6.466486    4.340852   -5.471543
     66          1           0       -7.399627    3.548746   -4.156040
     67          1           0       -7.186922    2.748484   -5.626180
     68          1           0       -3.881617    2.077019   -6.631236
     69          1           0       -3.804148    0.330488   -6.427594
     70          1           0       -2.501686    2.530041   -5.009059
     71          1           0       -1.752528    1.007981   -5.599641
     72          1           0       -2.728403    1.067057   -4.063774
     73          1           0       -4.424668   -4.849449   -3.892730
     74          1           0       -4.881350   -3.436511   -4.909644
     75          1           0       -6.178368   -4.348274   -4.031012
     76          1           0       -6.521169   -4.550320    1.069100
     77          1           0       -4.544064   -7.243786    3.799630
     78          1           0       -4.380827   -5.607516    4.680371
     79          1           0       -3.233244   -6.239386    3.484743
     80         12           0        5.338670    0.845597    0.481764
     81          6           0        5.394122   -2.276131   -1.287632
     82          6           0        4.228843   -0.887105    3.202173
     83          6           0        4.849054    3.626398    1.929145
     84          6           0        5.339630    2.442350   -2.615991
     85          7           0        4.906749   -1.301148    0.793450
     86          6           0        5.023670   -2.402765    0.067422
     87          6           0        4.804854   -3.720475    0.858182
     88          6           0        3.904623   -3.137111    2.053224
     89          6           0        4.396831   -1.691303    2.046690
     90          6           0        2.417311   -3.136740    1.741373
     91          6           0        6.149344   -4.325925    1.394659
     92          6           0        6.047795   -5.764446    1.906607
     93          1           0        7.180905   -6.660649    1.693648
     94          7           0        5.116598    1.269365    2.407821
     95          6           0        4.676229    0.440806    3.377790
     96          6           0        4.675294    1.235382    4.615854
     97          6           0        4.993946    2.646739    4.267667
     98          6           0        4.978076    2.571270    2.820556
     99          6           0        4.468492    0.627460    5.972719
    100          6           0        5.255437    3.865774    5.099404
    101          8           0        5.276605    5.039755    4.585425
    102          6           0        5.393246    3.654039    6.547737
    103          7           0        4.911685    2.750888   -0.232324
    104          6           0        4.799048    3.794808    0.607608
    105          6           0        4.765342    5.101784   -0.148075
    106          6           0        5.123617    4.731976   -1.662169
    107          6           0        5.219080    3.195990   -1.531715
    108          6           0        3.437734    5.858333   -0.109736
    109          6           0        6.311757    5.493988   -2.310498
    110          6           0        7.607133    5.096669   -1.640042
    111          7           0        5.547740    0.238196   -1.581100
    112          6           0        5.492331    1.065966   -2.723828
    113          6           0        5.570851    0.182744   -3.905429
    114          6           0        5.643894   -1.109600   -3.364118
    115          6           0        5.592716   -1.038306   -1.945739
    116          6           0        5.520547    0.604409   -5.264025
    117          6           0        5.741946   -2.518614   -3.670324
    118          8           0        5.905561   -3.174884   -4.698073
    119          6           0        5.457167   -3.345232   -2.342934
    120          6           0        6.524996   -4.396521   -2.212332
    121          8           0        7.711355   -4.072777   -2.026953
    122          8           0        5.943089   -5.605377   -2.110307
    123          6           0        6.961270   -6.679981   -1.967622
    124          1           0        3.664008   -1.295298    4.040749
    125          1           0        4.788836    4.619736    2.379844
    126          1           0        5.444650    2.869946   -3.615396
    127          1           0        4.258872   -4.487032    0.321439
    128          1           0        4.143939   -3.617098    2.998590
    129          1           0        2.220147   -3.420115    0.718154
    130          1           0        2.078284   -2.125796    1.926017
    131          1           0        1.882254   -3.769223    2.455515
    132          1           0        6.426184   -3.814342    2.325458
    133          1           0        6.920037   -4.260420    0.651445
    134          1           0        5.112708   -6.247011    1.597253
    135          1           0        5.989274   -5.741231    2.997498
    136          1           0        4.093230   -0.400779    5.899864
    137          1           0        3.652787    1.181101    6.450209
    138          1           0        5.357337    0.693545    6.603793
    139          1           0        4.487134    3.192594    6.933069
    140          1           0        5.664962    4.627395    6.960815
    141          1           0        6.207507    2.941659    6.721249
    142          1           0        5.512224    5.787784    0.232280
    143          1           0        4.283569    4.938037   -2.341644
    144          1           0        3.533043    6.887394    0.285271
    145          1           0        2.736191    5.286833    0.483346
    146          1           0        2.922641    5.935933   -1.065697
    147          1           0        6.200290    6.570199   -2.157186
    148          1           0        6.399597    5.328312   -3.379063
    149          1           0        7.632546    5.737008   -0.753241
    150          1           0        8.453660    5.294870   -2.294386
    151          1           0        7.568887    4.056934   -1.294881
    152          1           0        6.283744    0.047618   -5.791286
    153          1           0        5.676979    1.677413   -5.353339
    154          1           0        4.497521    0.316026   -5.519997
    155          1           0        4.462043   -3.781855   -2.436046
    156          1           0        6.776175   -7.403709   -2.767389
    157          1           0        6.867595   -7.044048   -0.927215
    158          1           0        7.996061   -6.418007   -2.154764
 ---------------------------------------------------------------------

 SCF Done:  E(RCAM-B3LYP) =  -4069.81213095     A.U. after   19 cycles

 Excitation energies and oscillator strengths:

 Excited State   1:      Singlet-A      1.6633 eV  745.41 nm  f=0.1252  <S**2>=0.000
     309 -> 315       -0.10732
     310 -> 316        0.13239
     311 -> 313       -0.43002
     312 -> 314        0.53543
 This state for optimization and/or second-order correction.
 Total Energy, E(TD-HF/TD-DFT) =  -4069.75100543
 Copying the excited state density for this state as the 1-particle RhoCI density.

 Excited State   2:      Singlet-A      1.6882 eV  734.41 nm  f=0.5862  <S**2>=0.000
     309 -> 315        0.13884
     310 -> 316        0.10984
     311 -> 313        0.53407
     312 -> 314        0.42896

 Excited State   3:      Singlet-A      2.1827 eV  568.03 nm  f=0.0635  <S**2>=0.000
     309 -> 313       -0.19676
     310 -> 314        0.61292
     312 -> 316       -0.25650

 Excited State   4:      Singlet-A      2.1945 eV  564.99 nm  f=0.1268  <S**2>=0.000
     309 -> 313        0.60956
     310 -> 314        0.19452
     311 -> 315       -0.26660

 Excited State   5:      Singlet-A      2.4764 eV  500.67 nm  f=0.0000  <S**2>=0.000
     312 -> 313        0.70709

 The electronic state is 1-A.
 Alpha  occ. eigenvalues --  -46.87893 -46.87472 -19.26511 -19.26114 -19.19249
 Alpha  occ. eigenvalues --  -19.18943 -19.18886 -19.18606 -19.18286 -19.17865
 Alpha  occ. eigenvalues --  -14.42554 -14.42283 -14.41540 -14.41176 -14.39496
 Alpha  occ. eigenvalues --  -14.39173 -14.38684 -14.38415 -10.39298 -10.38870
 Alpha  occ. eigenvalues --  -10.35517 -10.35288 -10.34511 -10.34036 -10.31939
 Alpha  occ. eigenvalues --  -10.31526 -10.31515 -10.31073 -10.31024 -10.30805
 Alpha  occ. eigenvalues --  -10.30668 -10.30598 -10.30285 -10.30228 -10.30173
 Alpha  occ. eigenvalues --  -10.30008 -10.29975 -10.29722 -10.29720 -10.29339
 Alpha  occ. eigenvalues --  -10.29266 -10.29238 -10.28904 -10.28778 -10.28467
 Alpha  occ. eigenvalues --  -10.28408 -10.28392 -10.28250 -10.28216 -10.27883
 Alpha  occ. eigenvalues --  -10.27828 -10.27825 -10.27778 -10.27671 -10.27559
 Alpha  occ. eigenvalues --  -10.27553 -10.27515 -10.27514 -10.27456 -10.27370
 Alpha  occ. eigenvalues --  -10.27353 -10.27310 -10.27303 -10.27282 -10.27230
 Alpha  occ. eigenvalues --  -10.26916 -10.26824 -10.26455 -10.26433 -10.26352
 Alpha  occ. eigenvalues --  -10.26350 -10.26222 -10.26100 -10.26013 -10.25897
 Alpha  occ. eigenvalues --  -10.25761 -10.25717 -10.25493 -10.25455 -10.25257
 Alpha  occ. eigenvalues --  -10.24928 -10.24879 -10.24727 -10.24696 -10.24615
 Alpha  occ. eigenvalues --  -10.24517  -3.16636  -3.16222  -1.91518  -1.91104
 Alpha  occ. eigenvalues --   -1.91104  -1.90946  -1.90692  -1.90530  -1.16858
 Alpha  occ. eigenvalues --   -1.16412  -1.08752  -1.08468  -1.07286  -1.06867
 Alpha  occ. eigenvalues --   -1.06862  -1.06727  -1.04688  -1.04281  -1.03854
 Alpha  occ. eigenvalues --   -1.03473  -1.03326  -1.02861  -1.02505  -1.01927
 Alpha  occ. eigenvalues --   -0.92086  -0.91784  -0.89597  -0.89329  -0.89329
 Alpha  occ. eigenvalues --   -0.88837  -0.88363  -0.88060  -0.87954  -0.87781
 Alpha  occ. eigenvalues --   -0.87626  -0.87477  -0.87352  -0.86986  -0.85117
 Alpha  occ. eigenvalues --   -0.84743  -0.84014  -0.83723  -0.83036  -0.82816
 Alpha  occ. eigenvalues --   -0.82773  -0.82421  -0.81739  -0.81390  -0.80717
 Alpha  occ. eigenvalues --   -0.80248  -0.78880  -0.78479  -0.77321  -0.77072
 Alpha  occ. eigenvalues --   -0.76942  -0.76659  -0.76055  -0.75569  -0.74986
 Alpha  occ. eigenvalues --   -0.74625  -0.72865  -0.72514  -0.71776  -0.71353
 Alpha  occ. eigenvalues --   -0.69971  -0.69605  -0.68998  -0.68588  -0.67746
 Alpha  occ. eigenvalues --   -0.67425  -0.67360  -0.66991  -0.65424  -0.65022
 Alpha  occ. eigenvalues --   -0.64973  -0.64741  -0.64574  -0.64436  -0.64352
 Alpha  occ. eigenvalues --   -0.64034  -0.62459  -0.62073  -0.60521  -0.60193
 Alpha  occ. eigenvalues --   -0.59928  -0.59532  -0.59090  -0.58801  -0.58610
 Alpha  occ. eigenvalues --   -0.58236  -0.57732  -0.57404  -0.57347  -0.57071
 Alpha  occ. eigenvalues --   -0.56412  -0.56156  -0.56026  -0.55672  -0.55617
 Alpha  occ. eigenvalues --   -0.55447  -0.55276  -0.55073  -0.54653  -0.54304
 Alpha  occ. eigenvalues --   -0.54039  -0.53617  -0.53391  -0.53342  -0.53061
 Alpha  occ. eigenvalues --   -0.53053  -0.52940  -0.52851  -0.52700  -0.52501
 Alpha  occ. eigenvalues --   -0.52479  -0.52259  -0.51994  -0.51749  -0.51730
 Alpha  occ. eigenvalues --   -0.51429  -0.51307  -0.51007  -0.50638  -0.50352
 Alpha  occ. eigenvalues --   -0.50107  -0.50008  -0.49783  -0.49697  -0.49629
 Alpha  occ. eigenvalues --   -0.49326  -0.49279  -0.49223  -0.49000  -0.48816
 Alpha  occ. eigenvalues --   -0.48724  -0.48558  -0.48532  -0.48327  -0.48222
 Alpha  occ. eigenvalues --   -0.48179  -0.47802  -0.47394  -0.47391  -0.46951
 Alpha  occ. eigenvalues --   -0.46896  -0.46696  -0.46513  -0.46457  -0.46288
 Alpha  occ. eigenvalues --   -0.46265  -0.46100  -0.45949  -0.45909  -0.45614
 Alpha  occ. eigenvalues --   -0.45281  -0.45040  -0.44698  -0.44607  -0.44326
 Alpha  occ. eigenvalues --   -0.44249  -0.44243  -0.44206  -0.44127  -0.43923
 Alpha  occ. eigenvalues --   -0.43858  -0.43760  -0.43636  -0.43498  -0.43344
 Alpha  occ. eigenvalues --   -0.43160  -0.43132  -0.42884  -0.42737  -0.42723
 Alpha  occ. eigenvalues --   -0.42695  -0.42399  -0.42110  -0.41814  -0.41778
 Alpha  occ. eigenvalues --   -0.41667  -0.41465  -0.41248  -0.41226  -0.40991
 Alpha  occ. eigenvalues --   -0.40916  -0.40749  -0.40655  -0.40570  -0.40471
 Alpha  occ. eigenvalues --   -0.40404  -0.40286  -0.39977  -0.39503  -0.39280
 Alpha  occ. eigenvalues --   -0.38558  -0.38170  -0.37916  -0.37421  -0.37407
 Alpha  occ. eigenvalues --   -0.37396  -0.37081  -0.36965  -0.36894  -0.36563
 Alpha  occ. eigenvalues --   -0.36321  -0.36020  -0.34386  -0.34060  -0.33978
 Alpha  occ. eigenvalues --   -0.33652  -0.33290  -0.32990  -0.31418  -0.31162
 Alpha  occ. eigenvalues --   -0.31137  -0.30777  -0.30149  -0.29765  -0.29537
 Alpha  occ. eigenvalues --   -0.29415  -0.29171  -0.29038  -0.24180  -0.23844
 Alpha  occ. eigenvalues --   -0.21221  -0.20929
 Alpha virt. eigenvalues --   -0.08867  -0.08616  -0.01842  -0.01504  -0.00150
 Alpha virt. eigenvalues --    0.00138   0.02100   0.02383   0.03008   0.03400
 Alpha virt. eigenvalues --    0.04589   0.04894   0.04961   0.05384   0.05984

 Mulliken charges:
               1
     1  Mg   0.838595
     2  C   -0.003609
     3  C   -0.094349
     4  C   -0.045695
     5  C   -0.063501
     6  N   -0.256750
     7  C   -0.052767
     8  C   -0.013971
     9  C   -0.086978
    10  C    0.046135
    11  C    0.104750
    12  C    0.053637
    13  C   -0.071212
    14  H    0.033854
    15  N   -0.433184
    16  C    0.168487
    17  C   -0.176970
    18  C   -0.003712
    19  C    0.148696
    20  C    0.110072
    21  C    0.012406
    22  O   -0.249607
    23  C    0.062332
    24  N   -0.341072
    25  C    0.041313
    26  C   -0.028219
    27  C   -0.024024
    28  C    0.074706
    29  C    0.076109
    30  C    0.035026
    31  C   -0.004563
    32  N   -0.310430
    33  C    0.080223
    34  C   -0.169360
    35  C    0.008214
    36  C    0.082786
    37  C    0.127292
    38  C    0.045822
    39  O   -0.188628
    40  C   -0.005327
    41  C    0.213160
    42  O   -0.258825
    43  O   -0.304243
    44  C    0.158151
    45  H   -0.017519
    46  H   -0.016650
    47  H   -0.040870
    48  H    0.000949
    49  H   -0.004254
    50  H    0.025561
    51  H    0.016805
    52  H    0.016764
    53  H    0.011041
    54  H    0.042792
    55  H    0.018566
    56  H    0.018145
    57  H    0.005695
    58  H    0.027069
    59  H    0.040046
    60  H    0.037401
    61  H    0.035900
    62  H    0.032089
    63  H    0.016523
    64  H    0.009734
    65  H    0.023340
    66  H    0.012548
    67  H    0.005020
    68  H    0.006485
    69  H    0.005417
    70  H    0.008219
    71  H    0.018916
    72  H    0.028836
    73  H    0.047809
    74  H    0.009810
    75  H    0.046102
    76  H    0.035402
    77  H    0.043407
    78  H    0.046268
    79  H    0.051868
    80  Mg   0.837810
    81  C   -0.016788
    82  C   -0.087570
    83  C   -0.046194
    84  C   -0.065231
    85  N   -0.254886
    86  C   -0.048664
    87  C   -0.015333
    88  C   -0.090781
    89  C    0.046237
    90  C    0.114928
    91  C    0.062435
    92  C   -0.077692
    93  H    0.033711
    94  N   -0.423435
    95  C    0.162902
    96  C   -0.174987
    97  C   -0.008518
    98  C    0.152260
    99  C    0.099664
   100  C    0.014994
   101  O   -0.253898
   102  C    0.061401
   103  N   -0.350120
   104  C    0.037663
   105  C   -0.019814
   106  C   -0.034770
   107  C    0.089074
   108  C    0.073667
   109  C    0.034831
   110  C   -0.007576
   111  N   -0.324127
   112  C    0.078698
   113  C   -0.163490
   114  C    0.002423
   115  C    0.096193
   116  C    0.131510
   117  C    0.042226
   118  O   -0.188075
   119  C    0.001035
   120  C    0.211084
   121  O   -0.251617
   122  O   -0.304861
   123  C    0.152287
   124  H   -0.019304
   125  H   -0.016402
   126  H   -0.040979
   127  H    0.001315
   128  H   -0.005358
   129  H    0.025815
   130  H    0.013869
   131  H    0.020098
   132  H    0.013154
   133  H    0.037036
   134  H    0.022379
   135  H    0.019066
   136  H    0.008923
   137  H    0.024876
   138  H    0.039241
   139  H    0.037507
   140  H    0.035677
   141  H    0.033966
   142  H    0.013897
   143  H    0.012540
   144  H    0.024409
   145  H    0.011231
   146  H    0.006603
   147  H    0.005978
   148  H    0.003417
   149  H    0.010669
   150  H    0.017558
   151  H    0.030301
   152  H    0.045728
   153  H    0.008149
   154  H    0.046479
   155  H    0.036964
   156  H    0.043896
   157  H    0.049775
   158  H    0.052922
 Sum of Mulliken charges =  -0.00000

 Dipole moment (field-independent basis, Debye):
    X=             -4.9442    Y=              1.9100    Z=              6.3296  Tot=              8.2557
 Quadrupole moment (field-independent basis, Debye-Ang):
   XX=           -518.2942   YY=           -532.2557   ZZ=           -467.8357
   XY=            -10.9369   XZ=              0.9953   YZ=            -31.4710

 Normal termination of Gaussian 16 at Sat Sep  4 06:06:46 2021.
