 Gaussian 16, Revision A.03,
 Gaussian 16:  ES64L-G16RevA.03 25-Dec-2016

 -----------------------------------
 #p cam-b3lyp/Def2SVP td=(nstates=5)
 -----------------------------------

 --------------------------------
 TDDFT excited states in gaussian
 --------------------------------
 Symbolic Z-matrix:
 Charge =  0 Multiplicity = 1

                         Standard orientation:
 ---------------------------------------------------------------------
 Center     Atomic      Atomic             Coordinates (Angstroms)
 Number     Number       Type             X           Y           Z
 ---------------------------------------------------------------------
      1         12           0        6.747866   -0.400707   -0.127449
      2          6           0        6.735709    2.968788   -1.335164
      3          6           0        7.660882    0.849954    2.913161
      4          6           0        7.206841   -3.385388    0.840870
      5          6           0        6.952765   -1.434428   -3.449361
      6          7           0        7.118018    1.665560    0.575528
      7          6           0        7.020797    2.873348    0.028750
      8          6           0        7.175931    4.032074    1.058634
      9          6           0        8.007492    3.262323    2.180234
     10          6           0        7.542188    1.844741    1.897611
     11          6           0        9.517340    3.333638    1.975845
     12          6           0        5.796042    4.528144    1.607771
     13          6           0        5.833647    5.860716    2.361556
     14          1           0        4.704526    6.769628    2.233836
     15          7           0        6.867376   -1.152086    1.695734
     16          6           0        7.240653   -0.494501    2.819804
     17          6           0        7.168588   -1.485700    3.914798
     18          6           0        6.906497   -2.819000    3.305117
     19          6           0        7.010481   -2.505727    1.902824
     20          6           0        7.292540   -1.122663    5.362759
     21          6           0        6.619832   -4.164385    3.893246
     22          8           0        6.652656   -5.233718    3.193230
     23          6           0        6.383363   -4.208722    5.347605
     24          7           0        7.259645   -2.157014   -1.132985
     25          6           0        7.336380   -3.325188   -0.486097
     26          6           0        7.435857   -4.474632   -1.444649
     27          6           0        7.165562   -3.864981   -2.895517
     28          6           0        7.031053   -2.372909   -2.503216
     29          6           0        8.772773   -5.228719   -1.448918
     30          6           0        6.032923   -4.513025   -3.730733
     31          6           0        4.694682   -4.235392   -3.083331
     32          7           0        6.653465    0.554771   -2.074035
     33          6           0        6.784957   -0.065401   -3.324943
     34          6           0        6.760065    1.002518   -4.341308
     35          6           0        6.631643    2.178763   -3.605237
     36          6           0        6.606010    1.867542   -2.215713
     37          6           0        6.908504    0.820978   -5.744676
     38          6           0        6.534892    3.628084   -3.668213
     39          8           0        6.412529    4.450317   -4.577307
     40          6           0        6.720974    4.207104   -2.196501
     41          6           0        5.627500    5.213493   -1.962403
     42          8           0        4.433488    4.856860   -1.895216
     43          8           0        6.172719    6.390778   -1.619942
     44          6           0        5.140860    7.426041   -1.344895
     45          1           0        8.174330    1.103301    3.842746
     46          1           0        7.258853   -4.438430    1.125185
     47          1           0        6.926903   -1.687915   -4.510742
     48          1           0        7.744038    4.889082    0.696395
     49          1           0        7.712617    3.564735    3.184882
     50          1           0        9.768726    3.793424    1.020166
     51          1           0        9.864003    2.300430    2.004115
     52          1           0        9.998775    3.834321    2.816270
     53          1           0        5.471485    3.868760    2.412716
     54          1           0        5.060526    4.588745    0.804858
     55          1           0        6.771315    6.389834    2.189154
     56          1           0        5.835026    5.648404    3.430725
     57          1           0        7.645269   -0.100011    5.490471
     58          1           0        8.089605   -1.738815    5.778395
     59          1           0        6.367096   -1.299826    5.910936
     60          1           0        7.258350   -3.816800    5.866589
     61          1           0        6.106849   -5.237407    5.576073
     62          1           0        5.557244   -3.540167    5.591551
     63          1           0        6.681795   -5.230370   -1.228600
     64          1           0        8.043291   -3.934703   -3.538483
     65          1           0        8.674285   -6.295739   -1.247735
     66          1           0        9.430456   -4.752800   -0.722114
     67          1           0        9.352601   -5.125946   -2.365791
     68          1           0        6.156035   -5.595081   -3.761472
     69          1           0        5.997270   -4.153937   -4.759341
     70          1           0        4.623273   -5.016526   -2.327313
     71          1           0        3.891724   -4.326218   -3.815601
     72          1           0        4.695274   -3.277402   -2.563003
     73          1           0        6.159975    1.458136   -6.215530
     74          1           0        6.773001   -0.223265   -6.025387
     75          1           0        7.934340    1.161338   -5.884927
     76          1           0        7.710397    4.662002   -2.161398
     77          1           0        5.355943    8.274249   -1.994908
     78          1           0        5.153271    7.597596   -0.268410
     79          1           0        4.122417    7.184910   -1.651435
     80         12           0       -6.458042   -1.083185    0.321552
     81          6           0       -8.422078    1.885812   -0.133075
     82          6           0       -4.153050    0.864857    1.911102
     83          6           0       -4.504990   -3.583706    0.341621
     84          6           0       -8.317192   -2.538325   -2.242008
     85          7           0       -6.407635    1.082162    0.769824
     86          6           0       -7.238169    2.100360    0.602985
     87          6           0       -6.812349    3.403645    1.330762
     88          6           0       -5.234779    3.119861    1.428816
     89          6           0       -5.259144    1.592936    1.404575
     90          6           0       -4.459525    3.604516    0.214968
     91          6           0       -7.462087    3.533611    2.753077
     92          6           0       -7.338872    4.918527    3.392266
     93          1           0       -8.441815    5.405454    4.216213
     94          7           0       -4.849802   -1.447798    1.425718
     95          6           0       -4.043238   -0.539345    2.013459
     96          6           0       -2.992478   -1.313646    2.692082
     97          6           0       -3.150665   -2.745804    2.319789
     98          6           0       -4.184431   -2.642898    1.309433
     99          6           0       -2.020199   -0.696350    3.654921
    100          6           0       -2.473444   -3.999022    2.785657
    101          8           0       -2.600977   -5.107599    2.155102
    102          6           0       -1.582132   -3.869422    3.947668
    103          7           0       -6.270549   -2.735868   -0.925781
    104          6           0       -5.374326   -3.702912   -0.662052
    105          6           0       -5.608308   -4.915291   -1.531403
    106          6           0       -7.003542   -4.653154   -2.267736
    107          6           0       -7.304331   -3.232530   -1.741665
    108          6           0       -4.529041   -5.204194   -2.574520
    109          6           0       -8.096995   -5.745473   -2.113222
    110          6           0       -8.573985   -5.799107   -0.679699
    111          7           0       -8.194175   -0.538090   -0.843260
    112          6           0       -8.791404   -1.282864   -1.883790
    113          6           0       -9.873054   -0.450696   -2.449447
    114          6           0       -9.814614    0.739064   -1.708121
    115          6           0       -8.757234    0.662245   -0.761795
    116          6           0      -10.714204   -0.808816   -3.540466
    117          6           0      -10.400160    2.046636   -1.518117
    118          8           0      -11.380831    2.633784   -1.973392
    119          6           0       -9.443488    2.896603   -0.575394
    120          6           0      -10.291841    3.545088    0.483981
    121          8           0      -10.885744    2.852966    1.329467
    122          8           0      -10.088687    4.874912    0.458261
    123          6           0      -10.900195    5.561257    1.498561
    124          1           0       -3.266237    1.417967    2.221809
    125          1           0       -3.931310   -4.512687    0.378809
    126          1           0       -9.005947   -2.958674   -2.977950
    127          1           0       -6.992253    4.314898    0.773061
    128          1           0       -4.826429    3.479792    2.369594
    129          1           0       -5.115199    3.954905   -0.568268
    130          1           0       -3.884255    2.753577   -0.125647
    131          1           0       -3.729203    4.362564    0.512148
    132          1           0       -6.876516    2.943228    3.469522
    133          1           0       -8.492612    3.236774    2.729751
    134          1           0       -7.035521    5.682256    2.665877
    135          1           0       -6.519565    4.895534    4.114921
    136          1           0       -2.041053    0.399115    3.600784
    137          1           0       -1.015519   -0.966167    3.311899
    138          1           0       -2.153320   -1.056849    4.677159
    139          1           0       -0.800082   -3.147676    3.724223
    140          1           0       -1.261933   -4.885763    4.185143
    141          1           0       -2.157371   -3.460753    4.785953
    142          1           0       -5.691442   -5.812201   -0.929948
    143          1           0       -6.879146   -4.565074   -3.357045
    144          1           0       -4.091503   -6.216082   -2.481151
    145          1           0       -3.760085   -4.447989   -2.488521
    146          1           0       -4.846431   -5.094209   -3.610076
    147          1           0       -7.682490   -6.730938   -2.339474
    148          1           0       -8.950646   -5.597502   -2.766196
    149          1           0       -7.823556   -6.429510   -0.193348
    150          1           0       -9.563708   -6.247591   -0.621824
    151          1           0       -8.526144   -4.808990   -0.211691
    152          1           0      -11.719757   -0.518180   -3.266806
    153          1           0      -10.652326   -1.873169   -3.757507
    154          1           0      -10.272329   -0.201506   -4.334945
    155          1           0       -8.936403    3.632246   -1.200906
    156          1           0      -11.499661    6.320468    0.986785
    157          1           0      -10.176278    5.917071    2.255597
    158          1           0      -11.670460    4.983231    1.995573
 ---------------------------------------------------------------------

 SCF Done:  E(RCAM-B3LYP) =  -4069.81171881     A.U. after   19 cycles

 Excitation energies and oscillator strengths:

 Excited State   1:      Singlet-A      1.6667 eV  743.91 nm  f=0.1593  <S**2>=0.000
     309 -> 315       -0.10856
     310 -> 316       -0.13304
     311 -> 313       -0.43257
     312 -> 314        0.53316
 This state for optimization and/or second-order correction.
 Total Energy, E(TD-HF/TD-DFT) =  -4069.75047006
 Copying the excited state density for this state as the 1-particle RhoCI density.

 Excited State   2:      Singlet-A      1.6869 eV  734.97 nm  f=0.6060  <S**2>=0.000
     309 -> 315        0.13815
     310 -> 316       -0.11104
     311 -> 313        0.53207
     312 -> 314        0.43178

 Excited State   3:      Singlet-A      2.1846 eV  567.55 nm  f=0.0390  <S**2>=0.000
     309 -> 313        0.20570
     310 -> 314        0.60947
     312 -> 316        0.25756

 Excited State   4:      Singlet-A      2.1937 eV  565.19 nm  f=0.1494  <S**2>=0.000
     309 -> 313        0.60692
     310 -> 314       -0.20391
     311 -> 315       -0.26470

 Excited State   5:      Singlet-A      2.6128 eV  474.53 nm  f=0.0000  <S**2>=0.000
     312 -> 313        0.70697

 The electronic state is 1-A.
 Alpha  occ. eigenvalues --  -46.87943 -46.87553 -19.26473 -19.26269 -19.19213
 Alpha  occ. eigenvalues --  -19.19079 -19.18940 -19.18620 -19.18316 -19.17953
 Alpha  occ. eigenvalues --  -14.42601 -14.42386 -14.41583 -14.41253 -14.39550
 Alpha  occ. eigenvalues --  -14.39246 -14.38732 -14.38495 -10.39268 -10.39006
 Alpha  occ. eigenvalues --  -10.35573 -10.35299 -10.34538 -10.34130 -10.31877
 Alpha  occ. eigenvalues --  -10.31688 -10.31557 -10.31194 -10.31069 -10.30914
 Alpha  occ. eigenvalues --  -10.30717 -10.30643 -10.30333 -10.30295 -10.30256
 Alpha  occ. eigenvalues --  -10.30042 -10.30037 -10.29792 -10.29770 -10.29396
 Alpha  occ. eigenvalues --  -10.29331 -10.29304 -10.28934 -10.28779 -10.28605
 Alpha  occ. eigenvalues --  -10.28585 -10.28515 -10.28299 -10.28286 -10.28004
 Alpha  occ. eigenvalues --  -10.27936 -10.27897 -10.27876 -10.27728 -10.27646
 Alpha  occ. eigenvalues --  -10.27585 -10.27553 -10.27553 -10.27531 -10.27426
 Alpha  occ. eigenvalues --  -10.27392 -10.27378 -10.27368 -10.27317 -10.27282
 Alpha  occ. eigenvalues --  -10.26950 -10.26937 -10.26606 -10.26549 -10.26383
 Alpha  occ. eigenvalues --  -10.26342 -10.26236 -10.26149 -10.26059 -10.25961
 Alpha  occ. eigenvalues --  -10.25832 -10.25826 -10.25757 -10.25507 -10.25300
 Alpha  occ. eigenvalues --  -10.24976 -10.24918 -10.24769 -10.24717 -10.24658
 Alpha  occ. eigenvalues --  -10.24585  -3.16687  -3.16303  -1.91569  -1.91185
 Alpha  occ. eigenvalues --   -1.91155  -1.90997  -1.90774  -1.90611  -1.16822
 Alpha  occ. eigenvalues --   -1.16563  -1.08776  -1.08562  -1.07338  -1.06872
 Alpha  occ. eigenvalues --   -1.06863  -1.06833  -1.04733  -1.04384  -1.03898
 Alpha  occ. eigenvalues --   -1.03556  -1.03375  -1.02934  -1.02551  -1.02006
 Alpha  occ. eigenvalues --   -0.92122  -0.91882  -0.89629  -0.89397  -0.89362
 Alpha  occ. eigenvalues --   -0.89029  -0.88390  -0.88125  -0.88007  -0.87824
 Alpha  occ. eigenvalues --   -0.87693  -0.87578  -0.87420  -0.87029  -0.85151
 Alpha  occ. eigenvalues --   -0.84890  -0.84033  -0.83785  -0.83096  -0.82846
 Alpha  occ. eigenvalues --   -0.82805  -0.82548  -0.81747  -0.81504  -0.80748
 Alpha  occ. eigenvalues --   -0.80346  -0.78941  -0.78540  -0.77359  -0.77088
 Alpha  occ. eigenvalues --   -0.77042  -0.76798  -0.76081  -0.75727  -0.75009
 Alpha  occ. eigenvalues --   -0.74705  -0.72911  -0.72596  -0.71810  -0.71470
 Alpha  occ. eigenvalues --   -0.69989  -0.69668  -0.69034  -0.68722  -0.67785
 Alpha  occ. eigenvalues --   -0.67503  -0.67399  -0.67108  -0.65454  -0.65166
 Alpha  occ. eigenvalues --   -0.65000  -0.64766  -0.64668  -0.64553  -0.64381
 Alpha  occ. eigenvalues --   -0.64108  -0.62457  -0.62188  -0.60576  -0.60246
 Alpha  occ. eigenvalues --   -0.59968  -0.59682  -0.59126  -0.58890  -0.58644
 Alpha  occ. eigenvalues --   -0.58326  -0.57743  -0.57459  -0.57437  -0.57142
 Alpha  occ. eigenvalues --   -0.56454  -0.56153  -0.56106  -0.55797  -0.55664
 Alpha  occ. eigenvalues --   -0.55459  -0.55358  -0.55155  -0.54655  -0.54398
 Alpha  occ. eigenvalues --   -0.54071  -0.53796  -0.53436  -0.53382  -0.53131
 Alpha  occ. eigenvalues --   -0.53069  -0.53043  -0.52912  -0.52805  -0.52572
 Alpha  occ. eigenvalues --   -0.52516  -0.52317  -0.52045  -0.51789  -0.51788
 Alpha  occ. eigenvalues --   -0.51559  -0.51335  -0.51103  -0.50719  -0.50392
 Alpha  occ. eigenvalues --   -0.50141  -0.50056  -0.49873  -0.49771  -0.49670
 Alpha  occ. eigenvalues --   -0.49385  -0.49365  -0.49254  -0.49098  -0.48990
 Alpha  occ. eigenvalues --   -0.48746  -0.48587  -0.48572  -0.48453  -0.48282
 Alpha  occ. eigenvalues --   -0.48244  -0.47839  -0.47495  -0.47436  -0.47022
 Alpha  occ. eigenvalues --   -0.46931  -0.46727  -0.46608  -0.46495  -0.46445
 Alpha  occ. eigenvalues --   -0.46294  -0.46174  -0.45990  -0.45971  -0.45725
 Alpha  occ. eigenvalues --   -0.45307  -0.45110  -0.44726  -0.44649  -0.44417
 Alpha  occ. eigenvalues --   -0.44370  -0.44274  -0.44239  -0.44166  -0.44015
 Alpha  occ. eigenvalues --   -0.43988  -0.43845  -0.43648  -0.43531  -0.43463
 Alpha  occ. eigenvalues --   -0.43281  -0.43166  -0.42866  -0.42842  -0.42802
 Alpha  occ. eigenvalues --   -0.42757  -0.42460  -0.42131  -0.41871  -0.41846
 Alpha  occ. eigenvalues --   -0.41697  -0.41567  -0.41358  -0.41283  -0.41021
 Alpha  occ. eigenvalues --   -0.40966  -0.40873  -0.40679  -0.40627  -0.40597
 Alpha  occ. eigenvalues --   -0.40434  -0.40394  -0.40134  -0.39516  -0.39338
 Alpha  occ. eigenvalues --   -0.38583  -0.38253  -0.37938  -0.37560  -0.37439
 Alpha  occ. eigenvalues --   -0.37434  -0.37166  -0.37094  -0.36877  -0.36686
 Alpha  occ. eigenvalues --   -0.36336  -0.36120  -0.34429  -0.34149  -0.33955
 Alpha  occ. eigenvalues --   -0.33775  -0.33331  -0.33070  -0.31468  -0.31178
 Alpha  occ. eigenvalues --   -0.31177  -0.30866  -0.30176  -0.29858  -0.29594
 Alpha  occ. eigenvalues --   -0.29465  -0.29227  -0.29109  -0.24224  -0.23928
 Alpha  occ. eigenvalues --   -0.21269  -0.21011
 Alpha virt. eigenvalues --   -0.08917  -0.08688  -0.01888  -0.01578  -0.00203
 Alpha virt. eigenvalues --    0.00074   0.02062   0.02307   0.02939   0.03317
 Alpha virt. eigenvalues --    0.04555   0.04839   0.04915   0.05252   0.05976

 Mulliken charges:
               1
     1  Mg   0.837914
     2  C   -0.003411
     3  C   -0.094831
     4  C   -0.045412
     5  C   -0.063592
     6  N   -0.256798
     7  C   -0.052759
     8  C   -0.013868
     9  C   -0.086856
    10  C    0.046000
    11  C    0.104746
    12  C    0.053670
    13  C   -0.071496
    14  H    0.035003
    15  N   -0.433162
    16  C    0.168023
    17  C   -0.177735
    18  C   -0.004151
    19  C    0.148517
    20  C    0.110256
    21  C    0.012153
    22  O   -0.248619
    23  C    0.062739
    24  N   -0.341151
    25  C    0.041228
    26  C   -0.028322
    27  C   -0.024093
    28  C    0.074997
    29  C    0.076036
    30  C    0.034957
    31  C   -0.004534
    32  N   -0.310506
    33  C    0.080458
    34  C   -0.169460
    35  C    0.008405
    36  C    0.082904
    37  C    0.127283
    38  C    0.046104
    39  O   -0.188227
    40  C   -0.005333
    41  C    0.213016
    42  O   -0.257900
    43  O   -0.304528
    44  C    0.157743
    45  H   -0.017575
    46  H   -0.016190
    47  H   -0.041024
    48  H    0.001184
    49  H   -0.004429
    50  H    0.025662
    51  H    0.016753
    52  H    0.016794
    53  H    0.010158
    54  H    0.043430
    55  H    0.018596
    56  H    0.017749
    57  H    0.005733
    58  H    0.027297
    59  H    0.038477
    60  H    0.037518
    61  H    0.036396
    62  H    0.030093
    63  H    0.017339
    64  H    0.009635
    65  H    0.023728
    66  H    0.012430
    67  H    0.004922
    68  H    0.006895
    69  H    0.004693
    70  H    0.009833
    71  H    0.018678
    72  H    0.028291
    73  H    0.047685
    74  H    0.009464
    75  H    0.046258
    76  H    0.035403
    77  H    0.043427
    78  H    0.046156
    79  H    0.053133
    80  Mg   0.838071
    81  C   -0.016884
    82  C   -0.087579
    83  C   -0.045389
    84  C   -0.064818
    85  N   -0.254626
    86  C   -0.049588
    87  C   -0.015139
    88  C   -0.090511
    89  C    0.045720
    90  C    0.114170
    91  C    0.062601
    92  C   -0.077611
    93  H    0.034296
    94  N   -0.423583
    95  C    0.162928
    96  C   -0.174174
    97  C   -0.007845
    98  C    0.152276
    99  C    0.099306
   100  C    0.015750
   101  O   -0.252902
   102  C    0.061221
   103  N   -0.349978
   104  C    0.037640
   105  C   -0.019873
   106  C   -0.034776
   107  C    0.088890
   108  C    0.073597
   109  C    0.034780
   110  C   -0.007620
   111  N   -0.324107
   112  C    0.078449
   113  C   -0.163194
   114  C    0.002264
   115  C    0.096181
   116  C    0.131484
   117  C    0.042327
   118  O   -0.188105
   119  C    0.000942
   120  C    0.211174
   121  O   -0.251227
   122  O   -0.305492
   123  C    0.152132
   124  H   -0.018874
   125  H   -0.015560
   126  H   -0.040639
   127  H   -0.000530
   128  H   -0.004855
   129  H    0.022572
   130  H    0.015866
   131  H    0.017093
   132  H    0.013603
   133  H    0.037479
   134  H    0.020980
   135  H    0.019241
   136  H    0.008778
   137  H    0.026349
   138  H    0.038738
   139  H    0.038108
   140  H    0.036626
   141  H    0.033152
   142  H    0.014215
   143  H    0.012433
   144  H    0.024855
   145  H    0.012158
   146  H    0.005600
   147  H    0.006072
   148  H    0.003532
   149  H    0.010847
   150  H    0.017691
   151  H    0.030154
   152  H    0.045766
   153  H    0.008336
   154  H    0.047105
   155  H    0.035352
   156  H    0.043805
   157  H    0.049399
   158  H    0.053376
 Sum of Mulliken charges =  -0.00000

 Dipole moment (field-independent basis, Debye):
    X=              6.3674    Y=              1.2053    Z=              5.1459  Tot=              8.2751
 Quadrupole moment (field-independent basis, Debye-Ang):
   XX=           -554.9529   YY=           -504.5962   ZZ=           -486.0108
   XY=             16.9768   XZ=             22.4593   YZ=             58.2020

 Normal termination of Gaussian 16 at Sat Sep 11 16:18:44 2021.
