 Gaussian 16, Revision A.03,
 Gaussian 16:  ES64L-G16RevA.03 25-Dec-2016

 -----------------------------------
 #p cam-b3lyp/Def2SVP td=(nstates=5)
 -----------------------------------

 --------------------------------
 TDDFT excited states in gaussian
 --------------------------------
 Symbolic Z-matrix:
 Charge =  0 Multiplicity = 1

                         Standard orientation:
 ---------------------------------------------------------------------
 Center     Atomic      Atomic             Coordinates (Angstroms)
 Number     Number       Type             X           Y           Z
 ---------------------------------------------------------------------
      1         12           0        8.119831   -0.548821    0.374811
      2          6           0        8.334251    2.521749   -1.452163
      3          6           0        8.869182    1.241540    3.181257
      4          6           0        8.383719   -3.300833    1.928328
      5          6           0        8.513509   -2.212014   -2.662370
      6          7           0        8.526416    1.603412    0.696100
      7          6           0        8.518709    2.684563   -0.077349
      8          6           0        8.649868    4.016146    0.720809
      9          6           0        9.367579    3.455555    2.029484
     10          6           0        8.863984    2.023560    1.988173
     11          6           0       10.889704    3.443935    1.932006
     12          6           0        7.256971    4.647371    1.057146
     13          6           0        7.297677    6.099193    1.542852
     14          1           0        6.219557    6.997131    1.157220
     15          7           0        8.079445   -0.935648    2.311712
     16          6           0        8.400315   -0.083315    3.314636
     17          6           0        8.209973   -0.841121    4.570096
     18          6           0        7.935396   -2.259494    4.208269
     19          6           0        8.150566   -2.226935    2.784183
     20          6           0        8.247240   -0.207940    5.927094
     21          6           0        7.551811   -3.456900    5.018957
     22          8           0        7.588608   -4.642114    4.540952
     23          6           0        7.212269   -3.211957    6.432377
     24          7           0        8.626487   -2.480230   -0.233955
     25          6           0        8.608424   -3.502563    0.628306
     26          6           0        8.726410   -4.818292   -0.082239
     27          6           0        8.584439   -4.494107   -1.639320
     28          6           0        8.485674   -2.951146   -1.551076
     29          6           0       10.027404   -5.595753    0.160620
     30          6           0        7.486893   -5.260010   -2.419837
     31          6           0        6.119419   -4.825107   -1.942374
     32          7           0        8.202487    0.013542   -1.719935
     33          6           0        8.395164   -0.840707   -2.815293
     34          6           0        8.486591    0.010267   -4.015940
     35          6           0        8.356488    1.309966   -3.530452
     36          6           0        8.220387    1.274769   -2.113226
     37          6           0        8.725314   -0.443855   -5.343049
     38          6           0        8.325485    2.721722   -3.876632
     39          8           0        8.301901    3.355261   -4.932835
     40          6           0        8.432099    3.569584   -2.532909
     41          6           0        7.368233    4.632243   -2.580386
     42          8           0        6.158498    4.328702   -2.538313
     43          8           0        7.937164    5.837967   -2.428430
     44          6           0        6.933050    6.935165   -2.436617
     45          1           0        9.326378    1.655873    4.081947
     46          1           0        8.371291   -4.279842    2.411884
     47          1           0        8.551502   -2.665571   -3.654487
     48          1           0        9.277551    4.770585    0.246194
     49          1           0        9.015961    3.955006    2.932055
     50          1           0       11.226627    3.702631    0.928273
     51          1           0       11.189731    2.426571    2.183891
     52          1           0       11.331659    4.084429    2.695695
     53          1           0        6.849292    4.165762    1.945916
     54          1           0        6.582782    4.571628    0.203297
     55          1           0        8.266567    6.558611    1.345123
     56          1           0        7.215129    6.098155    2.629767
     57          1           0        8.632877    0.809873    5.883668
     58          1           0        8.986547   -0.753761    6.512937
     59          1           0        7.278993   -0.249729    6.426178
     60          1           0        8.064422   -2.751348    6.932600
     61          1           0        6.877357   -4.168776    6.831353
     62          1           0        6.399951   -2.486113    6.479700
     63          1           0        7.927911   -5.496587    0.215657
     64          1           0        9.501386   -4.711470   -2.187624
     65          1           0        9.870221   -6.600398    0.553923
     66          1           0       10.651942   -5.006460    0.831423
     67          1           0       10.673918   -5.688766   -0.711609
     68          1           0        7.566201   -6.330502   -2.233554
     69          1           0        7.538616   -5.106224   -3.497763
     70          1           0        5.962346   -5.442625   -1.058728
     71          1           0        5.366685   -5.033782   -2.703333
     72          1           0        6.123841   -3.784833   -1.616341
     73          1           0        8.039136    0.110516   -5.983207
     74          1           0        8.565997   -1.518527   -5.428497
     75          1           0        9.771876   -0.165761   -5.466444
     76          1           0        9.434892    3.994996   -2.509417
     77          1           0        7.228704    7.635011   -3.218306
     78          1           0        6.877143    7.311677   -1.415090
     79          1           0        5.929368    6.667585   -2.768825
     80         12           0       -7.740020   -0.807951   -0.163143
     81          6           0      -10.283899    1.677390    0.317280
     82          6           0       -5.529270    1.753323   -0.595619
     83          6           0       -5.573766   -2.956532   -1.033976
     84          6           0      -10.289633   -3.089871   -0.824995
     85          7           0       -7.993903    1.388859   -0.120597
     86          6           0       -8.994663    2.218808    0.132425
     87          6           0       -8.576589    3.707363    0.270213
     88          6           0       -7.221388    3.657123   -0.589881
     89          6           0       -6.865823    2.183977   -0.399944
     90          6           0       -7.439953    3.908390   -2.072591
     91          6           0       -8.296916    4.114259    1.759584
     92          6           0       -8.185853    5.620701    2.004677
     93          1           0       -8.693481    6.160445    3.263033
     94          7           0       -5.761815   -0.674812   -0.249946
     95          6           0       -5.027786    0.446910   -0.405561
     96          6           0       -3.623536    0.009005   -0.427501
     97          6           0       -3.596288   -1.478904   -0.437612
     98          6           0       -5.007292   -1.767307   -0.598769
     99          6           0       -2.470899    0.968082   -0.356786
    100          6           0       -2.482989   -2.476908   -0.333919
    101          8           0       -2.662744   -3.716750   -0.604701
    102          6           0       -1.154685   -1.944626    0.003395
    103          7           0       -7.891098   -2.687702   -1.038390
    104          6           0       -6.796569   -3.435658   -1.263086
    105          6           0       -7.170002   -4.849293   -1.640679
    106          6           0       -8.744996   -4.960128   -1.386280
    107          6           0       -9.037738   -3.501256   -0.972303
    108          6           0       -6.857208   -5.258121   -3.079910
    109          6           0       -9.228444   -6.104297   -0.453640
    110          6           0       -8.761291   -5.849012    0.961273
    111          7           0       -9.898458   -0.799490   -0.067546
    112          6           0      -10.771741   -1.853847   -0.413631
    113          6           0      -12.149759   -1.335453   -0.292189
    114          6           0      -11.980685    0.001885    0.096966
    115          6           0      -10.594775    0.301881    0.190486
    116          6           0      -13.340104   -2.062450   -0.576247
    117          6           0      -12.659349    1.230999    0.439596
    118          8           0      -13.833051    1.555271    0.615687
    119          6           0      -11.589599    2.406060    0.474777
    120          6           0      -11.804987    3.192598    1.738695
    121          8           0      -11.604469    2.670936    2.849674
    122          8           0      -12.000125    4.486320    1.424747
    123          6           0      -12.207453    5.308878    2.646326
    124          1           0       -4.801780    2.473605   -0.970905
    125          1           0       -4.869984   -3.766111   -1.240767
    126          1           0      -11.141449   -3.766797   -0.919109
    127          1           0       -9.269019    4.416103   -0.167981
    128          1           0       -6.454436    4.293484   -0.156086
    129          1           0       -8.489321    3.962446   -2.321674
    130          1           0       -6.972060    3.077320   -2.583904
    131          1           0       -6.894042    4.802190   -2.387953
    132          1           0       -7.279407    3.804326    2.030418
    133          1           0       -9.036090    3.695170    2.414276
    134          1           0       -8.562016    6.205183    1.156247
    135          1           0       -7.127378    5.885468    2.064259
    136          1           0       -2.796928    2.001917   -0.525008
    137          1           0       -1.818333    0.747093   -1.208367
    138          1           0       -1.894822    0.867010    0.565481
    139          1           0       -0.858724   -1.212191   -0.743868
    140          1           0       -0.510587   -2.818411    0.119584
    141          1           0       -1.223847   -1.410416    0.957578
    142          1           0       -6.660587   -5.565923   -1.008187
    143          1           0       -9.297108   -5.138448   -2.320725
    144          1           0       -6.205882   -6.149818   -3.148612
    145          1           0       -6.402238   -4.415227   -3.582970
    146          1           0       -7.727496   -5.456819   -3.703079
    147          1           0       -8.785565   -7.055205   -0.759904
    148          1           0      -10.305345   -6.235742   -0.453769
    149          1           0       -7.737746   -6.235546    0.956736
    150          1           0       -9.383464   -6.387665    1.673168
    151          1           0       -8.706839   -4.774226    1.169874
    152          1           0      -14.038519   -1.839338    0.219319
    153          1           0      -13.146032   -3.130604   -0.648009
    154          1           0      -13.607919   -1.628045   -1.543111
    155          1           0      -11.742190    3.014812   -0.417249
    156          1           0      -13.161028    5.831245    2.521716
    157          1           0      -11.299758    5.933706    2.743362
    158          1           0      -12.373493    4.785582    3.580693
 ---------------------------------------------------------------------

 SCF Done:  E(RCAM-B3LYP) =  -4069.81198164     A.U. after   19 cycles

 Excitation energies and oscillator strengths:

 Excited State   1:      Singlet-A      1.6751 eV  740.14 nm  f=0.3868  <S**2>=0.000
     310 -> 316       -0.16518
     311 -> 313       -0.21169
     312 -> 314        0.65257
 This state for optimization and/or second-order correction.
 Total Energy, E(TD-HF/TD-DFT) =  -4069.75042107
 Copying the excited state density for this state as the 1-particle RhoCI density.

 Excited State   2:      Singlet-A      1.6800 eV  737.99 nm  f=0.3991  <S**2>=0.000
     309 -> 315        0.16725
     311 -> 313        0.65223
     312 -> 314        0.21171
     309 <- 315        0.10019

 Excited State   3:      Singlet-A      2.1866 eV  567.01 nm  f=0.0531  <S**2>=0.000
     309 -> 313       -0.15634
     310 -> 314        0.62326
     312 -> 316        0.26519

 Excited State   4:      Singlet-A      2.1937 eV  565.19 nm  f=0.1393  <S**2>=0.000
     309 -> 313        0.62140
     310 -> 314        0.15529
     311 -> 315       -0.27063

 Excited State   5:      Singlet-A      2.7335 eV  453.57 nm  f=0.0000  <S**2>=0.000
     312 -> 313        0.70699

 The electronic state is 1-A.
 Alpha  occ. eigenvalues --  -46.87910 -46.87572 -19.26457 -19.26297 -19.19199
 Alpha  occ. eigenvalues --  -19.19104 -19.18897 -19.18597 -19.18293 -19.17972
 Alpha  occ. eigenvalues --  -14.42565 -14.42409 -14.41552 -14.41272 -14.39513
 Alpha  occ. eigenvalues --  -14.39260 -14.38701 -14.38513 -10.39252 -10.39032
 Alpha  occ. eigenvalues --  -10.35529 -10.35271 -10.34515 -10.34151 -10.31863
 Alpha  occ. eigenvalues --  -10.31714 -10.31523 -10.31224 -10.31028 -10.30929
 Alpha  occ. eigenvalues --  -10.30684 -10.30613 -10.30311 -10.30298 -10.30272
 Alpha  occ. eigenvalues --  -10.30047 -10.30018 -10.29815 -10.29736 -10.29358
 Alpha  occ. eigenvalues --  -10.29338 -10.29304 -10.28887 -10.28714 -10.28640
 Alpha  occ. eigenvalues --  -10.28602 -10.28480 -10.28312 -10.28242 -10.28053
 Alpha  occ. eigenvalues --  -10.27908 -10.27902 -10.27837 -10.27689 -10.27580
 Alpha  occ. eigenvalues --  -10.27573 -10.27562 -10.27520 -10.27512 -10.27442
 Alpha  occ. eigenvalues --  -10.27397 -10.27365 -10.27300 -10.27297 -10.27293
 Alpha  occ. eigenvalues --  -10.26977 -10.26876 -10.26628 -10.26481 -10.26345
 Alpha  occ. eigenvalues --  -10.26260 -10.26219 -10.26117 -10.26072 -10.25941
 Alpha  occ. eigenvalues --  -10.25927 -10.25847 -10.25779 -10.25488 -10.25321
 Alpha  occ. eigenvalues --  -10.24945 -10.24888 -10.24783 -10.24711 -10.24669
 Alpha  occ. eigenvalues --  -10.24602  -3.16654  -3.16322  -1.91536  -1.91205
 Alpha  occ. eigenvalues --   -1.91122  -1.90964  -1.90793  -1.90630  -1.16806
 Alpha  occ. eigenvalues --   -1.16590  -1.08755  -1.08583  -1.07297  -1.06888
 Alpha  occ. eigenvalues --   -1.06849  -1.06818  -1.04697  -1.04406  -1.03865
 Alpha  occ. eigenvalues --   -1.03575  -1.03342  -1.02950  -1.02519  -1.02023
 Alpha  occ. eigenvalues --   -0.92091  -0.91903  -0.89603  -0.89413  -0.89318
 Alpha  occ. eigenvalues --   -0.89069  -0.88365  -0.88141  -0.87978  -0.87786
 Alpha  occ. eigenvalues --   -0.87710  -0.87596  -0.87372  -0.86998  -0.85108
 Alpha  occ. eigenvalues --   -0.84916  -0.84011  -0.83801  -0.83049  -0.82815
 Alpha  occ. eigenvalues --   -0.82766  -0.82558  -0.81720  -0.81525  -0.80715
 Alpha  occ. eigenvalues --   -0.80359  -0.78900  -0.78527  -0.77323  -0.77056
 Alpha  occ. eigenvalues --   -0.77056  -0.76824  -0.76047  -0.75753  -0.74984
 Alpha  occ. eigenvalues --   -0.74722  -0.72878  -0.72611  -0.71778  -0.71496
 Alpha  occ. eigenvalues --   -0.69969  -0.69683  -0.68992  -0.68741  -0.67751
 Alpha  occ. eigenvalues --   -0.67514  -0.67349  -0.67111  -0.65414  -0.65192
 Alpha  occ. eigenvalues --   -0.64970  -0.64734  -0.64687  -0.64575  -0.64355
 Alpha  occ. eigenvalues --   -0.64125  -0.62435  -0.62209  -0.60536  -0.60232
 Alpha  occ. eigenvalues --   -0.59927  -0.59711  -0.59095  -0.58908  -0.58613
 Alpha  occ. eigenvalues --   -0.58341  -0.57719  -0.57481  -0.57408  -0.57147
 Alpha  occ. eigenvalues --   -0.56420  -0.56126  -0.56111  -0.55814  -0.55624
 Alpha  occ. eigenvalues --   -0.55437  -0.55354  -0.55174  -0.54634  -0.54418
 Alpha  occ. eigenvalues --   -0.54026  -0.53830  -0.53400  -0.53339  -0.53137
 Alpha  occ. eigenvalues --   -0.53050  -0.53039  -0.52860  -0.52822  -0.52545
 Alpha  occ. eigenvalues --   -0.52497  -0.52329  -0.52021  -0.51808  -0.51743
 Alpha  occ. eigenvalues --   -0.51566  -0.51307  -0.51122  -0.50660  -0.50344
 Alpha  occ. eigenvalues --   -0.50108  -0.50015  -0.49880  -0.49777  -0.49628
 Alpha  occ. eigenvalues --   -0.49387  -0.49329  -0.49217  -0.49108  -0.49023
 Alpha  occ. eigenvalues --   -0.48717  -0.48553  -0.48543  -0.48476  -0.48298
 Alpha  occ. eigenvalues --   -0.48228  -0.47801  -0.47500  -0.47399  -0.47014
 Alpha  occ. eigenvalues --   -0.46899  -0.46684  -0.46626  -0.46468  -0.46464
 Alpha  occ. eigenvalues --   -0.46268  -0.46178  -0.46006  -0.45946  -0.45750
 Alpha  occ. eigenvalues --   -0.45282  -0.45127  -0.44697  -0.44607  -0.44434
 Alpha  occ. eigenvalues --   -0.44389  -0.44242  -0.44200  -0.44131  -0.44041
 Alpha  occ. eigenvalues --   -0.43990  -0.43833  -0.43623  -0.43495  -0.43485
 Alpha  occ. eigenvalues --   -0.43303  -0.43135  -0.42861  -0.42846  -0.42821
 Alpha  occ. eigenvalues --   -0.42734  -0.42468  -0.42103  -0.41890  -0.41815
 Alpha  occ. eigenvalues --   -0.41656  -0.41587  -0.41379  -0.41249  -0.40981
 Alpha  occ. eigenvalues --   -0.40919  -0.40903  -0.40654  -0.40634  -0.40600
 Alpha  occ. eigenvalues --   -0.40416  -0.40379  -0.40147  -0.39497  -0.39353
 Alpha  occ. eigenvalues --   -0.38555  -0.38273  -0.37890  -0.37581  -0.37410
 Alpha  occ. eigenvalues --   -0.37393  -0.37185  -0.37115  -0.36858  -0.36710
 Alpha  occ. eigenvalues --   -0.36310  -0.36142  -0.34397  -0.34168  -0.33938
 Alpha  occ. eigenvalues --   -0.33799  -0.33299  -0.33088  -0.31428  -0.31159
 Alpha  occ. eigenvalues --   -0.31144  -0.30884  -0.30154  -0.29879  -0.29555
 Alpha  occ. eigenvalues --   -0.29434  -0.29227  -0.29122  -0.24192  -0.23949
 Alpha  occ. eigenvalues --   -0.21235  -0.21026
 Alpha virt. eigenvalues --   -0.08882  -0.08698  -0.01854  -0.01594  -0.00162
 Alpha virt. eigenvalues --    0.00076   0.02089   0.02291   0.02966   0.03300
 Alpha virt. eigenvalues --    0.04596   0.04811   0.04933   0.05227   0.06026

 Mulliken charges:
               1
     1  Mg   0.837832
     2  C   -0.003460
     3  C   -0.094369
     4  C   -0.045646
     5  C   -0.063680
     6  N   -0.256801
     7  C   -0.052734
     8  C   -0.013914
     9  C   -0.086943
    10  C    0.046114
    11  C    0.104750
    12  C    0.053546
    13  C   -0.071610
    14  H    0.035212
    15  N   -0.433233
    16  C    0.168285
    17  C   -0.177230
    18  C   -0.003889
    19  C    0.148601
    20  C    0.110152
    21  C    0.012348
    22  O   -0.249049
    23  C    0.062482
    24  N   -0.341143
    25  C    0.041273
    26  C   -0.028256
    27  C   -0.024071
    28  C    0.074805
    29  C    0.076063
    30  C    0.035021
    31  C   -0.004601
    32  N   -0.310395
    33  C    0.080159
    34  C   -0.169750
    35  C    0.008278
    36  C    0.082638
    37  C    0.127349
    38  C    0.045838
    39  O   -0.188602
    40  C   -0.005238
    41  C    0.213027
    42  O   -0.258167
    43  O   -0.304478
    44  C    0.157848
    45  H   -0.017445
    46  H   -0.016350
    47  H   -0.041153
    48  H    0.001037
    49  H   -0.004126
    50  H    0.025567
    51  H    0.016690
    52  H    0.016833
    53  H    0.010812
    54  H    0.043312
    55  H    0.018331
    56  H    0.018084
    57  H    0.005837
    58  H    0.027184
    59  H    0.039462
    60  H    0.037446
    61  H    0.036194
    62  H    0.031231
    63  H    0.017061
    64  H    0.009610
    65  H    0.023626
    66  H    0.012477
    67  H    0.004922
    68  H    0.006910
    69  H    0.004795
    70  H    0.009396
    71  H    0.019081
    72  H    0.027965
    73  H    0.047362
    74  H    0.009423
    75  H    0.046185
    76  H    0.035373
    77  H    0.043208
    78  H    0.046403
    79  H    0.052891
    80  Mg   0.837555
    81  C   -0.016873
    82  C   -0.087757
    83  C   -0.045475
    84  C   -0.064907
    85  N   -0.254520
    86  C   -0.050029
    87  C   -0.015069
    88  C   -0.090456
    89  C    0.045597
    90  C    0.114295
    91  C    0.062556
    92  C   -0.077721
    93  H    0.034369
    94  N   -0.423576
    95  C    0.162811
    96  C   -0.174207
    97  C   -0.007668
    98  C    0.152157
    99  C    0.099035
   100  C    0.015652
   101  O   -0.253355
   102  C    0.061085
   103  N   -0.350002
   104  C    0.037611
   105  C   -0.019868
   106  C   -0.034726
   107  C    0.088740
   108  C    0.073653
   109  C    0.034800
   110  C   -0.007640
   111  N   -0.324003
   112  C    0.078205
   113  C   -0.163364
   114  C    0.002124
   115  C    0.096012
   116  C    0.131547
   117  C    0.042191
   118  O   -0.188296
   119  C    0.000985
   120  C    0.211200
   121  O   -0.251176
   122  O   -0.305587
   123  C    0.152116
   124  H   -0.018883
   125  H   -0.015537
   126  H   -0.040706
   127  H   -0.000766
   128  H   -0.004279
   129  H    0.022305
   130  H    0.014769
   131  H    0.016565
   132  H    0.013832
   133  H    0.037508
   134  H    0.020835
   135  H    0.019560
   136  H    0.009217
   137  H    0.028215
   138  H    0.039724
   139  H    0.039804
   140  H    0.036517
   141  H    0.033403
   142  H    0.014320
   143  H    0.012289
   144  H    0.025026
   145  H    0.011895
   146  H    0.005573
   147  H    0.006110
   148  H    0.003495
   149  H    0.010911
   150  H    0.017704
   151  H    0.030154
   152  H    0.045738
   153  H    0.008333
   154  H    0.046784
   155  H    0.034950
   156  H    0.043764
   157  H    0.049438
   158  H    0.053410
 Sum of Mulliken charges =  -0.00000

 Dipole moment (field-independent basis, Debye):
    X=              5.6372    Y=              2.6850    Z=              2.4339  Tot=              6.7016
 Quadrupole moment (field-independent basis, Debye-Ang):
   XX=           -558.4988   YY=           -473.8976   ZZ=           -512.7809
   XY=             15.6124   XZ=             55.2788   YZ=             39.6213

 Normal termination of Gaussian 16 at Sun Sep 12 09:09:29 2021.
