 Gaussian 16, Revision A.03,
 Gaussian 16:  ES64L-G16RevA.03 25-Dec-2016

 -----------------------------------
 #p cam-b3lyp/Def2SVP td=(nstates=5)
 -----------------------------------

 --------------------------------
 TDDFT excited states in gaussian
 --------------------------------
 Symbolic Z-matrix:
 Charge =  0 Multiplicity = 1

                         Standard orientation:
 ---------------------------------------------------------------------
 Center     Atomic      Atomic             Coordinates (Angstroms)
 Number     Number       Type             X           Y           Z
 ---------------------------------------------------------------------
      1         12           0        7.818532   -0.596724    0.434941
      2          6           0        8.215353    2.264335   -1.679081
      3          6           0        8.834146    1.367906    3.033368
      4          6           0        7.913371   -3.208826    2.230644
      5          6           0        7.941900   -2.557028   -2.443886
      6          7           0        8.419136    1.531478    0.538282
      7          6           0        8.470555    2.534383   -0.332756
      8          6           0        8.747482    3.916143    0.331643
      9          6           0        9.469479    3.415545    1.662102
     10          6           0        8.845086    2.035766    1.772862
     11          6           0       10.979701    3.260841    1.514463
     12          6           0        7.428440    4.695748    0.654249
     13          6           0        7.612375    6.176392    0.999525
     14          1           0        6.598954    7.127235    0.567986
     15          7           0        7.826953   -0.801015    2.399895
     16          6           0        8.260743    0.107200    3.306679
     17          6           0        8.059813   -0.513722    4.633617
     18          6           0        7.651095   -1.929300    4.416401
     19          6           0        7.808212   -2.045289    2.989082
     20          6           0        8.207584    0.234281    5.922960
     21          6           0        7.201854   -3.009612    5.348732
     22          8           0        7.117985   -4.231934    4.983397
     23          6           0        6.943984   -2.608346    6.743554
     24          7           0        8.133704   -2.612572   -0.006258
     25          6           0        8.065345   -3.546796    0.948487
     26          6           0        8.041472   -4.926861    0.361300
     27          6           0        7.862166   -4.734129   -1.213646
     28          6           0        7.898272   -3.186858   -1.267672
     29          6           0        9.280974   -5.790828    0.631870
     30          6           0        6.671850   -5.467874   -1.880868
     31          6           0        5.367415   -4.872441   -1.400237
     32          7           0        7.860430   -0.236370   -1.705020
     33          6           0        7.933838   -1.200198   -2.721052
     34          6           0        8.046492   -0.473153   -3.998856
     35          6           0        8.047487    0.871647   -3.633676
     36          6           0        7.968574    0.977419   -2.215622
     37          6           0        8.189900   -1.065180   -5.284691
     38          6           0        8.121680    2.243346   -4.109904
     39          8           0        8.107489    2.777972   -5.219619
     40          6           0        8.356118    3.196977   -2.856327
     41          6           0        7.385054    4.340659   -2.967391
     42          8           0        6.156793    4.150140   -2.855843
     43          8           0        8.059971    5.500268   -2.948991
     44          6           0        7.152969    6.676505   -3.026244
     45          1           0        9.362247    1.820333    3.875009
     46          1           0        7.838378   -4.134954    2.804316
     47          1           0        7.899604   -3.100366   -3.389639
     48          1           0        9.416323    4.566025   -0.232918
     49          1           0        9.199682    4.023954    2.525102
     50          1           0       11.294849    3.396588    0.479970
     51          1           0       11.202777    2.248056    1.850613
     52          1           0       11.506033    3.926515    2.199029
     53          1           0        7.019136    4.334687    1.597735
     54          1           0        6.714973    4.602588   -0.165270
     55          1           0        8.607535    6.528656    0.726621
     56          1           0        7.575787    6.281332    2.083890
     57          1           0        8.675898    1.205928    5.770871
     58          1           0        8.921956   -0.319200    6.532090
     59          1           0        7.261111    0.323590    6.456387
     60          1           0        7.852363   -2.181230    7.168958
     61          1           0        6.546277   -3.491684    7.241946
     62          1           0        6.198789   -1.812361    6.749956
     63          1           0        7.201605   -5.502182    0.748670
     64          1           0        8.733545   -5.080445   -1.769917
     65          1           0        9.055909   -6.737807    1.123074
     66          1           0        9.980829   -5.200488    1.222626
     67          1           0        9.880055   -6.019339   -0.249210
     68          1           0        6.667938   -6.519837   -1.597488
     69          1           0        6.691069   -5.417759   -2.969615
     70          1           0        5.195865   -5.390898   -0.457579
     71          1           0        4.568396   -5.082098   -2.112153
     72          1           0        5.473652   -3.811329   -1.173875
     73          1           0        7.526862   -0.512838   -5.950474
     74          1           0        7.936659   -2.124901   -5.263173
     75          1           0        9.250147   -0.892886   -5.469212
     76          1           0        9.391445    3.532602   -2.907072
     77          1           0        7.473739    7.273655   -3.879914
     78          1           0        7.172140    7.147668   -2.043369
     79          1           0        6.117155    6.469491   -3.297487
     80         12           0       -8.010876    0.485884    0.458391
     81          6           0       -7.636759   -1.708539   -2.356494
     82          6           0       -8.376061   -2.300161    2.392079
     83          6           0       -8.790696    2.387146    2.875929
     84          6           0       -8.753115    3.032543   -1.801993
     85          7           0       -7.989301   -1.670319   -0.034152
     86          6           0       -7.777358   -2.386782   -1.127816
     87          6           0       -7.632334   -3.912166   -0.879376
     88          6           0       -8.442158   -4.008545    0.504019
     89          6           0       -8.231558   -2.583082    1.010349
     90          6           0       -9.933168   -4.232584    0.314190
     91          6           0       -6.135936   -4.349045   -0.700613
     92          6           0       -5.894972   -5.858941   -0.763041
     93          1           0       -4.658857   -6.341911   -1.372326
     94          7           0       -8.026189    0.138409    2.412253
     95          6           0       -8.160898   -1.056319    3.025240
     96          6           0       -8.129297   -0.773781    4.468617
     97          6           0       -8.130496    0.702346    4.657778
     98          6           0       -8.341451    1.142772    3.293370
     99          6           0       -8.021695   -1.852674    5.506800
    100          6           0       -7.980962    1.573142    5.868370
    101          8           0       -8.251527    2.825538    5.834528
    102          6           0       -7.598273    0.899047    7.117620
    103          7           0       -8.881044    2.372059    0.544850
    104          6           0       -9.061695    2.996790    1.721708
    105          6           0       -9.445130    4.443161    1.518292
    106          6           0       -9.247746    4.724370   -0.043612
    107          6           0       -8.852490    3.305463   -0.508234
    108          6           0      -10.869801    4.817428    1.926460
    109          6           0       -8.327283    5.913126   -0.433861
    110          6           0       -6.897653    5.606649   -0.049650
    111          7           0       -7.994089    0.712204   -1.690228
    112          6           0       -8.366179    1.855777   -2.430398
    113          6           0       -8.297821    1.490236   -3.860140
    114          6           0       -7.909886    0.141935   -3.851866
    115          6           0       -7.767491   -0.307208   -2.511153
    116          6           0       -8.621222    2.342812   -4.953138
    117          6           0       -7.598764   -1.006487   -4.672243
    118          8           0       -7.467323   -1.201356   -5.879921
    119          6           0       -7.530852   -2.291021   -3.738571
    120          6           0       -6.279833   -3.051117   -4.084567
    121          8           0       -5.159519   -2.555844   -3.869586
    122          8           0       -6.607557   -4.315507   -4.407467
    123          6           0       -5.398747   -5.112238   -4.747818
    124          1           0       -8.728399   -3.094824    3.050308
    125          1           0       -8.967381    3.115609    3.670660
    126          1           0       -8.874629    3.798255   -2.571138
    127          1           0       -8.099249   -4.540768   -1.628123
    128          1           0       -7.984076   -4.725156    1.180761
    129          1           0      -10.220625   -4.171802   -0.724957
    130          1           0      -10.422651   -3.456679    0.888144
    131          1           0      -10.233157   -5.180054    0.770961
    132          1           0       -5.826542   -4.152015    0.333884
    133          1           0       -5.506421   -3.852878   -1.413468
    134          1           0       -6.759649   -6.397905   -1.168999
    135          1           0       -5.798242   -6.237394    0.257467
    136          1           0       -8.207194   -2.844670    5.076758
    137          1           0       -8.847723   -1.702879    6.210438
    138          1           0       -7.078509   -1.816101    6.056093
    139          1           0       -8.338136    0.139736    7.359544
    140          1           0       -7.454035    1.697410    7.848155
    141          1           0       -6.650101    0.374281    6.955729
    142          1           0       -8.790675    5.099262    2.078944
    143          1           0      -10.200747    4.962941   -0.538296
    144          1           0      -10.909966    5.633051    2.672922
    145          1           0      -11.360416    3.930696    2.305338
    146          1           0      -11.523218    5.110461    1.106467
    147          1           0       -8.612131    6.810585    0.120729
    148          1           0       -8.365979    6.160961   -1.489362
    149          1           0       -6.862805    5.879522    1.009319
    150          1           0       -6.206062    6.208864   -0.635387
    151          1           0       -6.692924    4.532040   -0.120059
    152          1           0       -7.852854    2.195973   -5.700489
    153          1           0       -8.680176    3.383610   -4.641606
    154          1           0       -9.599512    1.941402   -5.230792
    155          1           0       -8.431081   -2.878370   -3.923465
    156          1           0       -5.560826   -5.527576   -5.747272
    157          1           0       -5.272004   -5.832251   -3.917591
    158          1           0       -4.468284   -4.575211   -4.890287
 ---------------------------------------------------------------------

 SCF Done:  E(RCAM-B3LYP) =  -4069.81159753     A.U. after   19 cycles

 Excitation energies and oscillator strengths:

 Excited State   1:      Singlet-A      1.6698 eV  742.49 nm  f=0.0175  <S**2>=0.000
     309 -> 315        0.10449
     310 -> 316       -0.13704
     311 -> 313        0.54680
     312 -> 314        0.41484
 This state for optimization and/or second-order correction.
 Total Energy, E(TD-HF/TD-DFT) =  -4069.75023200
 Copying the excited state density for this state as the 1-particle RhoCI density.

 Excited State   2:      Singlet-A      1.6851 eV  735.76 nm  f=0.7399  <S**2>=0.000
     309 -> 315        0.14080
     310 -> 316        0.10630
     311 -> 313       -0.41433
     312 -> 314        0.54597

 Excited State   3:      Singlet-A      2.1854 eV  567.34 nm  f=0.0602  <S**2>=0.000
     309 -> 314        0.14066
     310 -> 313        0.62714
     311 -> 316        0.26602

 Excited State   4:      Singlet-A      2.1923 eV  565.55 nm  f=0.1339  <S**2>=0.000
     309 -> 314        0.62523
     310 -> 313       -0.13973
     312 -> 315       -0.27148

 Excited State   5:      Singlet-A      2.8019 eV  442.50 nm  f=0.0000  <S**2>=0.000
     312 -> 313        0.70710

 The electronic state is 1-A.
 Alpha  occ. eigenvalues --  -46.87700 -46.87594 -19.26265 -19.26161 -19.19069
 Alpha  occ. eigenvalues --  -19.18891 -19.18747 -19.18668 -19.18061 -19.17976
 Alpha  occ. eigenvalues --  -14.42432 -14.42354 -14.41357 -14.41295 -14.39309
 Alpha  occ. eigenvalues --  -14.39288 -14.38531 -14.38486 -10.39002 -10.38954
 Alpha  occ. eigenvalues --  -10.35383 -10.35347 -10.34280 -10.34153 -10.31675
 Alpha  occ. eigenvalues --  -10.31556 -10.31305 -10.31240 -10.30961 -10.30816
 Alpha  occ. eigenvalues --  -10.30469 -10.30412 -10.30332 -10.30291 -10.30121
 Alpha  occ. eigenvalues --  -10.30082 -10.29829 -10.29826 -10.29536 -10.29376
 Alpha  occ. eigenvalues --  -10.29336 -10.29164 -10.28653 -10.28651 -10.28585
 Alpha  occ. eigenvalues --  -10.28434 -10.28339 -10.28269 -10.28078 -10.28022
 Alpha  occ. eigenvalues --  -10.27935 -10.27696 -10.27633 -10.27605 -10.27494
 Alpha  occ. eigenvalues --  -10.27460 -10.27419 -10.27418 -10.27416 -10.27406
 Alpha  occ. eigenvalues --  -10.27404 -10.27372 -10.27321 -10.27306 -10.27050
 Alpha  occ. eigenvalues --  -10.26976 -10.26619 -10.26598 -10.26385 -10.26363
 Alpha  occ. eigenvalues --  -10.26147 -10.26098 -10.26074 -10.25970 -10.25925
 Alpha  occ. eigenvalues --  -10.25869 -10.25773 -10.25730 -10.25370 -10.25354
 Alpha  occ. eigenvalues --  -10.24805 -10.24733 -10.24697 -10.24656 -10.24627
 Alpha  occ. eigenvalues --  -10.24589  -3.16442  -3.16343  -1.91324  -1.91226
 Alpha  occ. eigenvalues --   -1.90911  -1.90814  -1.90753  -1.90651  -1.16558
 Alpha  occ. eigenvalues --   -1.16509  -1.08581  -1.08516  -1.07151  -1.06922
 Alpha  occ. eigenvalues --   -1.06855  -1.06515  -1.04485  -1.04430  -1.03667
 Alpha  occ. eigenvalues --   -1.03599  -1.03138  -1.02974  -1.02316  -1.02046
 Alpha  occ. eigenvalues --   -0.91918  -0.91872  -0.89430  -0.89429  -0.89091
 Alpha  occ. eigenvalues --   -0.89086  -0.88200  -0.88159  -0.87767  -0.87723
 Alpha  occ. eigenvalues --   -0.87619  -0.87578  -0.87193  -0.87066  -0.84935
 Alpha  occ. eigenvalues --   -0.84887  -0.83848  -0.83814  -0.82896  -0.82883
 Alpha  occ. eigenvalues --   -0.82591  -0.82556  -0.81524  -0.81479  -0.80499
 Alpha  occ. eigenvalues --   -0.80376  -0.78708  -0.78575  -0.77125  -0.77081
 Alpha  occ. eigenvalues --   -0.76836  -0.76832  -0.75824  -0.75772  -0.74811
 Alpha  occ. eigenvalues --   -0.74743  -0.72678  -0.72633  -0.71580  -0.71519
 Alpha  occ. eigenvalues --   -0.69818  -0.69694  -0.68779  -0.68763  -0.67548
 Alpha  occ. eigenvalues --   -0.67538  -0.67138  -0.67127  -0.65204  -0.65187
 Alpha  occ. eigenvalues --   -0.64755  -0.64704  -0.64586  -0.64524  -0.64179
 Alpha  occ. eigenvalues --   -0.64140  -0.62204  -0.62189  -0.60359  -0.60283
 Alpha  occ. eigenvalues --   -0.59731  -0.59708  -0.58927  -0.58892  -0.58408
 Alpha  occ. eigenvalues --   -0.58359  -0.57478  -0.57476  -0.57216  -0.57174
 Alpha  occ. eigenvalues --   -0.56215  -0.56139  -0.55869  -0.55814  -0.55433
 Alpha  occ. eigenvalues --   -0.55391  -0.55244  -0.55181  -0.54421  -0.54418
 Alpha  occ. eigenvalues --   -0.53847  -0.53798  -0.53211  -0.53166  -0.53130
 Alpha  occ. eigenvalues --   -0.53078  -0.52832  -0.52814  -0.52675  -0.52617
 Alpha  occ. eigenvalues --   -0.52347  -0.52335  -0.51810  -0.51807  -0.51596
 Alpha  occ. eigenvalues --   -0.51522  -0.51132  -0.51096  -0.50502  -0.50427
 Alpha  occ. eigenvalues --   -0.49947  -0.49921  -0.49837  -0.49809  -0.49430
 Alpha  occ. eigenvalues --   -0.49426  -0.49137  -0.49118  -0.49039  -0.49000
 Alpha  occ. eigenvalues --   -0.48492  -0.48490  -0.48382  -0.48354  -0.48315
 Alpha  occ. eigenvalues --   -0.48284  -0.47604  -0.47533  -0.47209  -0.47059
 Alpha  occ. eigenvalues --   -0.46702  -0.46644  -0.46490  -0.46459  -0.46265
 Alpha  occ. eigenvalues --   -0.46206  -0.46064  -0.46018  -0.45750  -0.45715
 Alpha  occ. eigenvalues --   -0.45149  -0.45116  -0.44476  -0.44447  -0.44422
 Alpha  occ. eigenvalues --   -0.44412  -0.44064  -0.44054  -0.44014  -0.43996
 Alpha  occ. eigenvalues --   -0.43924  -0.43879  -0.43481  -0.43389  -0.43321
 Alpha  occ. eigenvalues --   -0.43294  -0.42931  -0.42859  -0.42829  -0.42598
 Alpha  occ. eigenvalues --   -0.42550  -0.42492  -0.41913  -0.41897  -0.41607
 Alpha  occ. eigenvalues --   -0.41601  -0.41438  -0.41394  -0.41049  -0.40927
 Alpha  occ. eigenvalues --   -0.40778  -0.40747  -0.40668  -0.40638  -0.40482
 Alpha  occ. eigenvalues --   -0.40431  -0.40163  -0.40136  -0.39361  -0.39352
 Alpha  occ. eigenvalues --   -0.38382  -0.38290  -0.37648  -0.37586  -0.37230
 Alpha  occ. eigenvalues --   -0.37203  -0.37164  -0.37133  -0.36691  -0.36601
 Alpha  occ. eigenvalues --   -0.36149  -0.36090  -0.34189  -0.34187  -0.33774
 Alpha  occ. eigenvalues --   -0.33647  -0.33109  -0.33088  -0.31277  -0.31227
 Alpha  occ. eigenvalues --   -0.30941  -0.30909  -0.29919  -0.29879  -0.29358
 Alpha  occ. eigenvalues --   -0.29265  -0.29221  -0.29143  -0.23984  -0.23970
 Alpha  occ. eigenvalues --   -0.21052  -0.21033
 Alpha virt. eigenvalues --   -0.08728  -0.08681  -0.01658  -0.01621   0.00027
 Alpha virt. eigenvalues --    0.00029   0.02276   0.02301   0.03240   0.03312
 Alpha virt. eigenvalues --    0.04795   0.04814   0.05220   0.05251   0.06250

 Mulliken charges:
               1
     1  Mg   0.839119
     2  C   -0.002793
     3  C   -0.094140
     4  C   -0.045977
     5  C   -0.063892
     6  N   -0.256752
     7  C   -0.052379
     8  C   -0.014008
     9  C   -0.086984
    10  C    0.046315
    11  C    0.104857
    12  C    0.053469
    13  C   -0.071812
    14  H    0.036340
    15  N   -0.433047
    16  C    0.168367
    17  C   -0.177282
    18  C   -0.004223
    19  C    0.148712
    20  C    0.110230
    21  C    0.012114
    22  O   -0.250036
    23  C    0.062560
    24  N   -0.341159
    25  C    0.041230
    26  C   -0.028067
    27  C   -0.024011
    28  C    0.074972
    29  C    0.076274
    30  C    0.035142
    31  C   -0.004465
    32  N   -0.310599
    33  C    0.080712
    34  C   -0.169287
    35  C    0.008500
    36  C    0.083294
    37  C    0.127196
    38  C    0.046456
    39  O   -0.188089
    40  C   -0.005490
    41  C    0.212882
    42  O   -0.256519
    43  O   -0.304972
    44  C    0.157616
    45  H   -0.017798
    46  H   -0.017188
    47  H   -0.041400
    48  H    0.000893
    49  H   -0.004098
    50  H    0.025424
    51  H    0.016332
    52  H    0.016493
    53  H    0.011258
    54  H    0.044466
    55  H    0.017709
    56  H    0.017835
    57  H    0.005848
    58  H    0.026537
    59  H    0.039334
    60  H    0.037310
    61  H    0.035115
    62  H    0.031430
    63  H    0.016288
    64  H    0.009336
    65  H    0.022851
    66  H    0.012483
    67  H    0.004638
    68  H    0.005907
    69  H    0.004902
    70  H    0.008270
    71  H    0.018567
    72  H    0.029475
    73  H    0.048179
    74  H    0.009212
    75  H    0.045829
    76  H    0.035002
    77  H    0.042863
    78  H    0.046244
    79  H    0.054080
    80  Mg   0.838219
    81  C   -0.016678
    82  C   -0.087801
    83  C   -0.045573
    84  C   -0.064865
    85  N   -0.254561
    86  C   -0.049745
    87  C   -0.015143
    88  C   -0.090511
    89  C    0.045775
    90  C    0.114414
    91  C    0.062522
    92  C   -0.077852
    93  H    0.034965
    94  N   -0.423424
    95  C    0.162872
    96  C   -0.174727
    97  C   -0.007954
    98  C    0.152103
    99  C    0.099413
   100  C    0.015441
   101  O   -0.253439
   102  C    0.061256
   103  N   -0.350114
   104  C    0.037506
   105  C   -0.019780
   106  C   -0.034843
   107  C    0.089038
   108  C    0.073748
   109  C    0.034734
   110  C   -0.007684
   111  N   -0.324193
   112  C    0.078682
   113  C   -0.162810
   114  C    0.002346
   115  C    0.096459
   116  C    0.131393
   117  C    0.042700
   118  O   -0.187585
   119  C    0.000783
   120  C    0.211242
   121  O   -0.250441
   122  O   -0.305791
   123  C    0.151978
   124  H   -0.019818
   125  H   -0.015800
   126  H   -0.040369
   127  H   -0.000711
   128  H   -0.004350
   129  H    0.022400
   130  H    0.014329
   131  H    0.016139
   132  H    0.014036
   133  H    0.037993
   134  H    0.020606
   135  H    0.019558
   136  H    0.008745
   137  H    0.025906
   138  H    0.039643
   139  H    0.038200
   140  H    0.036023
   141  H    0.033827
   142  H    0.014289
   143  H    0.012311
   144  H    0.024917
   145  H    0.011546
   146  H    0.005570
   147  H    0.006014
   148  H    0.003782
   149  H    0.010648
   150  H    0.018305
   151  H    0.030405
   152  H    0.046503
   153  H    0.008604
   154  H    0.046774
   155  H    0.034868
   156  H    0.043799
   157  H    0.049296
   158  H    0.053935
 Sum of Mulliken charges =  -0.00000

 Dipole moment (field-independent basis, Debye):
    X=              0.5088    Y=             -1.5319    Z=              7.1350  Tot=              7.3153
 Quadrupole moment (field-independent basis, Debye-Ang):
   XX=           -459.5879   YY=           -461.6727   ZZ=           -537.8960
   XY=             26.4666   XZ=             13.8276   YZ=             12.0045

 Normal termination of Gaussian 16 at Sat Sep 11 22:59:06 2021.
