 Gaussian 16, Revision A.03,
 Gaussian 16:  ES64L-G16RevA.03 25-Dec-2016

 -----------------------------------
 #p cam-b3lyp/Def2SVP td=(nstates=5)
 -----------------------------------

 --------------------------------
 TDDFT excited states in gaussian
 --------------------------------
 Symbolic Z-matrix:
 Charge =  0 Multiplicity = 1

                         Standard orientation:
 ---------------------------------------------------------------------
 Center     Atomic      Atomic             Coordinates (Angstroms)
 Number     Number       Type             X           Y           Z
 ---------------------------------------------------------------------
      1         12           0       -7.762721   -0.790731   -0.031010
      2          6           0       -8.038816    2.057972    2.118612
      3          6           0       -8.652224    1.256736   -2.611654
      4          6           0       -7.968593   -3.370560   -1.863692
      5          6           0       -8.013441   -2.780843    2.818947
      6          7           0       -8.255645    1.365964   -0.110607
      7          6           0       -8.266215    2.358425    0.773747
      8          6           0       -8.467144    3.761052    0.125951
      9          6           0       -9.199221    3.314950   -1.218316
     10          6           0       -8.643089    1.907362   -1.342153
     11          6           0      -10.716726    3.233779   -1.087577
     12          6           0       -7.107674    4.478168   -0.172906
     13          6           0       -7.214143    5.970635   -0.499342
     14          1           0       -6.159252    6.863895   -0.044765
     15          7           0       -7.760791   -0.968002   -1.998603
     16          6           0       -8.139400   -0.027218   -2.896860
     17          6           0       -7.955762   -0.639551   -4.230279
     18          6           0       -7.620229   -2.076531   -4.028788
     19          6           0       -7.797800   -2.203656   -2.604820
     20          6           0       -8.052696    0.132099   -5.510479
     21          6           0       -7.215560   -3.165311   -4.971622
     22          8           0       -7.196392   -4.395079   -4.622515
     23          6           0       -6.923519   -2.758750   -6.358150
     24          7           0       -8.182328   -2.794087    0.379028
     25          6           0       -8.150553   -3.717680   -0.587900
     26          6           0       -8.201461   -5.104963   -0.019751
     27          6           0       -8.029233   -4.942532    1.559396
     28          6           0       -7.988917   -3.396248    1.634572
     29          6           0       -9.479500   -5.902346   -0.314380
     30          6           0       -6.883901   -5.743592    2.227929
     31          6           0       -5.546528   -5.207557    1.768366
     32          7           0       -7.808971   -0.457443    2.113244
     33          6           0       -7.940811   -1.429939    3.115014
     34          6           0       -8.030497   -0.715367    4.401642
     35          6           0       -7.960810    0.632582    4.055200
     36          6           0       -7.861945    0.753278    2.639591
     37          6           0       -8.216573   -1.316683    5.677663
     38          6           0       -7.971666    1.999770    4.549706
     39          8           0       -7.942486    2.518105    5.666832
     40          6           0       -8.145304    2.980615    3.307281
     41          6           0       -7.119783    4.072863    3.443698
     42          8           0       -5.901418    3.822847    3.341496
     43          8           0       -7.735973    5.264825    3.434840
     44          6           0       -6.772460    6.393232    3.537278
     45          1           0       -9.148366    1.746170   -3.452035
     46          1           0       -7.933765   -4.291506   -2.449425
     47          1           0       -8.008083   -3.338238    3.757422
     48          1           0       -9.108695    4.435853    0.692943
     49          1           0       -8.890516    3.920658   -2.070103
     50          1           0      -11.035509    3.371198   -0.054419
     51          1           0      -10.986368    2.237973   -1.439933
     52          1           0      -11.202135    3.933983   -1.767922
     53          1           0       -6.707010    4.109821   -1.117285
     54          1           0       -6.408310    4.338576    0.652157
     55          1           0       -8.193348    6.368395   -0.231286
     56          1           0       -7.161072    6.088141   -1.581736
     57          1           0       -8.473676    1.123763   -5.349471
     58          1           0       -8.787313   -0.376861   -6.134182
     59          1           0       -7.097440    0.181241   -6.033357
     60          1           0       -7.805049   -2.281208   -6.786413
     61          1           0       -6.565051   -3.654062   -6.864871
     62          1           0       -6.139639   -2.000898   -6.346218
     63          1           0       -7.387246   -5.716205   -0.406873
     64          1           0       -8.922510   -5.252390    2.102275
     65          1           0       -9.296691   -6.852703   -0.816484
     66          1           0      -10.142934   -5.269981   -0.903670
     67          1           0      -10.098362   -6.112486    0.557554
     68          1           0       -6.929347   -6.790550    1.930004
     69          1           0       -6.911961   -5.707173    3.317029
     70          1           0       -5.391146   -5.721246    0.820309
     71          1           0       -4.766394   -5.466315    2.485057
     72          1           0       -5.597502   -4.139529    1.555752
     73          1           0       -7.533871   -0.807059    6.357495
     74          1           0       -8.016130   -2.387330    5.643886
     75          1           0       -9.268808   -1.094224    5.854213
     76          1           0       -9.163135    3.366737    3.352587
     77          1           0       -7.072028    6.994142    4.395999
     78          1           0       -6.757924    6.877892    2.560909
     79          1           0       -5.751107    6.131211    3.815706
     80         12           0        8.105895   -0.485856    0.124713
     81          6           0        6.586732    1.826666   -2.160761
     82          6           0       10.247579    2.019574    1.002558
     83          6           0        9.747444   -2.614433    1.810530
     84          6           0        6.639570   -3.055184   -1.717609
     85          7           0        8.292760    1.608877   -0.560430
     86          6           0        7.620768    2.394980   -1.387964
     87          6           0        8.029995    3.891157   -1.328460
     88          6           0        9.520280    3.710339   -0.758149
     89          6           0        9.342695    2.381045   -0.027315
     90          6           0       10.562700    3.520910   -1.847562
     91          6           0        7.133306    4.717273   -0.340794
     92          6           0        7.273056    6.236263   -0.462788
     93          1           0        6.087644    7.063255   -0.254553
     94          7           0        9.422175   -0.226827    1.587217
     95          6           0       10.189015    0.861410    1.808500
     96          6           0       11.001671    0.546676    2.993701
     97          6           0       10.771035   -0.878283    3.355674
     98          6           0        9.969713   -1.310304    2.228141
     99          6           0       11.827025    1.575190    3.710908
    100          6           0       11.210969   -1.717096    4.517160
    101          8           0       11.094015   -2.993441    4.508544
    102          6           0       11.867993   -1.009080    5.625550
    103          7           0        8.359610   -2.540772   -0.063197
    104          6           0        9.082149   -3.233120    0.834867
    105          6           0        8.896994   -4.720826    0.653596
    106          6           0        7.706368   -4.880103   -0.402152
    107          6           0        7.458236   -3.391416   -0.730238
    108          6           0       10.122473   -5.488188    0.157861
    109          6           0        6.496356   -5.753795    0.028185
    110          6           0        5.746920   -5.078773    1.154276
    111          7           0        6.695397   -0.621085   -1.506315
    112          6           0        6.237738   -1.795464   -2.143078
    113          6           0        5.379005   -1.373917   -3.268821
    114          6           0        5.415452    0.027876   -3.222570
    115          6           0        6.254959    0.450202   -2.156568
    116          6           0        4.733376   -2.242620   -4.193295
    117          6           0        4.943131    1.246374   -3.839710
    118          8           0        4.135992    1.513401   -4.729078
    119          6           0        5.781330    2.465217   -3.258122
    120          6           0        4.815268    3.553001   -2.876068
    121          8           0        3.999784    3.378707   -1.953448
    122          8           0        5.156486    4.688649   -3.511858
    123          6           0        4.234017    5.799757   -3.156474
    124          1           0       11.109629    2.661864    1.184793
    125          1           0       10.203344   -3.391549    2.428356
    126          1           0        6.067125   -3.796430   -2.279337
    127          1           0        8.057507    4.393089   -2.288184
    128          1           0        9.773127    4.500630   -0.056109
    129          1           0       10.111732    3.420698   -2.823641
    130          1           0       11.101686    2.619873   -1.585492
    131          1           0       11.296022    4.331677   -1.812679
    132          1           0        7.503944    4.576092    0.682647
    133          1           0        6.101821    4.440156   -0.440181
    134          1           0        7.789405    6.529963   -1.384781
    135          1           0        7.929396    6.589636    0.336187
    136          1           0       11.930934    2.492317    3.118041
    137          1           0       12.845673    1.177967    3.777555
    138          1           0       11.461091    1.780522    4.719167
    139          1           0       12.749195   -0.492681    5.252352
    140          1           0       12.028655   -1.762464    6.399174
    141          1           0       11.186414   -0.237550    6.000795
    142          1           0        8.605907   -5.190628    1.585076
    143          1           0        8.048564   -5.354393   -1.333707
    144          1           0       10.426052   -6.309598    0.834024
    145          1           0       10.934326   -4.785544    0.024724
    146          1           0       10.025556   -5.920374   -0.836635
    147          1           0        6.842328   -6.714426    0.417609
    148          1           0        5.805944   -5.964446   -0.781727
    149          1           0        6.318944   -5.369457    2.040495
    150          1           0        4.723715   -5.445207    1.207234
    151          1           0        5.805437   -3.987585    1.067462
    152          1           0        3.729521   -1.862576   -4.328722
    153          1           0        4.725416   -3.269801   -3.834673
    154          1           0        5.381840   -2.117018   -5.064489
    155          1           0        6.473891    2.787606   -4.036582
    156          1           0        3.827562    6.190025   -4.094644
    157          1           0        4.829951    6.496347   -2.537301
    158          1           0        3.326073    5.545872   -2.622023
 ---------------------------------------------------------------------

 SCF Done:  E(RCAM-B3LYP) =  -4069.81172861     A.U. after   19 cycles

 Excitation energies and oscillator strengths:

 Excited State   1:      Singlet-A      1.6711 eV  741.93 nm  f=0.1258  <S**2>=0.000
     309 -> 315        0.14224
     311 -> 313        0.56591
     312 -> 314        0.38828
 This state for optimization and/or second-order correction.
 Total Energy, E(TD-HF/TD-DFT) =  -4069.75031660
 Copying the excited state density for this state as the 1-particle RhoCI density.

 Excited State   2:      Singlet-A      1.6844 eV  736.09 nm  f=0.6421  <S**2>=0.000
     310 -> 316        0.14567
     311 -> 313       -0.38784
     312 -> 314        0.56517

 Excited State   3:      Singlet-A      2.1855 eV  567.32 nm  f=0.0553  <S**2>=0.000
     309 -> 313        0.62513
     310 -> 314       -0.14968
     311 -> 315       -0.26517

 Excited State   4:      Singlet-A      2.1929 eV  565.39 nm  f=0.1373  <S**2>=0.000
     309 -> 313        0.14864
     310 -> 314        0.62312
     312 -> 316       -0.27082

 Excited State   5:      Singlet-A      2.7547 eV  450.08 nm  f=0.0000  <S**2>=0.000
     312 -> 313        0.70699

 The electronic state is 1-A.
 Alpha  occ. eigenvalues --  -46.87605 -46.87577 -19.26316 -19.26085 -19.19112
 Alpha  occ. eigenvalues --  -19.18806 -19.18659 -19.18595 -19.18015 -19.17969
 Alpha  occ. eigenvalues --  -14.42444 -14.42234 -14.41306 -14.41240 -14.39297
 Alpha  occ. eigenvalues --  -14.39183 -14.38545 -14.38371 -10.39044 -10.38868
 Alpha  occ. eigenvalues --  -10.35336 -10.35228 -10.34192 -10.34188 -10.31735
 Alpha  occ. eigenvalues --  -10.31493 -10.31259 -10.31195 -10.30971 -10.30690
 Alpha  occ. eigenvalues --  -10.30357 -10.30345 -10.30309 -10.30296 -10.30086
 Alpha  occ. eigenvalues --  -10.29999 -10.29843 -10.29719 -10.29418 -10.29383
 Alpha  occ. eigenvalues --  -10.29349 -10.29039 -10.28670 -10.28603 -10.28533
 Alpha  occ. eigenvalues --  -10.28353 -10.28318 -10.28148 -10.28095 -10.27951
 Alpha  occ. eigenvalues --  -10.27909 -10.27618 -10.27582 -10.27514 -10.27464
 Alpha  occ. eigenvalues --  -10.27432 -10.27414 -10.27411 -10.27367 -10.27325
 Alpha  occ. eigenvalues --  -10.27317 -10.27268 -10.27248 -10.27191 -10.27010
 Alpha  occ. eigenvalues --  -10.26955 -10.26633 -10.26465 -10.26356 -10.26171
 Alpha  occ. eigenvalues --  -10.26076 -10.26047 -10.26008 -10.25990 -10.25880
 Alpha  occ. eigenvalues --  -10.25813 -10.25809 -10.25660 -10.25355 -10.25271
 Alpha  occ. eigenvalues --  -10.24823 -10.24657 -10.24638 -10.24623 -10.24580
 Alpha  occ. eigenvalues --  -10.24499  -3.16354  -3.16319  -1.91236  -1.91201
 Alpha  occ. eigenvalues --   -1.90825  -1.90788  -1.90662  -1.90630  -1.16607
 Alpha  occ. eigenvalues --   -1.16431  -1.08622  -1.08428  -1.06997  -1.06911
 Alpha  occ. eigenvalues --   -1.06900  -1.06431  -1.04443  -1.04366  -1.03610
 Alpha  occ. eigenvalues --   -1.03550  -1.03020  -1.02985  -1.02199  -1.02058
 Alpha  occ. eigenvalues --   -0.91938  -0.91762  -0.89440  -0.89322  -0.89102
 Alpha  occ. eigenvalues --   -0.88975  -0.88167  -0.88093  -0.87746  -0.87667
 Alpha  occ. eigenvalues --   -0.87632  -0.87460  -0.87066  -0.87051  -0.84949
 Alpha  occ. eigenvalues --   -0.84769  -0.83822  -0.83746  -0.82876  -0.82749
 Alpha  occ. eigenvalues --   -0.82603  -0.82437  -0.81554  -0.81383  -0.80395
 Alpha  occ. eigenvalues --   -0.80387  -0.78584  -0.78581  -0.77094  -0.77013
 Alpha  occ. eigenvalues --   -0.76852  -0.76731  -0.75795  -0.75720  -0.74755
 Alpha  occ. eigenvalues --   -0.74707  -0.72648  -0.72568  -0.71533  -0.71470
 Alpha  occ. eigenvalues --   -0.69718  -0.69700  -0.68777  -0.68661  -0.67552
 Alpha  occ. eigenvalues --   -0.67431  -0.67146  -0.66997  -0.65223  -0.65074
 Alpha  occ. eigenvalues --   -0.64720  -0.64647  -0.64606  -0.64416  -0.64151
 Alpha  occ. eigenvalues --   -0.64071  -0.62236  -0.62097  -0.60286  -0.60227
 Alpha  occ. eigenvalues --   -0.59747  -0.59592  -0.58943  -0.58781  -0.58377
 Alpha  occ. eigenvalues --   -0.58297  -0.57511  -0.57379  -0.57186  -0.57105
 Alpha  occ. eigenvalues --   -0.56155  -0.56101  -0.55844  -0.55775  -0.55404
 Alpha  occ. eigenvalues --   -0.55308  -0.55199  -0.55146  -0.54440  -0.54328
 Alpha  occ. eigenvalues --   -0.53863  -0.53681  -0.53177  -0.53093  -0.53090
 Alpha  occ. eigenvalues --   -0.53006  -0.52852  -0.52706  -0.52615  -0.52535
 Alpha  occ. eigenvalues --   -0.52341  -0.52249  -0.51840  -0.51719  -0.51608
 Alpha  occ. eigenvalues --   -0.51398  -0.51155  -0.50994  -0.50420  -0.50344
 Alpha  occ. eigenvalues --   -0.49929  -0.49836  -0.49815  -0.49702  -0.49436
 Alpha  occ. eigenvalues --   -0.49301  -0.49155  -0.49061  -0.49005  -0.48892
 Alpha  occ. eigenvalues --   -0.48514  -0.48392  -0.48329  -0.48288  -0.48266
 Alpha  occ. eigenvalues --   -0.48232  -0.47545  -0.47486  -0.47090  -0.47069
 Alpha  occ. eigenvalues --   -0.46658  -0.46593  -0.46504  -0.46342  -0.46219
 Alpha  occ. eigenvalues --   -0.46152  -0.46038  -0.45964  -0.45780  -0.45625
 Alpha  occ. eigenvalues --   -0.45159  -0.45010  -0.44469  -0.44426  -0.44376
 Alpha  occ. eigenvalues --   -0.44294  -0.44082  -0.44025  -0.43940  -0.43890
 Alpha  occ. eigenvalues --   -0.43883  -0.43809  -0.43511  -0.43338  -0.43294
 Alpha  occ. eigenvalues --   -0.43179  -0.42888  -0.42856  -0.42824  -0.42499
 Alpha  occ. eigenvalues --   -0.42498  -0.42460  -0.41909  -0.41810  -0.41623
 Alpha  occ. eigenvalues --   -0.41499  -0.41407  -0.41323  -0.40942  -0.40938
 Alpha  occ. eigenvalues --   -0.40669  -0.40662  -0.40645  -0.40602  -0.40441
 Alpha  occ. eigenvalues --   -0.40377  -0.40173  -0.40008  -0.39365  -0.39251
 Alpha  occ. eigenvalues --   -0.38298  -0.38274  -0.37601  -0.37529  -0.37213
 Alpha  occ. eigenvalues --   -0.37147  -0.37120  -0.37046  -0.36727  -0.36511
 Alpha  occ. eigenvalues --   -0.36167  -0.35989  -0.34201  -0.34074  -0.33812
 Alpha  occ. eigenvalues --   -0.33555  -0.33123  -0.32974  -0.31218  -0.31127
 Alpha  occ. eigenvalues --   -0.30921  -0.30825  -0.29920  -0.29829  -0.29274
 Alpha  occ. eigenvalues --   -0.29231  -0.29161  -0.29110  -0.23983  -0.23867
 Alpha  occ. eigenvalues --   -0.21064  -0.20915
 Alpha virt. eigenvalues --   -0.08740  -0.08560  -0.01630  -0.01537   0.00023
 Alpha virt. eigenvalues --    0.00160   0.02253   0.02406   0.03310   0.03392
 Alpha virt. eigenvalues --    0.04781   0.04930   0.05209   0.05308   0.06232

 Mulliken charges:
               1
     1  Mg   0.839727
     2  C   -0.002644
     3  C   -0.093739
     4  C   -0.045902
     5  C   -0.064107
     6  N   -0.256757
     7  C   -0.052327
     8  C   -0.014180
     9  C   -0.087069
    10  C    0.046599
    11  C    0.104895
    12  C    0.053342
    13  C   -0.071685
    14  H    0.036076
    15  N   -0.433105
    16  C    0.168829
    17  C   -0.176801
    18  C   -0.003796
    19  C    0.148951
    20  C    0.110175
    21  C    0.012607
    22  O   -0.250011
    23  C    0.062210
    24  N   -0.341166
    25  C    0.041293
    26  C   -0.028112
    27  C   -0.023886
    28  C    0.074853
    29  C    0.076324
    30  C    0.035208
    31  C   -0.004462
    32  N   -0.310412
    33  C    0.080444
    34  C   -0.169858
    35  C    0.008202
    36  C    0.083180
    37  C    0.127330
    38  C    0.046113
    39  O   -0.188958
    40  C   -0.005384
    41  C    0.212664
    42  O   -0.256367
    43  O   -0.305015
    44  C    0.157794
    45  H   -0.017785
    46  H   -0.017114
    47  H   -0.041895
    48  H    0.000532
    49  H   -0.003892
    50  H    0.025227
    51  H    0.016286
    52  H    0.016361
    53  H    0.012131
    54  H    0.044663
    55  H    0.017265
    56  H    0.018040
    57  H    0.005796
    58  H    0.026402
    59  H    0.040631
    60  H    0.036994
    61  H    0.035442
    62  H    0.032744
    63  H    0.016443
    64  H    0.009078
    65  H    0.022882
    66  H    0.012462
    67  H    0.004426
    68  H    0.005860
    69  H    0.004472
    70  H    0.008622
    71  H    0.017899
    72  H    0.029708
    73  H    0.047411
    74  H    0.008877
    75  H    0.045592
    76  H    0.034746
    77  H    0.042364
    78  H    0.046354
    79  H    0.053907
    80  Mg   0.838338
    81  C   -0.016639
    82  C   -0.087767
    83  C   -0.045474
    84  C   -0.064872
    85  N   -0.254559
    86  C   -0.049806
    87  C   -0.015165
    88  C   -0.090508
    89  C    0.045848
    90  C    0.114423
    91  C    0.062491
    92  C   -0.077914
    93  H    0.035035
    94  N   -0.423463
    95  C    0.163080
    96  C   -0.174602
    97  C   -0.007738
    98  C    0.152205
    99  C    0.099393
   100  C    0.015687
   101  O   -0.253179
   102  C    0.061120
   103  N   -0.350094
   104  C    0.037568
   105  C   -0.019822
   106  C   -0.034794
   107  C    0.088961
   108  C    0.073702
   109  C    0.034706
   110  C   -0.007704
   111  N   -0.324120
   112  C    0.078566
   113  C   -0.162993
   114  C    0.002075
   115  C    0.096455
   116  C    0.131447
   117  C    0.042533
   118  O   -0.188534
   119  C    0.000851
   120  C    0.210972
   121  O   -0.250311
   122  O   -0.305819
   123  C    0.152110
   124  H   -0.019763
   125  H   -0.015594
   126  H   -0.040452
   127  H   -0.000913
   128  H   -0.004293
   129  H    0.022288
   130  H    0.014379
   131  H    0.016145
   132  H    0.014215
   133  H    0.038032
   134  H    0.020447
   135  H    0.019633
   136  H    0.008716
   137  H    0.026028
   138  H    0.040006
   139  H    0.038133
   140  H    0.036418
   141  H    0.034145
   142  H    0.014491
   143  H    0.012258
   144  H    0.025093
   145  H    0.011533
   146  H    0.005548
   147  H    0.006127
   148  H    0.003680
   149  H    0.010913
   150  H    0.018156
   151  H    0.030365
   152  H    0.045942
   153  H    0.008706
   154  H    0.046601
   155  H    0.034699
   156  H    0.043198
   157  H    0.049557
   158  H    0.053872
 Sum of Mulliken charges =  -0.00000

 Dipole moment (field-independent basis, Debye):
    X=              1.9225    Y=              2.9060    Z=             -2.8030  Tot=              4.4718
 Quadrupole moment (field-independent basis, Debye-Ang):
   XX=           -434.1058   YY=           -462.8605   ZZ=           -533.1577
   XY=             23.6147   XZ=             31.4066   YZ=            -16.5961

 Normal termination of Gaussian 16 at Sun Sep 12 00:13:45 2021.
