 Gaussian 16, Revision A.03,
 Gaussian 16:  ES64L-G16RevA.03 25-Dec-2016

 -----------------------------------
 #p cam-b3lyp/Def2SVP td=(nstates=5)
 -----------------------------------

 --------------------------------
 TDDFT excited states in gaussian
 --------------------------------
 Symbolic Z-matrix:
 Charge =  0 Multiplicity = 1

                         Standard orientation:
 ---------------------------------------------------------------------
 Center     Atomic      Atomic             Coordinates (Angstroms)
 Number     Number       Type             X           Y           Z
 ---------------------------------------------------------------------
      1         12           0       -4.437246   -0.567425    0.312615
      2          6           0       -4.484323    3.005129    0.096152
      3          6           0       -5.492595   -0.629327   -2.931683
      4          6           0       -4.839749   -3.698217    0.617172
      5          6           0       -4.495365   -0.210846    3.778901
      6          7           0       -4.893519    1.049112   -1.129352
      7          6           0       -4.813669    2.375863   -1.106428
      8          6           0       -5.039258    3.032566   -2.501142
      9          6           0       -5.885819    1.871556   -3.192075
     10          6           0       -5.368596    0.686758   -2.395421
     11          6           0       -7.389107    1.996645   -2.966290
     12          6           0       -3.694823    3.291175   -3.260974
     13          6           0       -3.798628    4.218092   -4.475636
     14          1           0       -2.693562    5.119377   -4.765224
     15          7           0       -4.597455   -1.978179   -1.061050
     16          6           0       -5.029177   -1.822154   -2.335631
     17          6           0       -4.965490   -3.163601   -2.954618
     18          6           0       -4.642425   -4.144864   -1.881843
     19          6           0       -4.706947   -3.305708   -0.712642
     20          6           0       -5.150566   -3.402442   -4.421742
     21          6           0       -4.336099   -5.609016   -1.905445
     22          8           0       -4.312425   -6.316206   -0.840600
     23          6           0       -4.149120   -6.219715   -3.234026
     24          7           0       -4.860761   -1.792144    1.949177
     25          6           0       -4.924818   -3.121666    1.817838
     26          6           0       -4.956330   -3.801497    3.154542
     27          6           0       -4.654184   -2.665635    4.235410
     28          6           0       -4.578279   -1.447271    3.282468
     29          6           0       -6.269034   -4.511374    3.513561
     30          6           0       -3.474232   -2.916183    5.207705
     31          6           0       -2.168256   -2.897614    4.445353
     32          7           0       -4.303958    1.079174    1.720448
     33          6           0       -4.373184    1.000499    3.118908
     34          6           0       -4.345057    2.382804    3.631266
     35          6           0       -4.277699    3.175359    2.487078
     36          6           0       -4.291062    2.342032    1.332228
     37          6           0       -4.439086    2.767063    4.997991
     38          6           0       -4.222396    4.533363    1.970722
     39          8           0       -4.093250    5.648972    2.476913
     40          6           0       -4.476850    4.482771    0.399569
     41          6           0       -3.422902    5.330523   -0.259080
     42          8           0       -2.221775    4.992928   -0.232825
     43          8           0       -4.014818    6.269805   -1.012689
     44          6           0       -3.024712    7.127092   -1.717602
     45          1           0       -6.045435   -0.770063   -3.862544
     46          1           0       -4.869961   -4.778685    0.772456
     47          1           0       -4.425008   -0.025074    4.852210
     48          1           0       -5.619913    3.954977   -2.480612
     49          1           0       -5.635273    1.757566   -4.246568
     50          1           0       -7.620807    2.792350   -2.258414
     51          1           0       -7.705350    1.031225   -2.570755
     52          1           0       -7.914297    2.118784   -3.913937
     53          1           0       -3.378791    2.372482   -3.755130
     54          1           0       -2.933985    3.673570   -2.579634
     55          1           0       -4.745205    4.759226   -4.484320
     56          1           0       -3.830806    3.601551   -5.373990
     57          1           0       -5.538082   -2.517934   -4.925748
     58          1           0       -5.942733   -4.143562   -4.526243
     59          1           0       -4.239839   -3.768436   -4.896038
     60          1           0       -5.053001   -6.076298   -3.826460
     61          1           0       -3.849941   -7.251218   -3.051420
     62          1           0       -3.352438   -5.690014   -3.757155
     63          1           0       -4.187876   -4.570639    3.220301
     64          1           0       -5.506534   -2.488488    4.891758
     65          1           0       -6.145593   -5.569826    3.744098
     66          1           0       -6.965591   -4.369659    2.687719
     67          1           0       -6.819454   -4.063606    4.340580
     68          1           0       -3.563641   -3.900121    5.666853
     69          1           0       -3.413636   -2.180273    6.009588
     70          1           0       -2.099747   -3.912424    4.055097
     71          1           0       -1.337955   -2.681276    5.118412
     72          1           0       -2.215718   -2.222380    3.590781
     73          1           0       -3.694115    3.548576    5.147067
     74          1           0       -4.262598    1.919998    5.660513
     75          1           0       -5.469187    3.120841    5.037871
     76          1           0       -5.480113    4.873193    0.231770
     77          1           0       -3.242444    8.159757   -1.444784
     78          1           0       -3.079695    6.860263   -2.773151
     79          1           0       -1.989441    7.040501   -1.385855
     80         12           0        4.542893   -0.985009   -0.178567
     81          6           0        4.538482    2.537639    0.507041
     82          6           0        3.528748   -0.218628   -3.343810
     83          6           0        4.102409   -4.086642   -0.681807
     84          6           0        4.435836   -1.514276    3.264416
     85          7           0        4.123016    0.946665   -1.170838
     86          6           0        4.215234    2.223092   -0.829375
     87          6           0        4.024550    3.218749   -2.004897
     88          6           0        3.165967    2.276326   -2.981392
     89          6           0        3.656990    0.912855   -2.499180
     90          6           0        1.668751    2.359367   -2.734832
     91          6           0        5.387089    3.636471   -2.661417
     92          6           0        5.303994    4.836527   -3.607304
     93          1           0        6.429472    5.765864   -3.653160
     94          7           0        4.387455   -2.001283   -1.876089
     95          6           0        3.981325   -1.528681   -3.073170
     96          6           0        4.022896   -2.675525   -3.993599
     97          6           0        4.328653   -3.899585   -3.204358
     98          6           0        4.262706   -3.368249   -1.857721
     99          6           0        3.863487   -2.532609   -5.479395
    100          6           0        4.618219   -5.316925   -3.596144
    101          8           0        4.621027   -6.266371   -2.735111
    102          6           0        4.806198   -5.575054   -5.031243
    103          7           0        4.090560   -2.568935    1.089850
    104          6           0        4.006576   -3.826813    0.622273
    105          6           0        3.946125   -4.826110    1.752819
    106          6           0        4.251916   -3.990477    3.081652
    107          6           0        4.352555   -2.574689    2.472725
    108          6           0        2.620296   -5.569617    1.913293
    109          6           0        5.416542   -4.494315    3.977466
    110          6           0        6.734548   -4.317013    3.258569
    111          7           0        4.680682    0.248728    1.589759
    112          6           0        4.585344   -0.173456    2.933916
    113          6           0        4.623310    1.040302    3.775210
    114          6           0        4.715656    2.094280    2.853742
    115          6           0        4.713593    1.575342    1.530795
    116          6           0        4.525795    1.071804    5.194934
    117          6           0        4.803695    3.528506    2.699033
    118          8           0        4.931925    4.479096    3.469537
    119          6           0        4.565440    3.887316    1.169044
    120          6           0        5.637643    4.853802    0.746198
    121          8           0        6.829554    4.500491    0.712629
    122          8           0        5.060168    5.961324    0.245902
    123          6           0        6.083180    6.945551   -0.197450
    124          1           0        2.993481   -0.104118   -4.286823
    125          1           0        4.057368   -5.172295   -0.794945
    126          1           0        4.505981   -1.600927    4.350803
    127          1           0        3.460665    4.110336   -1.758110
    128          1           0        3.438106    2.433451   -4.021883
    129          1           0        1.436403    2.951159   -1.861944
    130          1           0        1.335857    1.338630   -2.599479
    131          1           0        1.159037    2.726371   -3.630288
    132          1           0        5.695757    2.858535   -3.371536
    133          1           0        6.131553    3.818739   -1.910969
    134          1           0        4.358981    5.382476   -3.498491
    135          1           0        5.283283    4.467178   -4.635491
    136          1           0        3.486405   -1.538561   -5.749730
    137          1           0        3.064563   -3.217893   -5.782659
    138          1           0        4.773626   -2.786441   -6.027022
    139          1           0        3.914191   -5.269615   -5.572986
    140          1           0        5.091615   -6.626295   -5.104148
    141          1           0        5.626306   -4.946191   -5.395340
    142          1           0        4.705418   -5.589492    1.635216
    143          1           0        3.388742   -3.978767    3.763286
    144          1           0        2.728747   -6.669793    1.869422
    145          1           0        1.939976   -5.223698    1.146460
    146          1           0        2.072370   -5.344788    2.826766
    147          1           0        5.309954   -5.564557    4.170762
    148          1           0        5.467405   -3.996685    4.940159
    149          1           0        6.790351   -5.205697    2.622780
    150          1           0        7.557810   -4.288009    3.969514
    151          1           0        6.708752   -3.441368    2.599610
    152          1           0        5.270532    1.775339    5.542632
    153          1           0        4.678541    0.084549    5.625950
    154          1           0        3.494651    1.415756    5.312027
    155          1           0        3.567885    4.320339    1.085598
    156          1           0        5.870845    7.883962    0.324088
    157          1           0        6.025760    6.959061   -1.302112
    158          1           0        7.110752    6.767606    0.097314
 ---------------------------------------------------------------------

 SCF Done:  E(RCAM-B3LYP) =  -4069.81159430     A.U. after   19 cycles

 Excitation energies and oscillator strengths:

 Excited State   1:      Singlet-A      1.6482 eV  752.24 nm  f=0.0097  <S**2>=0.000
     309 -> 315       -0.11312
     310 -> 316        0.12256
     311 -> 313       -0.46374
     312 -> 314        0.50781
 This state for optimization and/or second-order correction.
 Total Energy, E(TD-HF/TD-DFT) =  -4069.75102375
 Copying the excited state density for this state as the 1-particle RhoCI density.

 Excited State   2:      Singlet-A      1.7031 eV  728.00 nm  f=0.6894  <S**2>=0.000
     309 -> 315        0.13453
     310 -> 316        0.12121
     311 -> 313        0.50517
     312 -> 314        0.46135

 Excited State   3:      Singlet-A      2.1796 eV  568.83 nm  f=0.0207  <S**2>=0.000
     309 -> 313       -0.29209
     310 -> 314        0.57546
     311 -> 315        0.12021
     312 -> 316       -0.23832

 Excited State   4:      Singlet-A      2.1968 eV  564.39 nm  f=0.1540  <S**2>=0.000
     309 -> 313        0.57010
     310 -> 314        0.28736
     311 -> 315       -0.25206
     312 -> 316       -0.12828

 Excited State   5:      Singlet-A      2.3442 eV  528.89 nm  f=0.0000  <S**2>=0.000
     312 -> 313        0.70709

 The electronic state is 1-A.
 Alpha  occ. eigenvalues --  -46.87906 -46.87421 -19.26464 -19.26034 -19.19209
 Alpha  occ. eigenvalues --  -19.18876 -19.18863 -19.18545 -19.18253 -19.17750
 Alpha  occ. eigenvalues --  -14.42573 -14.42245 -14.41558 -14.41122 -14.39508
 Alpha  occ. eigenvalues --  -14.39121 -14.38690 -14.38352 -10.39261 -10.38783
 Alpha  occ. eigenvalues --  -10.35509 -10.35229 -10.34479 -10.33918 -10.31874
 Alpha  occ. eigenvalues --  -10.31531 -10.31481 -10.31044 -10.31035 -10.30766
 Alpha  occ. eigenvalues --  -10.30679 -10.30602 -10.30311 -10.30160 -10.30113
 Alpha  occ. eigenvalues --  -10.30019 -10.29939 -10.29725 -10.29652 -10.29354
 Alpha  occ. eigenvalues --  -10.29224 -10.29175 -10.28941 -10.28850 -10.28474
 Alpha  occ. eigenvalues --  -10.28449 -10.28396 -10.28283 -10.28152 -10.27885
 Alpha  occ. eigenvalues --  -10.27847 -10.27809 -10.27764 -10.27679 -10.27603
 Alpha  occ. eigenvalues --  -10.27602 -10.27544 -10.27523 -10.27434 -10.27356
 Alpha  occ. eigenvalues --  -10.27334 -10.27283 -10.27251 -10.27221 -10.27166
 Alpha  occ. eigenvalues --  -10.26984 -10.26686 -10.26453 -10.26446 -10.26375
 Alpha  occ. eigenvalues --  -10.26316 -10.26300 -10.26123 -10.25987 -10.25885
 Alpha  occ. eigenvalues --  -10.25715 -10.25628 -10.25541 -10.25516 -10.25166
 Alpha  occ. eigenvalues --  -10.24925 -10.24890 -10.24828 -10.24623 -10.24583
 Alpha  occ. eigenvalues --  -10.24450  -3.16649  -3.16171  -1.91531  -1.91117
 Alpha  occ. eigenvalues --   -1.91053  -1.90959  -1.90641  -1.90478  -1.16813
 Alpha  occ. eigenvalues --   -1.16332  -1.08713  -1.08346  -1.07274  -1.06823
 Alpha  occ. eigenvalues --   -1.06801  -1.06646  -1.04704  -1.04237  -1.03870
 Alpha  occ. eigenvalues --   -1.03421  -1.03336  -1.02805  -1.02517  -1.01870
 Alpha  occ. eigenvalues --   -0.92088  -0.91708  -0.89628  -0.89364  -0.89278
 Alpha  occ. eigenvalues --   -0.88844  -0.88394  -0.88007  -0.87954  -0.87805
 Alpha  occ. eigenvalues --   -0.87556  -0.87443  -0.87367  -0.86944  -0.85147
 Alpha  occ. eigenvalues --   -0.84732  -0.84047  -0.83665  -0.83052  -0.82790
 Alpha  occ. eigenvalues --   -0.82773  -0.82398  -0.81727  -0.81330  -0.80720
 Alpha  occ. eigenvalues --   -0.80195  -0.78894  -0.78432  -0.77350  -0.77091
 Alpha  occ. eigenvalues --   -0.76909  -0.76632  -0.76064  -0.75547  -0.75008
 Alpha  occ. eigenvalues --   -0.74566  -0.72878  -0.72462  -0.71791  -0.71310
 Alpha  occ. eigenvalues --   -0.70022  -0.69564  -0.69022  -0.68570  -0.67753
 Alpha  occ. eigenvalues --   -0.67391  -0.67368  -0.66980  -0.65448  -0.64993
 Alpha  occ. eigenvalues --   -0.64977  -0.64757  -0.64525  -0.64396  -0.64380
 Alpha  occ. eigenvalues --   -0.63984  -0.62442  -0.62008  -0.60537  -0.60143
 Alpha  occ. eigenvalues --   -0.59952  -0.59513  -0.59102  -0.58746  -0.58618
 Alpha  occ. eigenvalues --   -0.58175  -0.57713  -0.57417  -0.57254  -0.57003
 Alpha  occ. eigenvalues --   -0.56416  -0.56142  -0.55977  -0.55622  -0.55618
 Alpha  occ. eigenvalues --   -0.55459  -0.55228  -0.55010  -0.54659  -0.54243
 Alpha  occ. eigenvalues --   -0.54071  -0.53623  -0.53403  -0.53356  -0.53058
 Alpha  occ. eigenvalues --   -0.53013  -0.52899  -0.52870  -0.52657  -0.52556
 Alpha  occ. eigenvalues --   -0.52467  -0.52217  -0.51987  -0.51772  -0.51647
 Alpha  occ. eigenvalues --   -0.51411  -0.51314  -0.50949  -0.50663  -0.50326
 Alpha  occ. eigenvalues --   -0.50147  -0.50027  -0.49746  -0.49656  -0.49642
 Alpha  occ. eigenvalues --   -0.49330  -0.49252  -0.49237  -0.48945  -0.48790
 Alpha  occ. eigenvalues --   -0.48721  -0.48562  -0.48535  -0.48288  -0.48166
 Alpha  occ. eigenvalues --   -0.48118  -0.47821  -0.47408  -0.47358  -0.46921
 Alpha  occ. eigenvalues --   -0.46911  -0.46723  -0.46474  -0.46469  -0.46291
 Alpha  occ. eigenvalues --   -0.46272  -0.46053  -0.45940  -0.45842  -0.45552
 Alpha  occ. eigenvalues --   -0.45307  -0.44974  -0.44691  -0.44635  -0.44260
 Alpha  occ. eigenvalues --   -0.44258  -0.44233  -0.44232  -0.44127  -0.43874
 Alpha  occ. eigenvalues --   -0.43845  -0.43705  -0.43626  -0.43523  -0.43289
 Alpha  occ. eigenvalues --   -0.43142  -0.43125  -0.42850  -0.42779  -0.42669
 Alpha  occ. eigenvalues --   -0.42622  -0.42352  -0.42145  -0.41821  -0.41740
 Alpha  occ. eigenvalues --   -0.41698  -0.41394  -0.41263  -0.41208  -0.41028
 Alpha  occ. eigenvalues --   -0.40929  -0.40718  -0.40688  -0.40533  -0.40457
 Alpha  occ. eigenvalues --   -0.40447  -0.40256  -0.39983  -0.39563  -0.39242
 Alpha  occ. eigenvalues --   -0.38594  -0.38128  -0.37959  -0.37436  -0.37416
 Alpha  occ. eigenvalues --   -0.37414  -0.37040  -0.36943  -0.36871  -0.36494
 Alpha  occ. eigenvalues --   -0.36332  -0.35970  -0.34397  -0.34007  -0.33944
 Alpha  occ. eigenvalues --   -0.33573  -0.33299  -0.32935  -0.31409  -0.31148
 Alpha  occ. eigenvalues --   -0.31101  -0.30722  -0.30115  -0.29647  -0.29541
 Alpha  occ. eigenvalues --   -0.29412  -0.29115  -0.28961  -0.24193  -0.23786
 Alpha  occ. eigenvalues --   -0.21235  -0.20878
 Alpha virt. eigenvalues --   -0.08876  -0.08557  -0.01856  -0.01452  -0.00153
 Alpha virt. eigenvalues --    0.00189   0.02109   0.02462   0.02841   0.03506
 Alpha virt. eigenvalues --    0.04553   0.04900   0.05001   0.05470   0.05901

 Mulliken charges:
               1
     1  Mg   0.838627
     2  C   -0.003630
     3  C   -0.095062
     4  C   -0.045455
     5  C   -0.063623
     6  N   -0.256652
     7  C   -0.052986
     8  C   -0.013842
     9  C   -0.086858
    10  C    0.045916
    11  C    0.104769
    12  C    0.053558
    13  C   -0.071164
    14  H    0.033556
    15  N   -0.433217
    16  C    0.168339
    17  C   -0.177488
    18  C   -0.003557
    19  C    0.148823
    20  C    0.110283
    21  C    0.013071
    22  O   -0.249058
    23  C    0.062372
    24  N   -0.341005
    25  C    0.041118
    26  C   -0.028277
    27  C   -0.023929
    28  C    0.074688
    29  C    0.076065
    30  C    0.035116
    31  C   -0.004742
    32  N   -0.310580
    33  C    0.080481
    34  C   -0.169021
    35  C    0.008800
    36  C    0.083003
    37  C    0.127087
    38  C    0.046474
    39  O   -0.187336
    40  C   -0.005649
    41  C    0.213661
    42  O   -0.258676
    43  O   -0.304427
    44  C    0.157591
    45  H   -0.017751
    46  H   -0.016490
    47  H   -0.041114
    48  H    0.001275
    49  H   -0.004794
    50  H    0.025749
    51  H    0.016879
    52  H    0.016665
    53  H    0.009850
    54  H    0.043110
    55  H    0.019152
    56  H    0.017504
    57  H    0.005294
    58  H    0.027202
    59  H    0.038777
    60  H    0.036964
    61  H    0.036728
    62  H    0.031400
    63  H    0.016566
    64  H    0.009789
    65  H    0.023434
    66  H    0.012682
    67  H    0.004942
    68  H    0.006343
    69  H    0.005070
    70  H    0.008352
    71  H    0.017038
    72  H    0.029955
    73  H    0.048866
    74  H    0.009238
    75  H    0.046166
    76  H    0.035417
    77  H    0.044006
    78  H    0.045582
    79  H    0.053100
    80  Mg   0.837549
    81  C   -0.015987
    82  C   -0.088101
    83  C   -0.045868
    84  C   -0.065487
    85  N   -0.254767
    86  C   -0.047784
    87  C   -0.015373
    88  C   -0.091194
    89  C    0.046346
    90  C    0.112546
    91  C    0.062604
    92  C   -0.077174
    93  H    0.033780
    94  N   -0.423355
    95  C    0.162813
    96  C   -0.175828
    97  C   -0.008388
    98  C    0.151895
    99  C    0.100079
   100  C    0.014886
   101  O   -0.253441
   102  C    0.061512
   103  N   -0.350157
   104  C    0.037466
   105  C   -0.019757
   106  C   -0.034603
   107  C    0.089302
   108  C    0.073506
   109  C    0.034844
   110  C   -0.007552
   111  N   -0.324440
   112  C    0.079240
   113  C   -0.163084
   114  C    0.003592
   115  C    0.096012
   116  C    0.131123
   117  C    0.043650
   118  O   -0.186887
   119  C    0.000018
   120  C    0.210640
   121  O   -0.252129
   122  O   -0.304245
   123  C    0.152412
   124  H   -0.021246
   125  H   -0.015925
   126  H   -0.041294
   127  H    0.002473
   128  H   -0.006381
   129  H    0.034412
   130  H    0.012349
   131  H    0.013168
   132  H    0.013053
   133  H    0.037409
   134  H    0.021024
   135  H    0.018475
   136  H    0.007884
   137  H    0.023848
   138  H    0.039113
   139  H    0.036939
   140  H    0.035822
   141  H    0.033732
   142  H    0.013882
   143  H    0.011655
   144  H    0.025040
   145  H    0.013042
   146  H    0.005128
   147  H    0.005818
   148  H    0.003090
   149  H    0.010803
   150  H    0.017450
   151  H    0.030403
   152  H    0.045827
   153  H    0.007476
   154  H    0.048040
   155  H    0.041638
   156  H    0.044001
   157  H    0.048735
   158  H    0.052793
 Sum of Mulliken charges =  -0.00000

 Dipole moment (field-independent basis, Debye):
    X=             -4.7278    Y=             -1.8621    Z=             -7.0301  Tot=              8.6742
 Quadrupole moment (field-independent basis, Debye-Ang):
   XX=           -518.5744   YY=           -549.0805   ZZ=           -450.7017
   XY=             -3.5768   XZ=              0.5401   YZ=            -46.8117

 Normal termination of Gaussian 16 at Fri Sep  3 19:49:00 2021.
