 Gaussian 16, Revision A.03,
 Gaussian 16:  ES64L-G16RevA.03 25-Dec-2016

 -----------------------------------
 #p cam-b3lyp/Def2SVP td=(nstates=5)
 -----------------------------------

 --------------------------------
 TDDFT excited states in gaussian
 --------------------------------
 Symbolic Z-matrix:
 Charge =  0 Multiplicity = 1

                         Standard orientation:
 ---------------------------------------------------------------------
 Center     Atomic      Atomic             Coordinates (Angstroms)
 Number     Number       Type             X           Y           Z
 ---------------------------------------------------------------------
      1         12           0       -5.197383    0.661082    0.400220
      2          6           0       -5.561522   -2.364660   -1.477146
      3          6           0       -5.814216   -1.180758    3.205609
      4          6           0       -5.331045    3.381183    2.024969
      5          6           0       -5.736598    2.396971   -2.573263
      6          7           0       -5.617968   -1.491870    0.697793
      7          6           0       -5.670474   -2.555500   -0.097887
      8          6           0       -5.776637   -3.902587    0.677651
      9          6           0       -6.410624   -3.361322    2.036728
     10          6           0       -5.888370   -1.935963    1.997636
     11          6           0       -7.935470   -3.326190    2.026167
     12          6           0       -4.376759   -4.560626    0.920666
     13          6           0       -4.412113   -6.022208    1.376606
     14          1           0       -3.371332   -6.926348    0.911143
     15          7           0       -5.041731    1.004000    2.339557
     16          6           0       -5.318396    0.134089    3.340555
     17          6           0       -5.045883    0.860956    4.599158
     18          6           0       -4.770571    2.283058    4.252861
     19          6           0       -5.066328    2.285296    2.842932
     20          6           0       -5.016081    0.198245    5.942168
     21          6           0       -4.323566    3.456585    5.065975
     22          8           0       -4.369217    4.652566    4.616399
     23          6           0       -3.908487    3.175436    6.452231
     24          7           0       -5.708087    2.612504   -0.137152
     25          6           0       -5.625735    3.614994    0.744448
     26          6           0       -5.763582    4.947772    0.070178
     27          6           0       -5.714775    4.656444   -1.499058
     28          6           0       -5.634743    3.110666   -1.449727
     29          6           0       -7.036759    5.737786    0.403208
     30          6           0       -4.651519    5.424104   -2.324045
     31          6           0       -3.266050    4.959527   -1.934504
     32          7           0       -5.406831    0.146803   -1.698040
     33          6           0       -5.648026    1.027892   -2.762080
     34          6           0       -5.820118    0.205280   -3.973593
     35          6           0       -5.682646   -1.106623   -3.524307
     36          6           0       -5.466170   -1.104961   -2.116675
     37          6           0       -6.126480    0.692197   -5.274934
     38          6           0       -5.692802   -2.510601   -3.901931
     39          8           0       -5.738602   -3.120689   -4.971131
     40          6           0       -5.736256   -3.386649   -2.572842
     41          6           0       -4.693114   -4.462797   -2.703502
     42          8           0       -3.478443   -4.177261   -2.723724
     43          8           0       -5.270887   -5.663515   -2.545397
     44          6           0       -4.285704   -6.774228   -2.634188
     45          1           0       -6.226065   -1.608629    4.121713
     46          1           0       -5.276376    4.348890    2.527953
     47          1           0       -5.823656    2.873036   -3.551647
     48          1           0       -6.441574   -4.637375    0.223372
     49          1           0       -6.016238   -3.885664    2.906928
     50          1           0       -8.332473   -3.557680    1.037874
     51          1           0       -8.205224   -2.310591    2.316484
     52          1           0       -8.343296   -3.977301    2.799801
     53          1           0       -3.912214   -4.104726    1.794974
     54          1           0       -3.750811   -4.475315    0.031714
     55          1           0       -5.397525   -6.463471    1.224426
     56          1           0       -4.268281   -6.046575    2.456846
     57          1           0       -5.419045   -0.812839    5.898874
     58          1           0       -5.712692    0.741173    6.580660
     59          1           0       -4.020659    0.215310    6.386213
     60          1           0       -4.737949    2.715776    6.990056
     61          1           0       -3.537004    4.118326    6.851991
     62          1           0       -3.105966    2.437399    6.437722
     63          1           0       -4.939269    5.607990    0.336721
     64          1           0       -6.657811    4.898820   -1.989580
     65          1           0       -6.842291    6.731105    0.808431
     66          1           0       -7.631322    5.142490    1.095602
     67          1           0       -7.730025    5.859289   -0.428679
     68          1           0       -4.703827    6.491181   -2.110608
     69          1           0       -4.766401    5.295143   -3.400345
     70          1           0       -3.049897    5.554916   -1.048151
     71          1           0       -2.554414    5.174551   -2.732345
     72          1           0       -3.267921    3.912404   -1.631164
     73          1           0       -5.486108    0.142678   -5.964804
     74          1           0       -5.955862    1.766168   -5.346194
     75          1           0       -7.182465    0.431625   -5.344608
     76          1           0       -6.742496   -3.798378   -2.501552
     77          1           0       -4.635696   -7.452248   -3.412666
     78          1           0       -4.177924   -7.174181   -1.625810
     79          1           0       -3.298427   -6.513402   -3.017063
     80         12           0        5.350295    0.698139   -0.553511
     81          6           0        5.298667   -2.521698    1.030476
     82          6           0        4.744866    2.052886    2.517766
     83          6           0        4.942389    3.502425   -1.980771
     84          6           0        4.811357   -0.937862   -3.583157
     85          7           0        5.077477   -0.219113    1.440604
     86          6           0        5.140325   -1.447843    1.931137
     87          6           0        5.107602   -1.524020    3.481194
     88          6           0        4.366717   -0.129860    3.774883
     89          6           0        4.779477    0.635531    2.519302
     90          6           0        2.851456   -0.244611    3.787803
     91          6           0        6.545448   -1.553744    4.108662
     92          6           0        6.593197   -1.937774    5.589197
     93          1           0        7.725570   -2.726001    6.067631
     94          7           0        5.395716    2.537013    0.191514
     95          6           0        5.146301    2.905138    1.465695
     96          6           0        5.289411    4.368944    1.496922
     97          6           0        5.481765    4.851295    0.102267
     98          6           0        5.255010    3.624273   -0.634674
     99          6           0        5.317068    5.156755    2.774416
    100          6           0        5.802478    6.197250   -0.473732
    101          8           0        5.688284    6.437678   -1.727513
    102          6           0        6.164220    7.251389    0.485132
    103          7           0        4.727171    1.230349   -2.464211
    104          6           0        4.688347    2.519390   -2.844727
    105          6           0        4.477419    2.642117   -4.334979
    106          6           0        4.624978    1.158457   -4.913398
    107          6           0        4.815540    0.388085   -3.588408
    108          6           0        3.134022    3.226711   -4.770789
    109          6           0        5.664025    0.945602   -6.048189
    110          6           0        7.062844    1.147964   -5.511779
    111          7           0        5.280916   -1.355421   -1.221429
    112          6           0        5.015072   -1.818699   -2.528635
    113          6           0        4.961411   -3.293666   -2.465304
    114          6           0        5.178633   -3.587508   -1.110699
    115          6           0        5.335113   -2.380066   -0.377839
    116          6           0        4.688894   -4.163882   -3.558269
    117          6           0        5.300553   -4.644193   -0.132297
    118          8           0        5.342419   -5.872844   -0.181303
    119          6           0        5.257773   -3.996781    1.318706
    120          6           0        6.384449   -4.584971    2.123168
    121          8           0        7.567463   -4.362205    1.810971
    122          8           0        5.885413   -5.129683    3.247718
    123          6           0        6.966002   -5.716458    4.084278
    124          1           0        4.331945    2.562728    3.388659
    125          1           0        4.900097    4.438959   -2.541649
    126          1           0        4.745275   -1.525055   -4.501583
    127          1           0        4.527061   -2.345560    3.883470
    128          1           0        4.767473    0.350883    4.663508
    129          1           0        2.518993   -1.224644    3.479363
    130          1           0        2.493407    0.510218    3.099993
    131          1           0        2.460713    0.033669    4.770762
    132          1           0        6.931451   -0.527963    4.168099
    133          1           0        7.192999   -2.198615    3.547010
    134          1           0        5.647904   -2.375666    5.932146
    135          1           0        6.696213   -1.025167    6.181273
    136          1           0        4.987114    4.551290    3.627613
    137          1           0        4.554612    5.938109    2.684809
    138          1           0        6.285322    5.627232    2.958273
    139          1           0        5.349624    7.391974    1.191608
    140          1           0        6.445187    8.114421   -0.121601
    141          1           0        7.029860    6.913916    1.065992
    142          1           0        5.237197    3.270979   -4.782600
    143          1           0        3.684100    0.797551   -5.354218
    144          1           0        3.235277    4.123093   -5.411343
    145          1           0        2.557825    3.455974   -3.884241
    146          1           0        2.479467    2.535886   -5.299487
    147          1           0        5.522808    1.690130   -6.835513
    148          1           0        5.600421   -0.032010   -6.514263
    149          1           0        7.187547    2.234230   -5.551297
    150          1           0        7.791824    0.643766   -6.142971
    151          1           0        7.128373    0.846693   -4.459825
    152          1           0        5.392260   -4.982842   -3.487067
    153          1           0        4.776408   -3.645320   -4.510753
    154          1           0        3.654945   -4.439947   -3.334683
    155          1           0        4.282981   -4.225824    1.751021
    156          1           0        6.700694   -6.763459    4.260585
    157          1           0        7.046195   -5.060836    4.971670
    158          1           0        7.947116   -5.819555    3.635665
 ---------------------------------------------------------------------

 SCF Done:  E(RCAM-B3LYP) =  -4069.81185138     A.U. after   19 cycles

 Excitation energies and oscillator strengths:

 Excited State   1:      Singlet-A      1.6648 eV  744.75 nm  f=0.1742  <S**2>=0.000
     309 -> 315       -0.11154
     310 -> 316        0.12971
     311 -> 313        0.44640
     312 -> 314        0.52149
 This state for optimization and/or second-order correction.
 Total Energy, E(TD-HF/TD-DFT) =  -4069.75067177
 Copying the excited state density for this state as the 1-particle RhoCI density.

 Excited State   2:      Singlet-A      1.6867 eV  735.05 nm  f=0.5295  <S**2>=0.000
     309 -> 315       -0.13432
     310 -> 316       -0.11512
     311 -> 313        0.52044
     312 -> 314       -0.44568

 Excited State   3:      Singlet-A      2.1851 eV  567.40 nm  f=0.0722  <S**2>=0.000
     309 -> 313       -0.19148
     310 -> 314        0.61359
     312 -> 316       -0.26049

 Excited State   4:      Singlet-A      2.1914 eV  565.78 nm  f=0.1223  <S**2>=0.000
     309 -> 313        0.61173
     310 -> 314        0.19002
     311 -> 315        0.26503

 Excited State   5:      Singlet-A      2.4856 eV  498.81 nm  f=0.0000  <S**2>=0.000
     312 -> 313        0.70709

 The electronic state is 1-A.
 Alpha  occ. eigenvalues --  -46.87875 -46.87502 -19.26296 -19.26278 -19.19086
 Alpha  occ. eigenvalues --  -19.19031 -19.18952 -19.18575 -19.18237 -19.17914
 Alpha  occ. eigenvalues --  -14.42522 -14.42350 -14.41525 -14.41195 -14.39489
 Alpha  occ. eigenvalues --  -14.39196 -14.38664 -14.38435 -10.39094 -10.39012
 Alpha  occ. eigenvalues --  -10.35589 -10.35254 -10.34453 -10.34093 -10.31731
 Alpha  occ. eigenvalues --  -10.31636 -10.31468 -10.31165 -10.30981 -10.30896
 Alpha  occ. eigenvalues --  -10.30645 -10.30590 -10.30291 -10.30231 -10.30197
 Alpha  occ. eigenvalues --  -10.29992 -10.29970 -10.29721 -10.29719 -10.29346
 Alpha  occ. eigenvalues --  -10.29272 -10.29236 -10.28785 -10.28641 -10.28633
 Alpha  occ. eigenvalues --  -10.28506 -10.28446 -10.28256 -10.28161 -10.28059
 Alpha  occ. eigenvalues --  -10.27879 -10.27838 -10.27802 -10.27681 -10.27606
 Alpha  occ. eigenvalues --  -10.27565 -10.27521 -10.27517 -10.27474 -10.27337
 Alpha  occ. eigenvalues --  -10.27323 -10.27322 -10.27307 -10.27205 -10.27200
 Alpha  occ. eigenvalues --  -10.26933 -10.26715 -10.26634 -10.26600 -10.26292
 Alpha  occ. eigenvalues --  -10.26276 -10.26231 -10.26097 -10.25973 -10.25958
 Alpha  occ. eigenvalues --  -10.25923 -10.25754 -10.25605 -10.25500 -10.25217
 Alpha  occ. eigenvalues --  -10.24915 -10.24867 -10.24724 -10.24707 -10.24574
 Alpha  occ. eigenvalues --  -10.24532  -3.16618  -3.16251  -1.91500  -1.91133
 Alpha  occ. eigenvalues --   -1.91086  -1.90928  -1.90722  -1.90559  -1.16631
 Alpha  occ. eigenvalues --   -1.16584  -1.08689  -1.08526  -1.07356  -1.06871
 Alpha  occ. eigenvalues --   -1.06829  -1.06653  -1.04653  -1.04352  -1.03837
 Alpha  occ. eigenvalues --   -1.03507  -1.03315  -1.02873  -1.02490  -1.01949
 Alpha  occ. eigenvalues --   -0.92039  -0.91843  -0.89587  -0.89328  -0.89230
 Alpha  occ. eigenvalues --   -0.89059  -0.88354  -0.88052  -0.87950  -0.87740
 Alpha  occ. eigenvalues --   -0.87611  -0.87536  -0.87388  -0.86970  -0.85033
 Alpha  occ. eigenvalues --   -0.84893  -0.83996  -0.83714  -0.83094  -0.82788
 Alpha  occ. eigenvalues --   -0.82707  -0.82541  -0.81622  -0.81484  -0.80659
 Alpha  occ. eigenvalues --   -0.80315  -0.78896  -0.78476  -0.77282  -0.77017
 Alpha  occ. eigenvalues --   -0.76970  -0.76782  -0.75969  -0.75728  -0.74958
 Alpha  occ. eigenvalues --   -0.74649  -0.72850  -0.72536  -0.71736  -0.71442
 Alpha  occ. eigenvalues --   -0.69964  -0.69591  -0.68933  -0.68715  -0.67720
 Alpha  occ. eigenvalues --   -0.67459  -0.67274  -0.67097  -0.65333  -0.65166
 Alpha  occ. eigenvalues --   -0.64913  -0.64672  -0.64627  -0.64532  -0.64335
 Alpha  occ. eigenvalues --   -0.64043  -0.62326  -0.62170  -0.60543  -0.60185
 Alpha  occ. eigenvalues --   -0.59861  -0.59682  -0.59055  -0.58843  -0.58572
 Alpha  occ. eigenvalues --   -0.58282  -0.57634  -0.57433  -0.57379  -0.57083
 Alpha  occ. eigenvalues --   -0.56391  -0.56055  -0.55999  -0.55793  -0.55610
 Alpha  occ. eigenvalues --   -0.55390  -0.55327  -0.55101  -0.54562  -0.54357
 Alpha  occ. eigenvalues --   -0.53938  -0.53822  -0.53391  -0.53291  -0.53079
 Alpha  occ. eigenvalues --   -0.53023  -0.52973  -0.52848  -0.52788  -0.52545
 Alpha  occ. eigenvalues --   -0.52493  -0.52238  -0.51991  -0.51677  -0.51675
 Alpha  occ. eigenvalues --   -0.51554  -0.51253  -0.51062  -0.50708  -0.50337
 Alpha  occ. eigenvalues --   -0.50100  -0.50020  -0.49861  -0.49707  -0.49588
 Alpha  occ. eigenvalues --   -0.49365  -0.49290  -0.49145  -0.49081  -0.48984
 Alpha  occ. eigenvalues --   -0.48644  -0.48566  -0.48511  -0.48439  -0.48223
 Alpha  occ. eigenvalues --   -0.48201  -0.47765  -0.47467  -0.47375  -0.46973
 Alpha  occ. eigenvalues --   -0.46860  -0.46601  -0.46567  -0.46449  -0.46431
 Alpha  occ. eigenvalues --   -0.46222  -0.46114  -0.45925  -0.45868  -0.45685
 Alpha  occ. eigenvalues --   -0.45268  -0.45052  -0.44643  -0.44588  -0.44404
 Alpha  occ. eigenvalues --   -0.44344  -0.44218  -0.44140  -0.44089  -0.44008
 Alpha  occ. eigenvalues --   -0.43933  -0.43811  -0.43538  -0.43444  -0.43444
 Alpha  occ. eigenvalues --   -0.43260  -0.43092  -0.42832  -0.42759  -0.42747
 Alpha  occ. eigenvalues --   -0.42677  -0.42395  -0.42061  -0.41830  -0.41771
 Alpha  occ. eigenvalues --   -0.41578  -0.41533  -0.41346  -0.41204  -0.40953
 Alpha  occ. eigenvalues --   -0.40903  -0.40862  -0.40629  -0.40609  -0.40586
 Alpha  occ. eigenvalues --   -0.40338  -0.40263  -0.40149  -0.39494  -0.39256
 Alpha  occ. eigenvalues --   -0.38527  -0.38198  -0.37780  -0.37567  -0.37386
 Alpha  occ. eigenvalues --   -0.37311  -0.37111  -0.37073  -0.36740  -0.36682
 Alpha  occ. eigenvalues --   -0.36235  -0.36078  -0.34360  -0.34100  -0.33796
 Alpha  occ. eigenvalues --   -0.33771  -0.33259  -0.33017  -0.31479  -0.31134
 Alpha  occ. eigenvalues --   -0.31110  -0.30824  -0.30092  -0.29821  -0.29547
 Alpha  occ. eigenvalues --   -0.29405  -0.29169  -0.29042  -0.24155  -0.23877
 Alpha  occ. eigenvalues --   -0.21207  -0.20958
 Alpha virt. eigenvalues --   -0.08860  -0.08632  -0.01832  -0.01526  -0.00160
 Alpha virt. eigenvalues --    0.00112   0.02124   0.02365   0.03026   0.03374
 Alpha virt. eigenvalues --    0.04667   0.04858   0.05078   0.05250   0.06172

 Mulliken charges:
               1
     1  Mg   0.838624
     2  C   -0.002840
     3  C   -0.094238
     4  C   -0.046044
     5  C   -0.064008
     6  N   -0.256814
     7  C   -0.052178
     8  C   -0.014009
     9  C   -0.086939
    10  C    0.046276
    11  C    0.104799
    12  C    0.053508
    13  C   -0.072580
    14  H    0.038321
    15  N   -0.433045
    16  C    0.168127
    17  C   -0.177548
    18  C   -0.004539
    19  C    0.148596
    20  C    0.110229
    21  C    0.011543
    22  O   -0.249835
    23  C    0.062908
    24  N   -0.341208
    25  C    0.041304
    26  C   -0.028126
    27  C   -0.024086
    28  C    0.075115
    29  C    0.076148
    30  C    0.035065
    31  C   -0.004457
    32  N   -0.310521
    33  C    0.080625
    34  C   -0.169825
    35  C    0.008445
    36  C    0.083074
    37  C    0.127332
    38  C    0.046109
    39  O   -0.188081
    40  C   -0.005231
    41  C    0.212879
    42  O   -0.257027
    43  O   -0.304888
    44  C    0.157459
    45  H   -0.017568
    46  H   -0.017044
    47  H   -0.041336
    48  H    0.001228
    49  H   -0.003958
    50  H    0.025588
    51  H    0.016289
    52  H    0.016819
    53  H    0.010688
    54  H    0.044507
    55  H    0.017802
    56  H    0.017748
    57  H    0.006161
    58  H    0.026879
    59  H    0.038235
    60  H    0.037868
    61  H    0.034909
    62  H    0.029919
    63  H    0.016419
    64  H    0.009603
    65  H    0.023170
    66  H    0.012510
    67  H    0.004926
    68  H    0.006655
    69  H    0.004764
    70  H    0.008767
    71  H    0.018887
    72  H    0.028609
    73  H    0.047417
    74  H    0.009180
    75  H    0.046303
    76  H    0.035361
    77  H    0.043129
    78  H    0.046917
    79  H    0.054228
    80  Mg   0.838231
    81  C   -0.016882
    82  C   -0.087987
    83  C   -0.045385
    84  C   -0.062964
    85  N   -0.254457
    86  C   -0.049815
    87  C   -0.015034
    88  C   -0.090545
    89  C    0.045665
    90  C    0.114609
    91  C    0.062647
    92  C   -0.077510
    93  H    0.034511
    94  N   -0.423434
    95  C    0.162693
    96  C   -0.174590
    97  C   -0.007982
    98  C    0.152039
    99  C    0.099350
   100  C    0.015415
   101  O   -0.253566
   102  C    0.061237
   103  N   -0.349856
   104  C    0.037649
   105  C   -0.019951
   106  C   -0.035213
   107  C    0.088934
   108  C    0.073458
   109  C    0.034644
   110  C   -0.007581
   111  N   -0.324351
   112  C    0.078525
   113  C   -0.161641
   114  C    0.002360
   115  C    0.096502
   116  C    0.131139
   117  C    0.042810
   118  O   -0.188439
   119  C    0.000730
   120  C    0.211067
   121  O   -0.251053
   122  O   -0.305867
   123  C    0.152161
   124  H   -0.020090
   125  H   -0.015871
   126  H   -0.039340
   127  H   -0.001498
   128  H   -0.004936
   129  H    0.022284
   130  H    0.015421
   131  H    0.014184
   132  H    0.014043
   133  H    0.037723
   134  H    0.019950
   135  H    0.019352
   136  H    0.008382
   137  H    0.026527
   138  H    0.039261
   139  H    0.038421
   140  H    0.035971
   141  H    0.033655
   142  H    0.013949
   143  H    0.014393
   144  H    0.024173
   145  H    0.011582
   146  H    0.006989
   147  H    0.006082
   148  H    0.004181
   149  H    0.010589
   150  H    0.017661
   151  H    0.029919
   152  H    0.045108
   153  H    0.008782
   154  H    0.050065
   155  H    0.034728
   156  H    0.043365
   157  H    0.049127
   158  H    0.053594
 Sum of Mulliken charges =  -0.00000

 Dipole moment (field-independent basis, Debye):
    X=             -3.4744    Y=              1.9199    Z=              6.7935  Tot=              7.8682
 Quadrupole moment (field-independent basis, Debye-Ang):
   XX=           -518.9710   YY=           -526.8544   ZZ=           -472.3606
   XY=             22.3820   XZ=             -2.5535   YZ=            -25.6515

 Normal termination of Gaussian 16 at Sat Sep  4 04:46:21 2021.
