 Gaussian 16, Revision A.03,
 Gaussian 16:  ES64L-G16RevA.03 25-Dec-2016

 -----------------------------------
 #p cam-b3lyp/Def2SVP td=(nstates=5)
 -----------------------------------

 --------------------------------
 TDDFT excited states in gaussian
 --------------------------------
 Symbolic Z-matrix:
 Charge =  0 Multiplicity = 1

                         Standard orientation:
 ---------------------------------------------------------------------
 Center     Atomic      Atomic             Coordinates (Angstroms)
 Number     Number       Type             X           Y           Z
 ---------------------------------------------------------------------
      1         12           0       -6.444217   -1.068224    0.100191
      2          6           0       -7.226971    2.421147    0.254468
      3          6           0       -7.392747   -0.984012   -3.176433
      4          6           0       -6.194748   -4.229352    0.059495
      5          6           0       -6.650639   -1.117497    3.578786
      6          7           0       -7.194494    0.570959   -1.184648
      7          6           0       -7.392251    1.875215   -1.020399
      8          6           0       -7.718752    2.622587   -2.347880
      9          6           0       -8.290659    1.397236   -3.192530
     10          6           0       -7.556305    0.261967   -2.501290
     11          6           0       -9.791735    1.187297   -3.021654
     12          6           0       -6.441019    3.232550   -3.016516
     13          6           0       -6.708423    4.247633   -4.131619
     14          1           0       -5.808420    5.381771   -4.276786
     15          7           0       -6.278166   -2.320839   -1.418438
     16          6           0       -6.704973   -2.115825   -2.687725
     17          6           0       -6.350793   -3.339026   -3.439402
     18          6           0       -5.854584   -4.346525   -2.461233
     19          6           0       -6.117334   -3.673061   -1.215124
     20          6           0       -6.450237   -3.446447   -4.930147
     21          6           0       -5.250623   -5.705597   -2.623366
     22          8           0       -5.103921   -6.506689   -1.637818
     23          6           0       -4.912050   -6.114202   -3.998667
     24          7           0       -6.639919   -2.527287    1.580215
     25          6           0       -6.423778   -3.819000    1.308655
     26          6           0       -6.342653   -4.634871    2.564725
     27          6           0       -6.306458   -3.588234    3.770128
     28          6           0       -6.464300   -2.282028    2.953316
     29          6           0       -7.486960   -5.632871    2.789600
     30          6           0       -5.121686   -3.699084    4.762320
     31          6           0       -3.831693   -3.330170    4.064523
     32          7           0       -6.686289    0.404516    1.676098
     33          6           0       -6.768155    0.158844    3.054364
     34          6           0       -7.038697    1.452331    3.708402
     35          6           0       -7.112357    2.363816    2.656920
     36          6           0       -6.927300    1.678548    1.422232
     37          6           0       -7.240204    1.655408    5.102170
     38          6           0       -7.328848    3.753248    2.287506
     39          8           0       -7.445112    4.808611    2.912155
     40          6           0       -7.532943    3.826318    0.709902
     41          6           0       -6.663776    4.938873    0.190210
     42          8           0       -5.419602    4.852547    0.234306
     43          8           0       -7.421164    5.815327   -0.487089
     44          6           0       -6.615403    6.929265   -1.054579
     45          1           0       -7.883911   -1.130458   -4.140410
     46          1           0       -6.003444   -5.303685    0.100113
     47          1           0       -6.643788   -1.041434    4.667648
     48          1           0       -8.478505    3.399110   -2.257253
     49          1           0       -7.998980    1.454353   -4.241045
     50          1           0      -10.198906    1.835543   -2.245825
     51          1           0       -9.909280    0.139904   -2.743007
     52          1           0      -10.310048    1.304046   -3.973755
     53          1           0       -5.930509    2.458182   -3.589050
     54          1           0       -5.791148    3.684136   -2.266140
     55          1           0       -7.746276    4.581904   -4.125839
     56          1           0       -6.592350    3.740958   -5.089746
     57          1           0       -7.001800   -2.609256   -5.356099
     58          1           0       -7.068876   -4.317295   -5.146058
     59          1           0       -5.473262   -3.564131   -5.399190
     60          1           0       -5.812879   -6.093365   -4.612362
     61          1           0       -4.409366   -7.076759   -3.911246
     62          1           0       -4.231433   -5.378501   -4.428148
     63          1           0       -5.432926   -5.233576    2.584074
     64          1           0       -7.191118   -3.662514    4.403004
     65          1           0       -7.151596   -6.662795    2.914072
     66          1           0       -8.179586   -5.545533    1.952980
     67          1           0       -8.136222   -5.401267    3.633540
     68          1           0       -5.014935   -4.725282    5.112275
     69          1           0       -5.232636   -3.059811    5.638260
     70          1           0       -3.545574   -4.260028    3.574286
     71          1           0       -3.079245   -3.025022    4.792477
     72          1           0       -3.999612   -2.588324    3.283528
     73          1           0       -6.677076    2.550979    5.364484
     74          1           0       -6.906250    0.794027    5.680184
     75          1           0       -8.321917    1.785023    5.133031
     76          1           0       -8.591486    4.020072    0.539409
     77          1           0       -7.048606    7.859077   -0.685770
     78          1           0       -6.590784    6.775525   -2.133543
     79          1           0       -5.592188    7.019396   -0.688184
     80         12           0        6.612747    1.097880   -0.080968
     81          6           0        6.991257   -2.461302   -0.341739
     82          6           0        5.849439    0.625559    3.209766
     83          6           0        5.833898    4.169684    0.076731
     84          6           0        6.278630    1.176930   -3.549080
     85          7           0        6.472007   -0.729070    1.157863
     86          6           0        6.697741   -2.019929    0.965350
     87          6           0        6.682627   -2.875657    2.260362
     88          6           0        5.766729   -1.919881    3.169478
     89          6           0        6.069611   -0.581373    2.499165
     90          6           0        4.279683   -2.199207    3.028056
     91          6           0        8.114919   -3.053710    2.875888
     92          6           0        8.219621   -4.127704    3.960931
     93          1           0        9.447824   -4.912948    4.046800
     94          7           0        6.420178    2.294935    1.490202
     95          6           0        6.130683    1.933616    2.757838
     96          6           0        6.080753    3.184064    3.531169
     97          6           0        6.201597    4.326102    2.584674
     98          6           0        6.134203    3.626429    1.317391
     99          6           0        6.010918    3.211355    5.030439
    100          6           0        6.340324    5.804674    2.786591
    101          8           0        6.189651    6.633282    1.820391
    102          6           0        6.565259    6.259661    4.166408
    103          7           0        5.916169    2.450392   -1.497950
    104          6           0        5.706858    3.739680   -1.178763
    105          6           0        5.474604    4.576665   -2.414037
    106          6           0        5.812689    3.620575   -3.650635
    107          6           0        6.108896    2.312173   -2.885309
    108          6           0        4.064104    5.142057   -2.578969
    109          6           0        6.865295    4.134787   -4.670576
    110          6           0        8.228028    4.196617   -4.019024
    111          7           0        6.810070   -0.324368   -1.695369
    112          6           0        6.601084   -0.086967   -3.071614
    113          6           0        6.741589   -1.384632   -3.763522
    114          6           0        7.001880   -2.298140   -2.730935
    115          6           0        7.002158   -1.621214   -1.481428
    116          6           0        6.580369   -1.604198   -5.160635
    117          6           0        7.265941   -3.682961   -2.412754
    118          8           0        7.468316   -4.702282   -3.071371
    119          6           0        7.145510   -3.871760   -0.839145
    120          6           0        8.343378   -4.652381   -0.371965
    121          8           0        9.485474   -4.167235   -0.454731
    122          8           0        7.925400   -5.745918    0.291241
    123          6           0        9.077555   -6.546934    0.783911
    124          1           0        5.377366    0.571109    4.191118
    125          1           0        5.666511    5.249156    0.062701
    126          1           0        6.285777    1.134217   -4.640322
    127          1           0        6.216739   -3.848278    2.156736
    128          1           0        6.105186   -1.914306    4.202325
    129          1           0        4.077137   -2.917717    2.247767
    130          1           0        3.822491   -1.246862    2.793375
    131          1           0        3.860478   -2.505695    3.990686
    132          1           0        8.363366   -2.163551    3.468025
    133          1           0        8.838766   -3.244472    2.107585
    134          1           0        7.341532   -4.784720    3.976672
    135          1           0        8.204883   -3.637202    4.937261
    136          1           0        5.767254    2.223218    5.439831
    137          1           0        5.152185    3.836010    5.299221
    138          1           0        6.909986    3.631400    5.486410
    139          1           0        5.742604    5.927066    4.794961
    140          1           0        6.727750    7.336938    4.096060
    141          1           0        7.470403    5.776503    4.550937
    142          1           0        6.143237    5.428478   -2.435340
    143          1           0        4.925181    3.427680   -4.271081
    144          1           0        4.043904    6.244257   -2.672894
    145          1           0        3.467014    4.821279   -1.735692
    146          1           0        3.503286    4.745127   -3.423445
    147          1           0        6.623945    5.153878   -4.982622
    148          1           0        6.928219    3.529380   -5.568647
    149          1           0        8.209027    5.158512   -3.497995
    150          1           0        9.013829    4.170658   -4.771273
    151          1           0        8.337468    3.412920   -3.260416
    152          1           0        7.385371   -2.258441   -5.467917
    153          1           0        6.594615   -0.667819   -5.714501
    154          1           0        5.592607   -2.072683   -5.171729
    155          1           0        6.211225   -4.399228   -0.643036
    156          1           0        8.952664   -7.560983    0.391731
    157          1           0        9.075284   -6.428417    1.883770
    158          1           0       10.061576   -6.294046    0.406818
 ---------------------------------------------------------------------

 SCF Done:  E(RCAM-B3LYP) =  -4069.81177206     A.U. after   19 cycles

 Excitation energies and oscillator strengths:

 Excited State   1:      Singlet-A      1.6657 eV  744.34 nm  f=0.0086  <S**2>=0.000
     309 -> 315        0.10907
     310 -> 316        0.13241
     311 -> 313        0.43549
     312 -> 314        0.53085
 This state for optimization and/or second-order correction.
 Total Energy, E(TD-HF/TD-DFT) =  -4069.75055894
 Copying the excited state density for this state as the 1-particle RhoCI density.

 Excited State   2:      Singlet-A      1.6897 eV  733.75 nm  f=0.7350  <S**2>=0.000
     309 -> 315        0.13768
     310 -> 316       -0.11247
     311 -> 313        0.52965
     312 -> 314       -0.43457

 Excited State   3:      Singlet-A      2.1854 eV  567.33 nm  f=0.0384  <S**2>=0.000
     309 -> 313        0.20677
     310 -> 314        0.60910
     312 -> 316       -0.25767

 Excited State   4:      Singlet-A      2.1940 eV  565.12 nm  f=0.1500  <S**2>=0.000
     309 -> 313        0.60648
     310 -> 314       -0.20499
     311 -> 315       -0.26445

 Excited State   5:      Singlet-A      2.6509 eV  467.70 nm  f=0.0000  <S**2>=0.000
     312 -> 313        0.70710

 The electronic state is 1-A.
 Alpha  occ. eigenvalues --  -46.87852 -46.87553 -19.26318 -19.26274 -19.19083
 Alpha  occ. eigenvalues --  -19.19058 -19.18843 -19.18588 -19.18219 -19.17961
 Alpha  occ. eigenvalues --  -14.42503 -14.42390 -14.41509 -14.41252 -14.39455
 Alpha  occ. eigenvalues --  -14.39241 -14.38643 -14.38496 -10.39119 -10.39011
 Alpha  occ. eigenvalues --  -10.35474 -10.35263 -10.34439 -10.34139 -10.31705
 Alpha  occ. eigenvalues --  -10.31690 -10.31459 -10.31209 -10.30954 -10.30911
 Alpha  occ. eigenvalues --  -10.30626 -10.30564 -10.30293 -10.30267 -10.30261
 Alpha  occ. eigenvalues --  -10.30029 -10.29985 -10.29791 -10.29682 -10.29324
 Alpha  occ. eigenvalues --  -10.29306 -10.29297 -10.28791 -10.28619 -10.28578
 Alpha  occ. eigenvalues --  -10.28575 -10.28414 -10.28296 -10.28160 -10.28036
 Alpha  occ. eigenvalues --  -10.27897 -10.27845 -10.27779 -10.27631 -10.27586
 Alpha  occ. eigenvalues --  -10.27560 -10.27526 -10.27508 -10.27455 -10.27422
 Alpha  occ. eigenvalues --  -10.27378 -10.27357 -10.27337 -10.27266 -10.27204
 Alpha  occ. eigenvalues --  -10.26958 -10.26745 -10.26605 -10.26408 -10.26304
 Alpha  occ. eigenvalues --  -10.26276 -10.26273 -10.26083 -10.26065 -10.25917
 Alpha  occ. eigenvalues --  -10.25906 -10.25835 -10.25792 -10.25502 -10.25256
 Alpha  occ. eigenvalues --  -10.24885 -10.24844 -10.24834 -10.24772 -10.24661
 Alpha  occ. eigenvalues --  -10.24578  -3.16595  -3.16303  -1.91477  -1.91185
 Alpha  occ. eigenvalues --   -1.91063  -1.90906  -1.90773  -1.90610  -1.16668
 Alpha  occ. eigenvalues --   -1.16568  -1.08676  -1.08571  -1.07243  -1.06868
 Alpha  occ. eigenvalues --   -1.06838  -1.06681  -1.04633  -1.04388  -1.03818
 Alpha  occ. eigenvalues --   -1.03556  -1.03289  -1.02932  -1.02467  -1.02005
 Alpha  occ. eigenvalues --   -0.92023  -0.91886  -0.89596  -0.89396  -0.89233
 Alpha  occ. eigenvalues --   -0.89050  -0.88361  -0.88118  -0.87930  -0.87726
 Alpha  occ. eigenvalues --   -0.87705  -0.87580  -0.87311  -0.87001  -0.85028
 Alpha  occ. eigenvalues --   -0.84898  -0.84018  -0.83777  -0.83005  -0.82812
 Alpha  occ. eigenvalues --   -0.82691  -0.82547  -0.81632  -0.81508  -0.80643
 Alpha  occ. eigenvalues --   -0.80344  -0.78842  -0.78527  -0.77278  -0.77045
 Alpha  occ. eigenvalues --   -0.76986  -0.76803  -0.75970  -0.75740  -0.74963
 Alpha  occ. eigenvalues --   -0.74694  -0.72832  -0.72599  -0.71726  -0.71473
 Alpha  occ. eigenvalues --   -0.70001  -0.69665  -0.68919  -0.68726  -0.67690
 Alpha  occ. eigenvalues --   -0.67498  -0.67259  -0.67098  -0.65336  -0.65174
 Alpha  occ. eigenvalues --   -0.64908  -0.64676  -0.64671  -0.64557  -0.64340
 Alpha  occ. eigenvalues --   -0.64105  -0.62345  -0.62190  -0.60489  -0.60226
 Alpha  occ. eigenvalues --   -0.59852  -0.59695  -0.59044  -0.58890  -0.58558
 Alpha  occ. eigenvalues --   -0.58325  -0.57632  -0.57465  -0.57366  -0.57133
 Alpha  occ. eigenvalues --   -0.56360  -0.56106  -0.56019  -0.55797  -0.55562
 Alpha  occ. eigenvalues --   -0.55407  -0.55348  -0.55153  -0.54585  -0.54396
 Alpha  occ. eigenvalues --   -0.53939  -0.53812  -0.53350  -0.53261  -0.53126
 Alpha  occ. eigenvalues --   -0.53039  -0.52966  -0.52806  -0.52790  -0.52547
 Alpha  occ. eigenvalues --   -0.52535  -0.52318  -0.51979  -0.51810  -0.51656
 Alpha  occ. eigenvalues --   -0.51556  -0.51255  -0.51109  -0.50601  -0.50352
 Alpha  occ. eigenvalues --   -0.50106  -0.49956  -0.49870  -0.49758  -0.49554
 Alpha  occ. eigenvalues --   -0.49378  -0.49261  -0.49141  -0.49100  -0.49007
 Alpha  occ. eigenvalues --   -0.48643  -0.48521  -0.48481  -0.48463  -0.48273
 Alpha  occ. eigenvalues --   -0.48222  -0.47744  -0.47490  -0.47344  -0.47006
 Alpha  occ. eigenvalues --   -0.46859  -0.46611  -0.46599  -0.46453  -0.46416
 Alpha  occ. eigenvalues --   -0.46222  -0.46168  -0.45988  -0.45876  -0.45737
 Alpha  occ. eigenvalues --   -0.45269  -0.45094  -0.44631  -0.44553  -0.44422
 Alpha  occ. eigenvalues --   -0.44376  -0.44209  -0.44134  -0.44060  -0.44027
 Alpha  occ. eigenvalues --   -0.43978  -0.43831  -0.43545  -0.43467  -0.43440
 Alpha  occ. eigenvalues --   -0.43284  -0.43083  -0.42843  -0.42806  -0.42764
 Alpha  occ. eigenvalues --   -0.42716  -0.42452  -0.42082  -0.41872  -0.41757
 Alpha  occ. eigenvalues --   -0.41582  -0.41570  -0.41361  -0.41193  -0.40928
 Alpha  occ. eigenvalues --   -0.40882  -0.40855  -0.40642  -0.40618  -0.40588
 Alpha  occ. eigenvalues --   -0.40394  -0.40274  -0.40128  -0.39543  -0.39336
 Alpha  occ. eigenvalues --   -0.38540  -0.38247  -0.37794  -0.37560  -0.37388
 Alpha  occ. eigenvalues --   -0.37310  -0.37166  -0.37098  -0.36763  -0.36688
 Alpha  occ. eigenvalues --   -0.36248  -0.36119  -0.34342  -0.34150  -0.33812
 Alpha  occ. eigenvalues --   -0.33779  -0.33241  -0.33071  -0.31374  -0.31147
 Alpha  occ. eigenvalues --   -0.31088  -0.30865  -0.30078  -0.29867  -0.29496
 Alpha  occ. eigenvalues --   -0.29375  -0.29216  -0.29110  -0.24136  -0.23930
 Alpha  occ. eigenvalues --   -0.21183  -0.21010
 Alpha virt. eigenvalues --   -0.08825  -0.08684  -0.01804  -0.01574  -0.00098
 Alpha virt. eigenvalues --    0.00087   0.02147   0.02304   0.03053   0.03322
 Alpha virt. eigenvalues --    0.04667   0.04834   0.05058   0.05247   0.06135

 Mulliken charges:
               1
     1  Mg   0.838533
     2  C   -0.002868
     3  C   -0.093978
     4  C   -0.045933
     5  C   -0.064175
     6  N   -0.256762
     7  C   -0.052510
     8  C   -0.013996
     9  C   -0.087020
    10  C    0.046334
    11  C    0.104776
    12  C    0.053449
    13  C   -0.071855
    14  H    0.036166
    15  N   -0.433211
    16  C    0.168468
    17  C   -0.176929
    18  C   -0.003839
    19  C    0.148750
    20  C    0.110122
    21  C    0.012460
    22  O   -0.249540
    23  C    0.062370
    24  N   -0.341048
    25  C    0.041209
    26  C   -0.028225
    27  C   -0.023848
    28  C    0.074613
    29  C    0.076126
    30  C    0.035264
    31  C   -0.004393
    32  N   -0.310398
    33  C    0.080183
    34  C   -0.170090
    35  C    0.008377
    36  C    0.082831
    37  C    0.127400
    38  C    0.046020
    39  O   -0.188465
    40  C   -0.005316
    41  C    0.212901
    42  O   -0.257117
    43  O   -0.304798
    44  C    0.157590
    45  H   -0.017364
    46  H   -0.016761
    47  H   -0.041894
    48  H    0.001028
    49  H   -0.003909
    50  H    0.025518
    51  H    0.016466
    52  H    0.016828
    53  H    0.011151
    54  H    0.044112
    55  H    0.017974
    56  H    0.017980
    57  H    0.005934
    58  H    0.027076
    59  H    0.039961
    60  H    0.037379
    61  H    0.036225
    62  H    0.031835
    63  H    0.016391
    64  H    0.009503
    65  H    0.023277
    66  H    0.012799
    67  H    0.004748
    68  H    0.006243
    69  H    0.004419
    70  H    0.008837
    71  H    0.016692
    72  H    0.029284
    73  H    0.047264
    74  H    0.008662
    75  H    0.046116
    76  H    0.035240
    77  H    0.043069
    78  H    0.046420
    79  H    0.053867
    80  Mg   0.837991
    81  C   -0.016876
    82  C   -0.087558
    83  C   -0.044922
    84  C   -0.064980
    85  N   -0.254571
    86  C   -0.049907
    87  C   -0.015101
    88  C   -0.090550
    89  C    0.045828
    90  C    0.114267
    91  C    0.062557
    92  C   -0.077779
    93  H    0.034561
    94  N   -0.423663
    95  C    0.163111
    96  C   -0.173964
    97  C   -0.007349
    98  C    0.152265
    99  C    0.099081
   100  C    0.015963
   101  O   -0.252911
   102  C    0.061134
   103  N   -0.349971
   104  C    0.037788
   105  C   -0.020017
   106  C   -0.034537
   107  C    0.088814
   108  C    0.073397
   109  C    0.034796
   110  C   -0.007594
   111  N   -0.323994
   112  C    0.078308
   113  C   -0.163533
   114  C    0.002103
   115  C    0.096070
   116  C    0.131544
   117  C    0.042107
   118  O   -0.188450
   119  C    0.001001
   120  C    0.211164
   121  O   -0.251161
   122  O   -0.305553
   123  C    0.152120
   124  H   -0.019338
   125  H   -0.015189
   126  H   -0.041053
   127  H   -0.000682
   128  H   -0.004508
   129  H    0.022615
   130  H    0.015181
   131  H    0.016040
   132  H    0.013861
   133  H    0.037548
   134  H    0.020774
   135  H    0.019519
   136  H    0.008714
   137  H    0.027192
   138  H    0.039627
   139  H    0.038923
   140  H    0.036438
   141  H    0.033507
   142  H    0.014211
   143  H    0.012018
   144  H    0.025052
   145  H    0.013341
   146  H    0.005353
   147  H    0.006013
   148  H    0.003161
   149  H    0.010965
   150  H    0.017558
   151  H    0.030226
   152  H    0.045671
   153  H    0.008135
   154  H    0.046358
   155  H    0.035101
   156  H    0.043757
   157  H    0.049476
   158  H    0.053407
 Sum of Mulliken charges =  -0.00000

 Dipole moment (field-independent basis, Debye):
    X=             -3.9939    Y=             -0.8273    Z=              0.0083  Tot=              4.0787
 Quadrupole moment (field-independent basis, Debye-Ang):
   XX=           -522.5052   YY=           -549.3251   ZZ=           -447.5651
   XY=             21.8929   XZ=             62.2291   YZ=            -44.6903

 Normal termination of Gaussian 16 at Sat Sep 11 06:57:34 2021.
