 Gaussian 16, Revision A.03,
 Gaussian 16:  ES64L-G16RevA.03 25-Dec-2016

 -----------------------------------
 #p cam-b3lyp/Def2SVP td=(nstates=5)
 -----------------------------------

 --------------------------------
 TDDFT excited states in gaussian
 --------------------------------
 Symbolic Z-matrix:
 Charge =  0 Multiplicity = 1

                         Standard orientation:
 ---------------------------------------------------------------------
 Center     Atomic      Atomic             Coordinates (Angstroms)
 Number     Number       Type             X           Y           Z
 ---------------------------------------------------------------------
      1         12           0       -7.796906   -0.953894    0.117890
      2          6           0       -8.433556    2.568181    0.161224
      3          6           0       -8.717971   -0.929255   -3.167547
      4          6           0       -7.680078   -4.122465    0.173839
      5          6           0       -8.029700   -0.889316    3.594570
      6          7           0       -8.468646    0.675588   -1.221587
      7          6           0       -8.612628    1.991333   -1.098071
      8          6           0       -8.898113    2.711209   -2.449978
      9          6           0       -9.514994    1.485826   -3.262315
     10          6           0       -8.833829    0.342307   -2.531355
     11          6           0      -11.024725    1.344000   -3.097701
     12          6           0       -7.591224    3.246803   -3.125930
     13          6           0       -7.807923    4.237987   -4.273078
     14          1           0       -6.860103    5.328655   -4.444629
     15          7           0       -7.672897   -2.257688   -1.361160
     16          6           0       -8.081774   -2.073502   -2.639511
     17          6           0       -7.773972   -3.332589   -3.351298
     18          6           0       -7.327393   -4.329892   -2.339346
     19          6           0       -7.570407   -3.608681   -1.116163
     20          6           0       -7.867339   -3.480785   -4.838937
     21          6           0       -6.779891   -5.717274   -2.455736
     22          8           0       -6.673890   -6.493629   -1.445484
     23          6           0       -6.449095   -6.181049   -3.815342
     24          7           0       -8.064101   -2.358101    1.639220
     25          6           0       -7.900469   -3.665330    1.408222
     26          6           0       -7.862510   -4.445530    2.688764
     27          6           0       -7.790899   -3.365353    3.862579
     28          6           0       -7.888013   -2.078988    3.005780
     29          6           0       -9.049259   -5.387631    2.933883
     30          6           0       -6.618839   -3.495521    4.867443
     31          6           0       -5.309616   -3.202049    4.169655
     32          7           0       -7.988029    0.574639    1.646977
     33          6           0       -8.089838    0.374380    3.031248
     34          6           0       -8.310440    1.697216    3.644034
     35          6           0       -8.338367    2.578775    2.565184
     36          6           0       -8.173552    1.849364    1.353125
     37          6           0       -8.513052    1.950573    5.029384
     38          6           0       -8.493734    3.964230    2.152591
     39          8           0       -8.569987    5.041928    2.744406
     40          6           0       -8.683469    3.998027    0.571868
     41          6           0       -7.764726    5.057105    0.026363
     42          8           0       -6.525614    4.920285    0.083346
     43          8           0       -8.479867    5.943537   -0.683112
     44          6           0       -7.624079    7.005199   -1.276961
     45          1           0       -9.208052   -1.084146   -4.130755
     46          1           0       -7.534333   -5.202128    0.248160
     47          1           0       -8.027329   -0.780721    4.680689
     48          1           0       -9.625217    3.521158   -2.388928
     49          1           0       -9.213799    1.498991   -4.309612
     50          1           0      -11.409777    2.031839   -2.345017
     51          1           0      -11.188095    0.311331   -2.788836
     52          1           0      -11.530964    1.453448   -4.057138
     53          1           0       -7.109653    2.434842   -3.670789
     54          1           0       -6.928268    3.693343   -2.384029
     55          1           0       -8.830843    4.615318   -4.285914
     56          1           0       -7.706479    3.698173   -5.214624
     57          1           0       -8.380259   -2.634558   -5.294304
     58          1           0       -8.520455   -4.331176   -5.033831
     59          1           0       -6.892888   -3.653281   -5.296125
     60          1           0       -7.343912   -6.141185   -4.436842
     61          1           0       -5.987889   -7.160670   -3.694999
     62          1           0       -5.735187   -5.487725   -4.260973
     63          1           0       -6.978877   -5.080834    2.733563
     64          1           0       -8.682331   -3.383467    4.490030
     65          1           0       -8.758310   -6.426424    3.091885
     66          1           0       -9.731700   -5.296787    2.089306
     67          1           0       -9.694152   -5.103715    3.765100
     68          1           0       -6.557728   -4.514231    5.248811
     69          1           0       -6.709019   -2.825984    5.722918
     70          1           0       -5.059339   -4.157437    3.709843
     71          1           0       -4.550165   -2.906712    4.894377
     72          1           0       -5.440741   -2.477790    3.365453
     73          1           0       -7.914686    2.829374    5.269458
     74          1           0       -8.219631    1.093870    5.635657
     75          1           0       -9.588561    2.126108    5.047374
     76          1           0       -9.731719    4.230562    0.386876
     77          1           0       -8.020452    7.963010   -0.939737
     78          1           0       -7.598339    6.818015   -2.350601
     79          1           0       -6.600587    7.063570   -0.904945
     80         12           0        7.966426    0.981195   -0.048715
     81          6           0        8.192498   -2.580438   -0.426460
     82          6           0        7.185969    0.434348    3.226417
     83          6           0        7.319512    4.076590    0.210931
     84          6           0        7.633561    1.187927   -3.511677
     85          7           0        7.748701   -0.877673    1.130038
     86          6           0        7.919002   -2.169995    0.894970
     87          6           0        7.868291   -3.066244    2.161347
     88          6           0        6.994654   -2.102563    3.103134
     89          6           0        7.353927   -0.756955    2.476298
     90          6           0        5.496947   -2.313453    2.955780
     91          6           0        9.292104   -3.325259    2.767717
     92          6           0        9.351630   -4.437691    3.816870
     93          1           0       10.545258   -5.276981    3.874444
     94          7           0        7.826233    2.133280    1.561139
     95          6           0        7.522465    1.743321    2.816904
     96          6           0        7.526509    2.968774    3.630795
     97          6           0        7.695318    4.134996    2.721872
     98          6           0        7.597225    3.480699    1.432545
     99          6           0        7.458951    2.949911    5.130293
    100          6           0        7.897169    5.598905    2.971716
    101          8           0        7.781318    6.464369    2.033424
    102          6           0        8.142285    5.998464    4.365183
    103          7           0        7.327221    2.407848   -1.419270
    104          6           0        7.173358    3.693729   -1.057672
    105          6           0        6.976173    4.579862   -2.264439
    106          6           0        7.272272    3.651235   -3.532336
    107          6           0        7.512905    2.307027   -2.810805
    108          6           0        5.590973    5.209982   -2.407848
    109          6           0        8.345141    4.153215   -4.537133
    110          6           0        9.709730    4.135518   -3.886773
    111          7           0        8.101735   -0.394561   -1.709139
    112          6           0        7.902103   -0.103529   -3.076453
    113          6           0        7.986609   -1.382653   -3.810699
    114          6           0        8.208391   -2.339749   -2.809062
    115          6           0        8.238436   -1.704727   -1.538104
    116          6           0        7.815177   -1.549283   -5.213896
    117          6           0        8.413330   -3.744243   -2.536861
    118          8           0        8.571550   -4.749148   -3.228868
    119          6           0        8.286054   -3.979157   -0.970020
    120          6           0        9.449840   -4.825020   -0.531116
    121          8           0       10.611546   -4.386556   -0.600379
    122          8           0        8.986037   -5.920867    0.096869
    123          6           0       10.103295   -6.785986    0.560678
    124          1           0        6.712693    0.367977    4.206469
    125          1           0        7.198337    5.162109    0.232547
    126          1           0        7.638107    1.180692   -4.603742
    127          1           0        7.361238   -4.014189    2.026972
    128          1           0        7.333771   -2.145247    4.134900
    129          1           0        5.263362   -2.996745    2.152854
    130          1           0        5.080660   -1.335309    2.753321
    131          1           0        5.065714   -2.633137    3.908762
    132          1           0        9.578729   -2.466367    3.388111
    133          1           0       10.006617   -3.521451    1.992078
    134          1           0        8.446319   -5.056831    3.812965
    135          1           0        9.358531   -3.979244    4.808731
    136          1           0        7.173616    1.960183    5.507681
    137          1           0        6.627846    3.601477    5.421155
    138          1           0        8.375448    3.316088    5.597863
    139          1           0        7.306635    5.680845    4.984263
    140          1           0        8.350562    7.069557    4.329740
    141          1           0        9.026262    5.464818    4.731821
    142          1           0        7.680537    5.402623   -2.259302
    143          1           0        6.376906    3.516770   -4.156892
    144          1           0        5.617777    6.314526   -2.465654
    145          1           0        4.981327    4.887509   -1.574251
    146          1           0        5.013131    4.865185   -3.263667
    147          1           0        8.147296    5.191335   -4.815202
    148          1           0        8.381544    3.575403   -5.454630
    149          1           0        9.732170    5.079780   -3.334543
    150          1           0       10.493191    4.100719   -4.641117
    151          1           0        9.786165    3.323442   -3.154413
    152          1           0        8.591305   -2.226840   -5.544087
    153          1           0        7.868986   -0.596731   -5.736887
    154          1           0        6.808317   -1.974614   -5.238219
    155          1           0        7.330242   -4.472454   -0.789290
    156          1           0        9.934957   -7.780395    0.135826
    157          1           0       10.106849   -6.703541    1.663824
    158          1           0       11.096945   -6.563067    0.189980
 ---------------------------------------------------------------------

 SCF Done:  E(RCAM-B3LYP) =  -4069.81179694     A.U. after   19 cycles

 Excitation energies and oscillator strengths:

 Excited State   1:      Singlet-A      1.6700 eV  742.42 nm  f=0.0190  <S**2>=0.000
     309 -> 315        0.10290
     310 -> 316        0.13852
     311 -> 313        0.40815
     312 -> 314        0.55183
 This state for optimization and/or second-order correction.
 Total Energy, E(TD-HF/TD-DFT) =  -4069.75042554
 Copying the excited state density for this state as the 1-particle RhoCI density.

 Excited State   2:      Singlet-A      1.6855 eV  735.58 nm  f=0.7377  <S**2>=0.000
     309 -> 315        0.14229
     310 -> 316       -0.10477
     311 -> 313        0.55099
     312 -> 314       -0.40761

 Excited State   3:      Singlet-A      2.1858 eV  567.22 nm  f=0.0565  <S**2>=0.000
     309 -> 313        0.14339
     310 -> 314        0.62657
     312 -> 316       -0.26588

 Excited State   4:      Singlet-A      2.1933 eV  565.30 nm  f=0.1366  <S**2>=0.000
     309 -> 313        0.62453
     310 -> 314       -0.14231
     311 -> 315       -0.27164

 Excited State   5:      Singlet-A      2.7659 eV  448.26 nm  f=0.0000  <S**2>=0.000
     312 -> 313        0.70710

 The electronic state is 1-A.
 Alpha  occ. eigenvalues --  -46.87835 -46.87590 -19.26312 -19.26301 -19.19111
 Alpha  occ. eigenvalues --  -19.19050 -19.18838 -19.18632 -19.18205 -19.17993
 Alpha  occ. eigenvalues --  -14.42486 -14.42426 -14.41490 -14.41289 -14.39439
 Alpha  occ. eigenvalues --  -14.39280 -14.38626 -14.38532 -10.39110 -10.39039
 Alpha  occ. eigenvalues --  -10.35470 -10.35309 -10.34425 -10.34171 -10.31714
 Alpha  occ. eigenvalues --  -10.31702 -10.31442 -10.31242 -10.30949 -10.30941
 Alpha  occ. eigenvalues --  -10.30608 -10.30547 -10.30330 -10.30295 -10.30248
 Alpha  occ. eigenvalues --  -10.30067 -10.29965 -10.29827 -10.29667 -10.29363
 Alpha  occ. eigenvalues --  -10.29333 -10.29290 -10.28777 -10.28651 -10.28601
 Alpha  occ. eigenvalues --  -10.28561 -10.28399 -10.28334 -10.28145 -10.28068
 Alpha  occ. eigenvalues --  -10.27933 -10.27829 -10.27763 -10.27618 -10.27597
 Alpha  occ. eigenvalues --  -10.27557 -10.27501 -10.27500 -10.27453 -10.27439
 Alpha  occ. eigenvalues --  -10.27414 -10.27395 -10.27381 -10.27303 -10.27191
 Alpha  occ. eigenvalues --  -10.26991 -10.26732 -10.26633 -10.26415 -10.26325
 Alpha  occ. eigenvalues --  -10.26261 -10.26260 -10.26087 -10.26063 -10.25941
 Alpha  occ. eigenvalues --  -10.25893 -10.25868 -10.25810 -10.25482 -10.25306
 Alpha  occ. eigenvalues --  -10.24869 -10.24827 -10.24807 -10.24778 -10.24683
 Alpha  occ. eigenvalues --  -10.24617  -3.16578  -3.16340  -1.91460  -1.91222
 Alpha  occ. eigenvalues --   -1.91046  -1.90888  -1.90810  -1.90647  -1.16661
 Alpha  occ. eigenvalues --   -1.16595  -1.08663  -1.08602  -1.07239  -1.06895
 Alpha  occ. eigenvalues --   -1.06883  -1.06673  -1.04617  -1.04424  -1.03800
 Alpha  occ. eigenvalues --   -1.03593  -1.03272  -1.02969  -1.02450  -1.02041
 Alpha  occ. eigenvalues --   -0.92008  -0.91921  -0.89570  -0.89429  -0.89218
 Alpha  occ. eigenvalues --   -0.89082  -0.88336  -0.88152  -0.87911  -0.87735
 Alpha  occ. eigenvalues --   -0.87709  -0.87615  -0.87301  -0.87042  -0.85014
 Alpha  occ. eigenvalues --   -0.84931  -0.83990  -0.83811  -0.82995  -0.82853
 Alpha  occ. eigenvalues --   -0.82679  -0.82582  -0.81619  -0.81539  -0.80630
 Alpha  occ. eigenvalues --   -0.80378  -0.78829  -0.78564  -0.77259  -0.77078
 Alpha  occ. eigenvalues --   -0.76970  -0.76835  -0.75956  -0.75773  -0.74943
 Alpha  occ. eigenvalues --   -0.74731  -0.72814  -0.72633  -0.71709  -0.71509
 Alpha  occ. eigenvalues --   -0.69968  -0.69696  -0.68905  -0.68759  -0.67676
 Alpha  occ. eigenvalues --   -0.67534  -0.67247  -0.67132  -0.65320  -0.65206
 Alpha  occ. eigenvalues --   -0.64892  -0.64705  -0.64659  -0.64589  -0.64317
 Alpha  occ. eigenvalues --   -0.64138  -0.62332  -0.62221  -0.60475  -0.60265
 Alpha  occ. eigenvalues --   -0.59837  -0.59728  -0.59026  -0.58925  -0.58541
 Alpha  occ. eigenvalues --   -0.58359  -0.57619  -0.57496  -0.57348  -0.57169
 Alpha  occ. eigenvalues --   -0.56345  -0.56139  -0.56008  -0.55828  -0.55550
 Alpha  occ. eigenvalues --   -0.55386  -0.55384  -0.55185  -0.54566  -0.54428
 Alpha  occ. eigenvalues --   -0.53925  -0.53844  -0.53334  -0.53250  -0.53160
 Alpha  occ. eigenvalues --   -0.53074  -0.52951  -0.52839  -0.52781  -0.52589
 Alpha  occ. eigenvalues --   -0.52502  -0.52345  -0.51959  -0.51835  -0.51644
 Alpha  occ. eigenvalues --   -0.51590  -0.51236  -0.51140  -0.50594  -0.50394
 Alpha  occ. eigenvalues --   -0.50081  -0.49946  -0.49906  -0.49795  -0.49543
 Alpha  occ. eigenvalues --   -0.49415  -0.49247  -0.49135  -0.49127  -0.49039
 Alpha  occ. eigenvalues --   -0.48628  -0.48503  -0.48495  -0.48473  -0.48308
 Alpha  occ. eigenvalues --   -0.48263  -0.47729  -0.47525  -0.47330  -0.47044
 Alpha  occ. eigenvalues --   -0.46839  -0.46644  -0.46585  -0.46485  -0.46398
 Alpha  occ. eigenvalues --   -0.46204  -0.46203  -0.46022  -0.45860  -0.45766
 Alpha  occ. eigenvalues --   -0.45247  -0.45134  -0.44615  -0.44539  -0.44453
 Alpha  occ. eigenvalues --   -0.44408  -0.44188  -0.44120  -0.44060  -0.44050
 Alpha  occ. eigenvalues --   -0.44012  -0.43868  -0.43530  -0.43496  -0.43423
 Alpha  occ. eigenvalues --   -0.43318  -0.43065  -0.42873  -0.42839  -0.42740
 Alpha  occ. eigenvalues --   -0.42701  -0.42486  -0.42058  -0.41903  -0.41741
 Alpha  occ. eigenvalues --   -0.41604  -0.41566  -0.41393  -0.41177  -0.40918
 Alpha  occ. eigenvalues --   -0.40908  -0.40848  -0.40652  -0.40626  -0.40619
 Alpha  occ. eigenvalues --   -0.40427  -0.40261  -0.40160  -0.39506  -0.39366
 Alpha  occ. eigenvalues --   -0.38517  -0.38281  -0.37779  -0.37591  -0.37366
 Alpha  occ. eigenvalues --   -0.37295  -0.37199  -0.37132  -0.36749  -0.36717
 Alpha  occ. eigenvalues --   -0.36232  -0.36152  -0.34324  -0.34185  -0.33808
 Alpha  occ. eigenvalues --   -0.33802  -0.33224  -0.33107  -0.31369  -0.31192
 Alpha  occ. eigenvalues --   -0.31072  -0.30902  -0.30064  -0.29899  -0.29483
 Alpha  occ. eigenvalues --   -0.29359  -0.29255  -0.29146  -0.24119  -0.23966
 Alpha  occ. eigenvalues --   -0.21166  -0.21047
 Alpha virt. eigenvalues --   -0.08810  -0.08722  -0.01788  -0.01612  -0.00087
 Alpha virt. eigenvalues --    0.00046   0.02163   0.02270   0.03074   0.03289
 Alpha virt. eigenvalues --    0.04683   0.04799   0.05067   0.05218   0.06149

 Mulliken charges:
               1
     1  Mg   0.838584
     2  C   -0.002919
     3  C   -0.093995
     4  C   -0.045930
     5  C   -0.064058
     6  N   -0.256783
     7  C   -0.052483
     8  C   -0.014008
     9  C   -0.087014
    10  C    0.046329
    11  C    0.104778
    12  C    0.053449
    13  C   -0.071850
    14  H    0.036167
    15  N   -0.433182
    16  C    0.168437
    17  C   -0.177000
    18  C   -0.003918
    19  C    0.148738
    20  C    0.110134
    21  C    0.012363
    22  O   -0.249611
    23  C    0.062419
    24  N   -0.341086
    25  C    0.041242
    26  C   -0.028220
    27  C   -0.023855
    28  C    0.074682
    29  C    0.076139
    30  C    0.035203
    31  C   -0.004429
    32  N   -0.310423
    33  C    0.080270
    34  C   -0.169937
    35  C    0.008354
    36  C    0.082878
    37  C    0.127369
    38  C    0.046048
    39  O   -0.188477
    40  C   -0.005314
    41  C    0.212903
    42  O   -0.257173
    43  O   -0.304778
    44  C    0.157653
    45  H   -0.017426
    46  H   -0.016808
    47  H   -0.041741
    48  H    0.000993
    49  H   -0.003919
    50  H    0.025497
    51  H    0.016458
    52  H    0.016789
    53  H    0.011208
    54  H    0.044078
    55  H    0.017929
    56  H    0.018020
    57  H    0.005949
    58  H    0.026992
    59  H    0.039837
    60  H    0.037414
    61  H    0.035949
    62  H    0.031703
    63  H    0.016438
    64  H    0.009468
    65  H    0.023229
    66  H    0.012711
    67  H    0.004748
    68  H    0.006252
    69  H    0.004533
    70  H    0.008786
    71  H    0.017371
    72  H    0.029154
    73  H    0.047378
    74  H    0.008839
    75  H    0.046067
    76  H    0.035218
    77  H    0.043020
    78  H    0.046450
    79  H    0.053721
    80  Mg   0.837920
    81  C   -0.016846
    82  C   -0.087672
    83  C   -0.045227
    84  C   -0.064910
    85  N   -0.254572
    86  C   -0.049873
    87  C   -0.015107
    88  C   -0.090522
    89  C    0.045804
    90  C    0.114302
    91  C    0.062538
    92  C   -0.077827
    93  H    0.034663
    94  N   -0.423595
    95  C    0.163022
    96  C   -0.174250
    97  C   -0.007562
    98  C    0.152195
    99  C    0.099198
   100  C    0.015774
   101  O   -0.253010
   102  C    0.061163
   103  N   -0.349990
   104  C    0.037662
   105  C   -0.019932
   106  C   -0.034686
   107  C    0.088880
   108  C    0.073505
   109  C    0.034782
   110  C   -0.007645
   111  N   -0.324043
   112  C    0.078361
   113  C   -0.163365
   114  C    0.002149
   115  C    0.096121
   116  C    0.131523
   117  C    0.042204
   118  O   -0.188273
   119  C    0.000969
   120  C    0.211192
   121  O   -0.251105
   122  O   -0.305589
   123  C    0.152092
   124  H   -0.019388
   125  H   -0.015335
   126  H   -0.040800
   127  H   -0.000683
   128  H   -0.004398
   129  H    0.022501
   130  H    0.014894
   131  H    0.016305
   132  H    0.013890
   133  H    0.037578
   134  H    0.020805
   135  H    0.019582
   136  H    0.008793
   137  H    0.026760
   138  H    0.039717
   139  H    0.038646
   140  H    0.036458
   141  H    0.033681
   142  H    0.014299
   143  H    0.012248
   144  H    0.025166
   145  H    0.012474
   146  H    0.005593
   147  H    0.006141
   148  H    0.003348
   149  H    0.010964
   150  H    0.017688
   151  H    0.030171
   152  H    0.045761
   153  H    0.008285
   154  H    0.046639
   155  H    0.035037
   156  H    0.043786
   157  H    0.049511
   158  H    0.053467
 Sum of Mulliken charges =  -0.00000

 Dipole moment (field-independent basis, Debye):
    X=             -3.9619    Y=             -0.9452    Z=              0.0676  Tot=              4.0736
 Quadrupole moment (field-independent basis, Debye-Ang):
   XX=           -521.3341   YY=           -550.1558   ZZ=           -447.5565
   XY=             23.7061   XZ=             70.0636   YZ=            -46.0752

 Normal termination of Gaussian 16 at Sat Sep  4 13:18:26 2021.
