 Gaussian 16, Revision A.03,
 Gaussian 16:  ES64L-G16RevA.03 25-Dec-2016

 -----------------------------------
 #p cam-b3lyp/Def2SVP td=(nstates=5)
 -----------------------------------

 --------------------------------
 TDDFT excited states in gaussian
 --------------------------------
 Symbolic Z-matrix:
 Charge =  0 Multiplicity = 1

                         Standard orientation:
 ---------------------------------------------------------------------
 Center     Atomic      Atomic             Coordinates (Angstroms)
 Number     Number       Type             X           Y           Z
 ---------------------------------------------------------------------
      1         12           0        6.598867   -0.632670    0.509078
      2          6           0        6.984124    1.957075   -1.931621
      3          6           0        7.289367    1.712763    2.889251
      4          6           0        6.712454   -2.982098    2.636026
      5          6           0        7.063281   -2.929611   -2.070464
      6          7           0        7.059638    1.528230    0.371789
      7          6           0        7.117493    2.413352   -0.618354
      8          6           0        7.257933    3.884368   -0.124630
      9          6           0        7.903749    3.608881    1.306812
     10          6           0        7.357389    2.214028    1.555408
     11          6           0        9.427458    3.542942    1.285289
     12          6           0        5.873076    4.604239    0.000612
     13          6           0        5.939692    6.125992    0.159311
     14          1           0        4.906991    6.940820   -0.462727
     15          7           0        6.467489   -0.584346    2.479676
     16          6           0        6.773953    0.459965    3.286385
     17          6           0        6.508873    0.000266    4.666635
     18          6           0        6.204707   -1.456588    4.610494
     19          6           0        6.478597   -1.741825    3.225214
     20          6           0        6.510790    0.914653    5.853076
     21          6           0        5.750900   -2.438398    5.644052
     22          8           0        5.769770   -3.700101    5.438321
     23          6           0        5.361978   -1.882105    6.952608
     24          7           0        7.068789   -2.661153    0.360545
     25          6           0        6.983435   -3.468865    1.423231
     26          6           0        7.088742   -4.910642    1.023071
     27          6           0        7.020568   -4.932793   -0.572114
     28          6           0        6.966951   -3.406259   -0.827245
     29          6           0        8.353630   -5.644131    1.490046
     30          6           0        5.932126   -5.827070   -1.217080
     31          6           0        4.560727   -5.268300   -0.910261
     32          7           0        6.784417   -0.545310   -1.651705
     33          6           0        6.994522   -1.622972   -2.524159
     34          6           0        7.161521   -1.058216   -3.875910
     35          6           0        7.052771    0.318836   -3.692205
     36          6           0        6.858041    0.598269   -2.309350
     37          6           0        7.439652   -1.797416   -5.059405
     38          6           0        7.080380    1.620642   -4.339039
     39          8           0        7.119790    2.007497   -5.507921
     40          6           0        7.158856    2.740006   -3.209131
     41          6           0        6.131813    3.789352   -3.536797
     42          8           0        4.912406    3.528909   -3.485976
     43          8           0        6.731788    4.986335   -3.625134
     44          6           0        5.763906    6.076682   -3.919248
     45          1           0        7.722340    2.304447    3.698192
     46          1           0        6.649511   -3.830722    3.320360
     47          1           0        7.127328   -3.590416   -2.936887
     48          1           0        7.927876    4.502473   -0.722583
     49          1           0        7.531585    4.301661    2.061314
     50          1           0        9.812951    3.567805    0.266124
     51          1           0        9.684780    2.599278    1.766722
     52          1           0        9.857913    4.325515    1.910641
     53          1           0        5.414579    4.338276    0.953033
     54          1           0        5.232158    4.357830   -0.846638
     55          1           0        6.929821    6.509602   -0.088473
     56          1           0        5.812968    6.365140    1.215223
     57          1           0        6.929749    1.889500    5.606720
     58          1           0        7.208069    0.494586    6.577683
     59          1           0        5.522191    1.004477    6.303561
     60          1           0        6.207147   -1.341726    7.379492
     61          1           0        4.981122   -2.720594    7.534618
     62          1           0        4.571678   -1.145996    6.802547
     63          1           0        6.257804   -5.489500    1.424183
     64          1           0        7.951774   -5.285071   -1.016443
     65          1           0        8.148991   -6.534394    2.085243
     66          1           0        8.968594   -4.935855    2.044532
     67          1           0        9.031868   -5.940248    0.690219
     68          1           0        5.970019   -6.832123   -0.798298
     69          1           0        6.032512   -5.914581   -2.298984
     70          1           0        4.348431   -5.673425    0.078494
     71          1           0        3.833399   -5.622289   -1.641627
     72          1           0        4.584643   -4.182201   -0.819137
     73          1           0        6.797913   -1.382081   -5.836345
     74          1           0        7.250168   -2.860926   -4.915722
     75          1           0        8.498612   -1.576066   -5.191555
     76          1           0        8.172766    3.138219   -3.232268
     77          1           0        6.113043    6.581444   -4.820110
     78          1           0        5.678344    6.669176   -3.008185
     79          1           0        4.766651    5.764739   -4.231517
     80         12           0       -6.584153   -0.651915   -0.505864
     81          6           0       -7.062347    1.930514    1.939834
     82          6           0       -7.211155    1.700933   -2.894491
     83          6           0       -6.614697   -2.985640   -2.655337
     84          6           0       -7.125368   -2.970280    2.039324
     85          7           0       -7.061481    1.503553   -0.370306
     86          6           0       -7.155742    2.389788    0.609513
     87          6           0       -7.281495    3.862380    0.134917
     88          6           0       -7.886109    3.592702   -1.328155
     89          6           0       -7.326461    2.192270   -1.569578
     90          6           0       -9.403417    3.510408   -1.346519
     91          6           0       -5.891493    4.586212    0.057547
     92          6           0       -5.966023    6.106644   -0.098976
     93          1           0       -4.951200    6.924698    0.559354
     94          7           0       -6.385921   -0.582939   -2.479320
     95          6           0       -6.664767    0.459967   -3.289180
     96          6           0       -6.369892   -0.000998   -4.654736
     97          6           0       -6.051321   -1.453700   -4.600893
     98          6           0       -6.365455   -1.741296   -3.215728
     99          6           0       -6.329524    0.925298   -5.835306
    100          6           0       -5.559152   -2.426244   -5.629543
    101          8           0       -5.578228   -3.691200   -5.423748
    102          6           0       -5.141434   -1.859859   -6.920361
    103          7           0       -7.041629   -2.676245   -0.382820
    104          6           0       -6.923191   -3.478217   -1.455547
    105          6           0       -7.037737   -4.932381   -1.064782
    106          6           0       -7.016027   -4.950560    0.534215
    107          6           0       -6.980967   -3.430255    0.804117
    108          6           0       -8.285924   -5.659262   -1.564835
    109          6           0       -5.944437   -5.846736    1.213355
    110          6           0       -4.563692   -5.291208    0.948199
    111          7           0       -6.833065   -0.577186    1.639018
    112          6           0       -7.074042   -1.663769    2.508124
    113          6           0       -7.286489   -1.102660    3.858106
    114          6           0       -7.176305    0.284003    3.675064
    115          6           0       -6.933783    0.568302    2.303983
    116          6           0       -7.588818   -1.849746    5.031384
    117          6           0       -7.220567    1.572523    4.328104
    118          8           0       -7.305990    1.952424    5.495207
    119          6           0       -7.274487    2.703062    3.212148
    120          6           0       -6.262122    3.756735    3.569109
    121          8           0       -5.046848    3.492764    3.565015
    122          8           0       -6.876949    4.951224    3.643627
    123          6           0       -5.911958    6.030358    3.984347
    124          1           0       -7.615202    2.303641   -3.708355
    125          1           0       -6.527011   -3.835481   -3.336189
    126          1           0       -7.202457   -3.633155    2.903809
    127          1           0       -7.966742    4.469436    0.714317
    128          1           0       -7.486314    4.293811   -2.056143
    129          1           0       -9.820007    3.529292   -0.350407
    130          1           0       -9.641439    2.576431   -1.838521
    131          1           0       -9.816063    4.299400   -1.981784
    132          1           0       -5.403233    4.323521   -0.889727
    133          1           0       -5.285735    4.339739    0.907808
    134          1           0       -6.969676    6.494238    0.114082
    135          1           0       -5.799971    6.355857   -1.149851
    136          1           0       -6.767943    1.901876   -5.595542
    137          1           0       -6.999153    0.505819   -6.593927
    138          1           0       -5.328593    1.021087   -6.261505
    139          1           0       -5.974254   -1.319510   -7.364082
    140          1           0       -4.738024   -2.698785   -7.490759
    141          1           0       -4.349501   -1.124413   -6.739857
    142          1           0       -6.192371   -5.499832   -1.434185
    143          1           0       -7.964070   -5.321823    0.950378
    144          1           0       -8.055560   -6.557136   -2.168852
    145          1           0       -8.882580   -4.959966   -2.135390
    146          1           0       -8.979670   -5.974096   -0.787156
    147          1           0       -5.962778   -6.851092    0.783132
    148          1           0       -6.085146   -5.952342    2.283886
    149          1           0       -4.323048   -5.690260   -0.041713
    150          1           0       -3.858397   -5.643836    1.698047
    151          1           0       -4.588265   -4.198371    0.866013
    152          1           0       -6.980807   -1.439768    5.826834
    153          1           0       -7.394832   -2.910699    4.888150
    154          1           0       -8.656860   -1.637146    5.128164
    155          1           0       -8.290299    3.099877    3.196643
    156          1           0       -6.295579    6.531415    4.878468
    157          1           0       -5.811930    6.641961    3.068000
    158          1           0       -4.924036    5.732941    4.316024
 ---------------------------------------------------------------------

 SCF Done:  E(RCAM-B3LYP) =  -4069.81196304     A.U. after   19 cycles

 Excitation energies and oscillator strengths:

 Excited State   1:      Singlet-A      1.6661 eV  744.17 nm  f=0.0099  <S**2>=0.000
     309 -> 315        0.10951
     310 -> 316        0.13218
     311 -> 313        0.52967
     312 -> 314        0.43691
 This state for optimization and/or second-order correction.
 Total Energy, E(TD-HF/TD-DFT) =  -4069.75073573
 Copying the excited state density for this state as the 1-particle RhoCI density.

 Excited State   2:      Singlet-A      1.6893 eV  733.94 nm  f=0.7352  <S**2>=0.000
     309 -> 315        0.13734
     310 -> 316       -0.11279
     311 -> 313       -0.43604
     312 -> 314        0.52850

 Excited State   3:      Singlet-A      2.1859 eV  567.19 nm  f=0.0428  <S**2>=0.000
     309 -> 314       -0.19478
     310 -> 313        0.61281
     311 -> 316       -0.25978

 Excited State   4:      Singlet-A      2.1937 eV  565.17 nm  f=0.1467  <S**2>=0.000
     309 -> 314        0.61049
     310 -> 313        0.19330
     312 -> 315       -0.26596

 Excited State   5:      Singlet-A      2.7104 eV  457.44 nm  f=0.0000  <S**2>=0.000
     312 -> 313        0.70710

 The electronic state is 1-A.
 Alpha  occ. eigenvalues --  -46.87669 -46.87565 -19.26324 -19.26230 -19.19126
 Alpha  occ. eigenvalues --  -19.18956 -19.18666 -19.18594 -19.18075 -19.17986
 Alpha  occ. eigenvalues --  -14.42405 -14.42326 -14.41326 -14.41269 -14.39272
 Alpha  occ. eigenvalues --  -14.39253 -14.38509 -14.38465 -10.39053 -10.39013
 Alpha  occ. eigenvalues --  -10.35297 -10.35269 -10.34296 -10.34165 -10.31753
 Alpha  occ. eigenvalues --  -10.31648 -10.31290 -10.31226 -10.30928 -10.30784
 Alpha  occ. eigenvalues --  -10.30450 -10.30385 -10.30307 -10.30273 -10.30076
 Alpha  occ. eigenvalues --  -10.30042 -10.29812 -10.29804 -10.29505 -10.29336
 Alpha  occ. eigenvalues --  -10.29306 -10.29123 -10.28638 -10.28638 -10.28586
 Alpha  occ. eigenvalues --  -10.28442 -10.28312 -10.28241 -10.28059 -10.28005
 Alpha  occ. eigenvalues --  -10.27910 -10.27671 -10.27603 -10.27576 -10.27452
 Alpha  occ. eigenvalues --  -10.27433 -10.27396 -10.27381 -10.27365 -10.27334
 Alpha  occ. eigenvalues --  -10.27330 -10.27320 -10.27295 -10.27286 -10.27068
 Alpha  occ. eigenvalues --  -10.26990 -10.26606 -10.26590 -10.26256 -10.26227
 Alpha  occ. eigenvalues --  -10.26133 -10.26061 -10.26052 -10.25955 -10.25896
 Alpha  occ. eigenvalues --  -10.25844 -10.25788 -10.25747 -10.25330 -10.25327
 Alpha  occ. eigenvalues --  -10.24786 -10.24716 -10.24665 -10.24633 -10.24600
 Alpha  occ. eigenvalues --  -10.24551  -3.16412  -3.16314  -1.91293  -1.91197
 Alpha  occ. eigenvalues --   -1.90880  -1.90785  -1.90722  -1.90622  -1.16616
 Alpha  occ. eigenvalues --   -1.16576  -1.08598  -1.08537  -1.07066  -1.06911
 Alpha  occ. eigenvalues --   -1.06845  -1.06579  -1.04459  -1.04403  -1.03637
 Alpha  occ. eigenvalues --   -1.03570  -1.03109  -1.02947  -1.02288  -1.02020
 Alpha  occ. eigenvalues --   -0.91906  -0.91860  -0.89407  -0.89398  -0.89076
 Alpha  occ. eigenvalues --   -0.89069  -0.88167  -0.88135  -0.87758  -0.87713
 Alpha  occ. eigenvalues --   -0.87594  -0.87551  -0.87129  -0.87003  -0.84915
 Alpha  occ. eigenvalues --   -0.84867  -0.83820  -0.83794  -0.82819  -0.82815
 Alpha  occ. eigenvalues --   -0.82561  -0.82531  -0.81536  -0.81496  -0.80484
 Alpha  occ. eigenvalues --   -0.80364  -0.78664  -0.78533  -0.77100  -0.77057
 Alpha  occ. eigenvalues --   -0.76832  -0.76827  -0.75821  -0.75765  -0.74786
 Alpha  occ. eigenvalues --   -0.74724  -0.72655  -0.72612  -0.71559  -0.71500
 Alpha  occ. eigenvalues --   -0.69785  -0.69671  -0.68756  -0.68741  -0.67522
 Alpha  occ. eigenvalues --   -0.67514  -0.67104  -0.67096  -0.65192  -0.65175
 Alpha  occ. eigenvalues --   -0.64745  -0.64690  -0.64578  -0.64511  -0.64150
 Alpha  occ. eigenvalues --   -0.64120  -0.62223  -0.62213  -0.60306  -0.60234
 Alpha  occ. eigenvalues --   -0.59711  -0.59689  -0.58909  -0.58872  -0.58390
 Alpha  occ. eigenvalues --   -0.58345  -0.57494  -0.57492  -0.57192  -0.57148
 Alpha  occ. eigenvalues --   -0.56192  -0.56119  -0.55897  -0.55827  -0.55393
 Alpha  occ. eigenvalues --   -0.55362  -0.55236  -0.55176  -0.54428  -0.54422
 Alpha  occ. eigenvalues --   -0.53830  -0.53783  -0.53176  -0.53138  -0.53099
 Alpha  occ. eigenvalues --   -0.53056  -0.52826  -0.52811  -0.52616  -0.52550
 Alpha  occ. eigenvalues --   -0.52316  -0.52314  -0.51815  -0.51811  -0.51567
 Alpha  occ. eigenvalues --   -0.51497  -0.51126  -0.51088  -0.50413  -0.50348
 Alpha  occ. eigenvalues --   -0.49907  -0.49883  -0.49784  -0.49776  -0.49392
 Alpha  occ. eigenvalues --   -0.49389  -0.49117  -0.49100  -0.49029  -0.48990
 Alpha  occ. eigenvalues --   -0.48493  -0.48488  -0.48351  -0.48313  -0.48302
 Alpha  occ. eigenvalues --   -0.48231  -0.47575  -0.47506  -0.47175  -0.47026
 Alpha  occ. eigenvalues --   -0.46680  -0.46626  -0.46468  -0.46443  -0.46241
 Alpha  occ. eigenvalues --   -0.46183  -0.46056  -0.46012  -0.45760  -0.45730
 Alpha  occ. eigenvalues --   -0.45127  -0.45085  -0.44477  -0.44442  -0.44390
 Alpha  occ. eigenvalues --   -0.44376  -0.44048  -0.44024  -0.43990  -0.43977
 Alpha  occ. eigenvalues --   -0.43900  -0.43839  -0.43496  -0.43403  -0.43306
 Alpha  occ. eigenvalues --   -0.43269  -0.42915  -0.42878  -0.42827  -0.42622
 Alpha  occ. eigenvalues --   -0.42541  -0.42461  -0.41895  -0.41880  -0.41593
 Alpha  occ. eigenvalues --   -0.41592  -0.41420  -0.41375  -0.41027  -0.40908
 Alpha  occ. eigenvalues --   -0.40752  -0.40679  -0.40629  -0.40594  -0.40455
 Alpha  occ. eigenvalues --   -0.40411  -0.40134  -0.40116  -0.39336  -0.39316
 Alpha  occ. eigenvalues --   -0.38351  -0.38267  -0.37637  -0.37573  -0.37200
 Alpha  occ. eigenvalues --   -0.37180  -0.37148  -0.37112  -0.36727  -0.36634
 Alpha  occ. eigenvalues --   -0.36143  -0.36091  -0.34166  -0.34166  -0.33817
 Alpha  occ. eigenvalues --   -0.33695  -0.33087  -0.33067  -0.31198  -0.31156
 Alpha  occ. eigenvalues --   -0.30915  -0.30883  -0.29936  -0.29893  -0.29318
 Alpha  occ. eigenvalues --   -0.29227  -0.29202  -0.29123  -0.23959  -0.23946
 Alpha  occ. eigenvalues --   -0.21024  -0.21004
 Alpha virt. eigenvalues --   -0.08698  -0.08649  -0.01623  -0.01589   0.00075
 Alpha virt. eigenvalues --    0.00076   0.02287   0.02311   0.03280   0.03353
 Alpha virt. eigenvalues --    0.04814   0.04834   0.05170   0.05208   0.06251

 Mulliken charges:
               1
     1  Mg   0.839392
     2  C   -0.002974
     3  C   -0.093776
     4  C   -0.045815
     5  C   -0.063964
     6  N   -0.256797
     7  C   -0.052504
     8  C   -0.014092
     9  C   -0.087086
    10  C    0.046518
    11  C    0.104838
    12  C    0.053351
    13  C   -0.071599
    14  H    0.035481
    15  N   -0.433196
    16  C    0.168789
    17  C   -0.176711
    18  C   -0.003677
    19  C    0.148943
    20  C    0.110101
    21  C    0.012687
    22  O   -0.249765
    23  C    0.062183
    24  N   -0.341184
    25  C    0.041338
    26  C   -0.028161
    27  C   -0.023895
    28  C    0.074790
    29  C    0.076241
    30  C    0.035154
    31  C   -0.004532
    32  N   -0.310363
    33  C    0.080278
    34  C   -0.169942
    35  C    0.008056
    36  C    0.082919
    37  C    0.127390
    38  C    0.045822
    39  O   -0.189272
    40  C   -0.005289
    41  C    0.212721
    42  O   -0.257240
    43  O   -0.304725
    44  C    0.157981
    45  H   -0.017603
    46  H   -0.016857
    47  H   -0.041708
    48  H    0.000567
    49  H   -0.003846
    50  H    0.025272
    51  H    0.016445
    52  H    0.016536
    53  H    0.012046
    54  H    0.044002
    55  H    0.017539
    56  H    0.018285
    57  H    0.005839
    58  H    0.026661
    59  H    0.040814
    60  H    0.037094
    61  H    0.035759
    62  H    0.032784
    63  H    0.016621
    64  H    0.009199
    65  H    0.023099
    66  H    0.012477
    67  H    0.004568
    68  H    0.006125
    69  H    0.004596
    70  H    0.008741
    71  H    0.018407
    72  H    0.029217
    73  H    0.047093
    74  H    0.009091
    75  H    0.045714
    76  H    0.034920
    77  H    0.042488
    78  H    0.046502
    79  H    0.053099
    80  Mg   0.838465
    81  C   -0.016840
    82  C   -0.087441
    83  C   -0.045444
    84  C   -0.064894
    85  N   -0.254577
    86  C   -0.049890
    87  C   -0.015193
    88  C   -0.090583
    89  C    0.045956
    90  C    0.114399
    91  C    0.062376
    92  C   -0.077690
    93  H    0.034254
    94  N   -0.423565
    95  C    0.163393
    96  C   -0.174193
    97  C   -0.007414
    98  C    0.152356
    99  C    0.099284
   100  C    0.016012
   101  O   -0.253343
   102  C    0.060849
   103  N   -0.350094
   104  C    0.037621
   105  C   -0.019847
   106  C   -0.034703
   107  C    0.088833
   108  C    0.073731
   109  C    0.034768
   110  C   -0.007703
   111  N   -0.323995
   112  C    0.078275
   113  C   -0.163396
   114  C    0.001948
   115  C    0.096125
   116  C    0.131564
   117  C    0.042091
   118  O   -0.188706
   119  C    0.000967
   120  C    0.211122
   121  O   -0.251135
   122  O   -0.305570
   123  C    0.152297
   124  H   -0.019623
   125  H   -0.015585
   126  H   -0.040695
   127  H   -0.001016
   128  H   -0.004104
   129  H    0.022255
   130  H    0.014412
   131  H    0.016179
   132  H    0.014819
   133  H    0.037564
   134  H    0.020443
   135  H    0.019951
   136  H    0.008735
   137  H    0.025991
   138  H    0.041219
   139  H    0.038006
   140  H    0.036530
   141  H    0.035336
   142  H    0.014462
   143  H    0.012145
   144  H    0.025035
   145  H    0.011582
   146  H    0.005486
   147  H    0.006022
   148  H    0.003495
   149  H    0.010899
   150  H    0.018119
   151  H    0.030357
   152  H    0.045543
   153  H    0.008455
   154  H    0.046640
   155  H    0.034788
   156  H    0.043461
   157  H    0.049595
   158  H    0.053026
 Sum of Mulliken charges =  -0.00000

 Dipole moment (field-independent basis, Debye):
    X=              0.1744    Y=              3.1049    Z=              0.1238  Tot=              3.1123
 Quadrupole moment (field-independent basis, Debye-Ang):
   XX=           -474.8094   YY=           -460.6864   ZZ=           -538.0979
   XY=              0.5900   XZ=             53.0307   YZ=              0.1369

 Normal termination of Gaussian 16 at Sat Sep 11 06:34:50 2021.
