 Gaussian 16, Revision A.03,
 Gaussian 16:  ES64L-G16RevA.03 25-Dec-2016

 -----------------------------------
 #p cam-b3lyp/Def2SVP td=(nstates=5)
 -----------------------------------

 --------------------------------
 TDDFT excited states in gaussian
 --------------------------------
 Symbolic Z-matrix:
 Charge =  0 Multiplicity = 1

                         Standard orientation:
 ---------------------------------------------------------------------
 Center     Atomic      Atomic             Coordinates (Angstroms)
 Number     Number       Type             X           Y           Z
 ---------------------------------------------------------------------
      1         12           0       -6.505241    0.520992   -0.687820
      2          6           0       -6.856039   -2.462159    1.258963
      3          6           0       -7.676292    2.244233    2.014429
      4          6           0       -6.635293    3.101483   -2.526508
      5          6           0       -6.458819   -1.509215   -3.520092
      6          7           0       -7.149007   -0.137279    1.325359
      7          6           0       -7.178370   -1.301666    1.966072
      8          6           0       -7.511183   -1.164513    3.481921
      9          6           0       -8.284826    0.229076    3.444699
     10          6           0       -7.640992    0.831365    2.208313
     11          6           0       -9.783470    0.087583    3.198635
     12          6           0       -6.223086   -1.081189    4.368259
     13          6           0       -6.450030   -1.273993    5.870483
     14          1           0       -5.435320   -1.968485    6.648554
     15          7           0       -6.601091    2.434355   -0.205423
     16          6           0       -7.093117    2.956109    0.943911
     17          6           0       -6.942609    4.422212    0.823200
     18          6           0       -6.498303    4.721118   -0.566527
     19          6           0       -6.586849    3.416233   -1.170524
     20          6           0       -7.163783    5.368670    1.962958
     21          6           0       -6.073036    5.984479   -1.245644
     22          8           0       -5.949851    6.065786   -2.515600
     23          6           0       -5.887596    7.164399   -0.381674
     24          7           0       -6.762494    0.789512   -2.741926
     25          6           0       -6.721360    2.009405   -3.288875
     26          6           0       -6.644900    1.934674   -4.785040
     27          6           0       -6.396266    0.397526   -5.138746
     28          6           0       -6.458258   -0.187300   -3.706124
     29          6           0       -7.879535    2.439823   -5.544325
     30          6           0       -5.162982    0.068612   -6.016952
     31          6           0       -3.893423    0.363055   -5.249735
     32          7           0       -6.454393   -1.612160   -1.085467
     33          6           0       -6.462841   -2.236145   -2.341351
     34          6           0       -6.529414   -3.689410   -2.101228
     35          6           0       -6.572072   -3.809948   -0.713606
     36          6           0       -6.561014   -2.513150   -0.124977
     37          6           0       -6.602086   -4.697135   -3.103047
     38          6           0       -6.649281   -4.731804    0.408035
     39          8           0       -6.593432   -5.956399    0.529448
     40          6           0       -6.959133   -3.892934    1.725652
     41          6           0       -6.005146   -4.354770    2.793325
     42          8           0       -4.780091   -4.138762    2.693585
     43          8           0       -6.701388   -4.761961    3.865698
     44          6           0       -5.813550   -5.205675    4.973406
     45          1           0       -8.251111    2.858312    2.710439
     46          1           0       -6.569996    3.961350   -3.196436
     47          1           0       -6.362696   -2.207756   -4.353311
     48          1           0       -8.164932   -1.942832    3.875944
     49          1           0       -8.066600    0.839206    4.320964
     50          1           0      -10.052709   -0.941363    2.960514
     51          1           0      -10.003254    0.743366    2.355939
     52          1           0      -10.353151    0.480945    4.040958
     53          1           0       -5.851444   -0.056523    4.366778
     54          1           0       -5.470762   -1.791322    4.023231
     55          1           0       -7.437757   -1.688381    6.074408
     56          1           0       -6.465741   -0.291519    6.342392
     57          1           0       -7.642313    4.873964    2.807245
     58          1           0       -7.895362    6.104073    1.628766
     59          1           0       -6.244888    5.873588    2.261323
     60          1           0       -6.822437    7.382553    0.135077
     61          1           0       -5.497281    7.950933   -1.026553
     62          1           0       -5.158258    6.924071    0.392443
     63          1           0       -5.813484    2.527467   -5.164211
     64          1           0       -7.234377   -0.037524   -5.683701
     65          1           0       -7.660143    3.235097   -6.257143
     66          1           0       -8.616785    2.764658   -4.810679
     67          1           0       -8.432778    1.669647   -6.081139
     68          1           0       -5.152892    0.696838   -6.906995
     69          1           0       -5.132569   -0.970718   -6.344243
     70          1           0       -3.756308    1.432286   -5.407141
     71          1           0       -3.058507   -0.202833   -5.664340
     72          1           0       -4.029536    0.206057   -4.179543
     73          1           0       -5.919126   -5.487204   -2.791075
     74          1           0       -6.330682   -4.302602   -4.081969
     75          1           0       -7.655613   -4.969063   -3.039880
     76          1           0       -7.996984   -4.094681    1.988877
     77          1           0       -6.105276   -6.224083    5.230263
     78          1           0       -5.886973   -4.446596    5.752387
     79          1           0       -4.762634   -5.350255    4.720403
     80         12           0        6.666065    0.709814    0.612175
     81          6           0        6.738206   -1.919574   -1.829174
     82          6           0        5.597278   -1.615944    2.866749
     83          6           0        6.160532    3.076462    2.664205
     84          6           0        6.624267    2.977013   -2.034296
     85          7           0        6.258732   -1.455993    0.423439
     86          6           0        6.380670   -2.359294   -0.537558
     87          6           0        6.182069   -3.826213   -0.070388
     88          6           0        5.286188   -3.544529    1.232273
     89          6           0        5.763564   -2.130335    1.556080
     90          6           0        3.796348   -3.490022    0.937781
     91          6           0        7.537202   -4.522911    0.304117
     92          6           0        7.454703   -6.041772    0.471453
     93          1           0        8.595028   -6.851299    0.050971
     94          7           0        6.456167    0.675909    2.585330
     95          6           0        6.032580   -0.358956    3.340921
     96          6           0        6.034130    0.129041    4.728730
     97          6           0        6.335396    1.586335    4.713199
     98          6           0        6.307925    1.846007    3.287750
     99          6           0        5.845146   -0.777469    5.910238
    100          6           0        6.591556    2.584046    5.801840
    101          8           0        6.596347    3.845004    5.572067
    102          6           0        6.743888    2.046081    7.161571
    103          7           0        6.213602    2.723134    0.358854
    104          6           0        6.097502    3.544114    1.417357
    105          6           0        6.044023    4.989516    0.983343
    106          6           0        6.393076    4.982656   -0.577331
    107          6           0        6.505312    3.459164   -0.804851
    108          6           0        4.709146    5.701053    1.202898
    109          6           0        7.567804    5.887583   -1.039731
    110          6           0        8.872852    5.361953   -0.486604
    111          7           0        6.863676    0.596399   -1.536349
    112          6           0        6.790058    1.664383   -2.457257
    113          6           0        6.867470    1.078042   -3.811013
    114          6           0        6.958309   -0.303261   -3.582469
    115          6           0        6.918538   -0.561187   -2.185551
    116          6           0        6.801251    1.800659   -5.035581
    117          6           0        7.068089   -1.602602   -4.205661
    118          8           0        7.229594   -2.002523   -5.357924
    119          6           0        6.803125   -2.716051   -3.102757
    120          6           0        7.882697   -3.756375   -3.224270
    121          8           0        9.067233   -3.469952   -2.976380
    122          8           0        7.314035   -4.963067   -3.400036
    123          6           0        8.344297   -6.029459   -3.514863
    124          1           0        5.043817   -2.212990    3.592081
    125          1           0        6.094048    3.938505    3.332002
    126          1           0        6.716365    3.624510   -2.908901
    127          1           0        5.639370   -4.454974   -0.766028
    128          1           0        5.538467   -4.226456    2.040161
    129          1           0        3.593326   -3.532431   -0.121998
    130          1           0        3.448620   -2.552884    1.352400
    131          1           0        3.273887   -4.276301    1.490172
    132          1           0        7.816760   -4.236213    1.326069
    133          1           0        8.300808   -4.278837   -0.408593
    134          1           0        6.521976   -6.451197    0.064828
    135          1           0        7.405279   -6.271140    1.538675
    136          1           0        5.479791   -1.765667    5.604684
    137          1           0        5.027965   -0.358425    6.507302
    138          1           0        6.738643   -0.847951    6.534237
    139          1           0        5.845859    1.497543    7.435631
    140          1           0        7.009201    2.901285    7.786173
    141          1           0        7.566825    1.322622    7.161417
    142          1           0        6.787096    5.578298    1.507060
    143          1           0        5.545191    5.329672   -1.186013
    144          1           0        4.797337    6.612532    1.823797
    145          1           0        4.018558    5.000011    1.652524
    146          1           0        4.185129    5.990603    0.293631
    147          1           0        7.446687    6.898139   -0.641921
    148          1           0        7.648183    5.973531   -2.118221
    149          1           0        8.899321    5.781078    0.523696
    150          1           0        9.711677    5.715585   -1.082727
    151          1           0        8.848153    4.270299   -0.390068
    152          1           0        7.565551    1.389392   -5.681493
    153          1           0        6.945972    2.867163   -4.876201
    154          1           0        5.779073    1.566841   -5.344995
    155          1           0        5.811738   -3.131284   -3.288015
    156          1           0        8.159757   -6.551673   -4.458752
    157          1           0        8.263237   -6.624450   -2.585798
    158          1           0        9.374724   -5.719131   -3.642793
 ---------------------------------------------------------------------

 SCF Done:  E(RCAM-B3LYP) =  -4069.81203321     A.U. after   19 cycles

 Excitation energies and oscillator strengths:

 Excited State   1:      Singlet-A      1.6735 eV  740.88 nm  f=0.2939  <S**2>=0.000
     310 -> 316        0.15726
     311 -> 313       -0.28336
     312 -> 314        0.62490
 This state for optimization and/or second-order correction.
 Total Energy, E(TD-HF/TD-DFT) =  -4069.75053449
 Copying the excited state density for this state as the 1-particle RhoCI density.

 Excited State   2:      Singlet-A      1.6803 eV  737.85 nm  f=0.4390  <S**2>=0.000
     309 -> 315        0.16016
     311 -> 313        0.62440
     312 -> 314        0.28311

 Excited State   3:      Singlet-A      2.1851 eV  567.41 nm  f=0.0953  <S**2>=0.000
     310 -> 314        0.63803
     312 -> 316       -0.26985

 Excited State   4:      Singlet-A      2.1930 eV  565.37 nm  f=0.1027  <S**2>=0.000
     309 -> 313        0.63605
     311 -> 315       -0.27634

 Excited State   5:      Singlet-A      2.6457 eV  468.62 nm  f=0.0000  <S**2>=0.000
     312 -> 313        0.70710

 The electronic state is 1-A.
 Alpha  occ. eigenvalues --  -46.87860 -46.87545 -19.26423 -19.26224 -19.19159
 Alpha  occ. eigenvalues --  -19.19042 -19.18868 -19.18640 -19.18255 -19.17943
 Alpha  occ. eigenvalues --  -14.42516 -14.42369 -14.41508 -14.41249 -14.39466
 Alpha  occ. eigenvalues --  -14.39241 -14.38653 -14.38487 -10.39213 -10.38970
 Alpha  occ. eigenvalues --  -10.35501 -10.35319 -10.34477 -10.34118 -10.31838
 Alpha  occ. eigenvalues --  -10.31632 -10.31476 -10.31169 -10.30980 -10.30893
 Alpha  occ. eigenvalues --  -10.30637 -10.30570 -10.30294 -10.30257 -10.30244
 Alpha  occ. eigenvalues --  -10.30038 -10.29978 -10.29794 -10.29694 -10.29328
 Alpha  occ. eigenvalues --  -10.29313 -10.29298 -10.28836 -10.28657 -10.28547
 Alpha  occ. eigenvalues --  -10.28493 -10.28433 -10.28289 -10.28193 -10.27942
 Alpha  occ. eigenvalues --  -10.27892 -10.27858 -10.27791 -10.27646 -10.27536
 Alpha  occ. eigenvalues --  -10.27533 -10.27532 -10.27486 -10.27475 -10.27437
 Alpha  occ. eigenvalues --  -10.27367 -10.27364 -10.27364 -10.27301 -10.27253
 Alpha  occ. eigenvalues --  -10.26927 -10.26812 -10.26539 -10.26455 -10.26359
 Alpha  occ. eigenvalues --  -10.26303 -10.26198 -10.26074 -10.26070 -10.25903
 Alpha  occ. eigenvalues --  -10.25827 -10.25759 -10.25740 -10.25466 -10.25340
 Alpha  occ. eigenvalues --  -10.24902 -10.24847 -10.24763 -10.24698 -10.24667
 Alpha  occ. eigenvalues --  -10.24586  -3.16603  -3.16295  -1.91485  -1.91177
 Alpha  occ. eigenvalues --   -1.91072  -1.90914  -1.90766  -1.90603  -1.16771
 Alpha  occ. eigenvalues --   -1.16520  -1.08717  -1.08550  -1.07269  -1.06894
 Alpha  occ. eigenvalues --   -1.06826  -1.06780  -1.04649  -1.04367  -1.03821
 Alpha  occ. eigenvalues --   -1.03548  -1.03297  -1.02931  -1.02474  -1.02000
 Alpha  occ. eigenvalues --   -0.92047  -0.91868  -0.89567  -0.89397  -0.89268
 Alpha  occ. eigenvalues --   -0.88976  -0.88332  -0.88130  -0.87935  -0.87740
 Alpha  occ. eigenvalues --   -0.87687  -0.87559  -0.87331  -0.87026  -0.85060
 Alpha  occ. eigenvalues --   -0.84852  -0.83982  -0.83792  -0.83017  -0.82851
 Alpha  occ. eigenvalues --   -0.82724  -0.82520  -0.81682  -0.81478  -0.80674
 Alpha  occ. eigenvalues --   -0.80327  -0.78857  -0.78532  -0.77281  -0.77021
 Alpha  occ. eigenvalues --   -0.77016  -0.76767  -0.76005  -0.75690  -0.74951
 Alpha  occ. eigenvalues --   -0.74707  -0.72836  -0.72586  -0.71738  -0.71454
 Alpha  occ. eigenvalues --   -0.69941  -0.69673  -0.68948  -0.68689  -0.67710
 Alpha  occ. eigenvalues --   -0.67493  -0.67301  -0.67073  -0.65367  -0.65128
 Alpha  occ. eigenvalues --   -0.64929  -0.64694  -0.64654  -0.64529  -0.64320
 Alpha  occ. eigenvalues --   -0.64107  -0.62398  -0.62163  -0.60497  -0.60245
 Alpha  occ. eigenvalues --   -0.59879  -0.59645  -0.59054  -0.58880  -0.58573
 Alpha  occ. eigenvalues --   -0.58314  -0.57680  -0.57437  -0.57371  -0.57139
 Alpha  occ. eigenvalues --   -0.56378  -0.56092  -0.56088  -0.55764  -0.55586
 Alpha  occ. eigenvalues --   -0.55405  -0.55344  -0.55150  -0.54602  -0.54387
 Alpha  occ. eigenvalues --   -0.53977  -0.53747  -0.53361  -0.53297  -0.53124
 Alpha  occ. eigenvalues --   -0.53021  -0.53000  -0.52820  -0.52781  -0.52555
 Alpha  occ. eigenvalues --   -0.52472  -0.52321  -0.51981  -0.51785  -0.51697
 Alpha  occ. eigenvalues --   -0.51523  -0.51268  -0.51089  -0.50622  -0.50386
 Alpha  occ. eigenvalues --   -0.50075  -0.49978  -0.49858  -0.49771  -0.49587
 Alpha  occ. eigenvalues --   -0.49367  -0.49289  -0.49174  -0.49079  -0.48951
 Alpha  occ. eigenvalues --   -0.48676  -0.48520  -0.48509  -0.48426  -0.48288
 Alpha  occ. eigenvalues --   -0.48242  -0.47762  -0.47475  -0.47360  -0.47014
 Alpha  occ. eigenvalues --   -0.46859  -0.46638  -0.46593  -0.46424  -0.46403
 Alpha  occ. eigenvalues --   -0.46230  -0.46166  -0.45984  -0.45907  -0.45704
 Alpha  occ. eigenvalues --   -0.45250  -0.45117  -0.44658  -0.44568  -0.44402
 Alpha  occ. eigenvalues --   -0.44338  -0.44206  -0.44160  -0.44093  -0.43987
 Alpha  occ. eigenvalues --   -0.43981  -0.43831  -0.43586  -0.43452  -0.43436
 Alpha  occ. eigenvalues --   -0.43258  -0.43095  -0.42814  -0.42812  -0.42785
 Alpha  occ. eigenvalues --   -0.42705  -0.42463  -0.42068  -0.41856  -0.41775
 Alpha  occ. eigenvalues --   -0.41611  -0.41552  -0.41324  -0.41208  -0.40938
 Alpha  occ. eigenvalues --   -0.40883  -0.40853  -0.40621  -0.40621  -0.40568
 Alpha  occ. eigenvalues --   -0.40384  -0.40326  -0.40082  -0.39472  -0.39344
 Alpha  occ. eigenvalues --   -0.38519  -0.38250  -0.37839  -0.37514  -0.37373
 Alpha  occ. eigenvalues --   -0.37344  -0.37159  -0.37062  -0.36822  -0.36657
 Alpha  occ. eigenvalues --   -0.36272  -0.36107  -0.34352  -0.34138  -0.33897
 Alpha  occ. eigenvalues --   -0.33745  -0.33255  -0.33062  -0.31398  -0.31198
 Alpha  occ. eigenvalues --   -0.31102  -0.30857  -0.30116  -0.29846  -0.29512
 Alpha  occ. eigenvalues --   -0.29389  -0.29225  -0.29104  -0.24146  -0.23920
 Alpha  occ. eigenvalues --   -0.21190  -0.21002
 Alpha virt. eigenvalues --   -0.08838  -0.08682  -0.01810  -0.01574  -0.00121
 Alpha virt. eigenvalues --    0.00077   0.02129   0.02312   0.03050   0.03328
 Alpha virt. eigenvalues --    0.04643   0.04868   0.04973   0.05285   0.06076

 Mulliken charges:
               1
     1  Mg   0.838596
     2  C   -0.003304
     3  C   -0.094140
     4  C   -0.045757
     5  C   -0.063783
     6  N   -0.256807
     7  C   -0.052570
     8  C   -0.014017
     9  C   -0.087013
    10  C    0.046271
    11  C    0.104768
    12  C    0.053496
    13  C   -0.071568
    14  H    0.035117
    15  N   -0.433160
    16  C    0.168458
    17  C   -0.177049
    18  C   -0.003881
    19  C    0.148720
    20  C    0.110117
    21  C    0.012304
    22  O   -0.249472
    23  C    0.062450
    24  N   -0.341122
    25  C    0.041311
    26  C   -0.028232
    27  C   -0.024033
    28  C    0.074828
    29  C    0.076116
    30  C    0.035060
    31  C   -0.004615
    32  N   -0.310389
    33  C    0.080277
    34  C   -0.169758
    35  C    0.008182
    36  C    0.082828
    37  C    0.127357
    38  C    0.045838
    39  O   -0.188847
    40  C   -0.005228
    41  C    0.212892
    42  O   -0.257931
    43  O   -0.304498
    44  C    0.157989
    45  H   -0.017489
    46  H   -0.016637
    47  H   -0.041214
    48  H    0.000884
    49  H   -0.004018
    50  H    0.025483
    51  H    0.016622
    52  H    0.016767
    53  H    0.011314
    54  H    0.043514
    55  H    0.018096
    56  H    0.018216
    57  H    0.005913
    58  H    0.026996
    59  H    0.039776
    60  H    0.037465
    61  H    0.035734
    62  H    0.031568
    63  H    0.016713
    64  H    0.009607
    65  H    0.023408
    66  H    0.012498
    67  H    0.004924
    68  H    0.006708
    69  H    0.004978
    70  H    0.008784
    71  H    0.018831
    72  H    0.028533
    73  H    0.047270
    74  H    0.009447
    75  H    0.046103
    76  H    0.035276
    77  H    0.042973
    78  H    0.046476
    79  H    0.052679
    80  Mg   0.837914
    81  C   -0.016800
    82  C   -0.087474
    83  C   -0.045778
    84  C   -0.064970
    85  N   -0.254663
    86  C   -0.049402
    87  C   -0.015222
    88  C   -0.090498
    89  C    0.045787
    90  C    0.114166
    91  C    0.062467
    92  C   -0.077864
    93  H    0.034316
    94  N   -0.423522
    95  C    0.162855
    96  C   -0.174455
    97  C   -0.008175
    98  C    0.152284
    99  C    0.099360
   100  C    0.015325
   101  O   -0.253702
   102  C    0.061280
   103  N   -0.350036
   104  C    0.037620
   105  C   -0.019801
   106  C   -0.034831
   107  C    0.088939
   108  C    0.073754
   109  C    0.034813
   110  C   -0.007602
   111  N   -0.324082
   112  C    0.078481
   113  C   -0.163275
   114  C    0.002263
   115  C    0.096183
   116  C    0.131503
   117  C    0.042261
   118  O   -0.188130
   119  C    0.001023
   120  C    0.211201
   121  O   -0.251253
   122  O   -0.305385
   123  C    0.152133
   124  H   -0.018774
   125  H   -0.016110
   126  H   -0.040699
   127  H   -0.000063
   128  H   -0.004342
   129  H    0.022924
   130  H    0.014924
   131  H    0.018505
   132  H    0.013632
   133  H    0.037298
   134  H    0.021551
   135  H    0.019648
   136  H    0.009258
   137  H    0.025895
   138  H    0.039463
   139  H    0.038086
   140  H    0.035895
   141  H    0.033934
   142  H    0.014091
   143  H    0.012467
   144  H    0.024490
   145  H    0.011550
   146  H    0.005713
   147  H    0.005921
   148  H    0.003605
   149  H    0.010724
   150  H    0.017724
   151  H    0.030290
   152  H    0.045769
   153  H    0.008332
   154  H    0.046902
   155  H    0.035559
   156  H    0.043791
   157  H    0.049758
   158  H    0.053284
 Sum of Mulliken charges =  -0.00000

 Dipole moment (field-independent basis, Debye):
    X=             -4.7045    Y=              1.7448    Z=              5.5420  Tot=              7.4760
 Quadrupole moment (field-independent basis, Debye-Ang):
   XX=           -518.5292   YY=           -511.8785   ZZ=           -487.6360
   XY=            -28.3332   XZ=              6.5811   YZ=            -12.5625

 Normal termination of Gaussian 16 at Sat Sep 11 17:25:26 2021.
