 Gaussian 16, Revision A.03,
 Gaussian 16:  ES64L-G16RevA.03 25-Dec-2016

 -----------------------------------
 #p cam-b3lyp/Def2SVP td=(nstates=5)
 -----------------------------------

 --------------------------------
 TDDFT excited states in gaussian
 --------------------------------
 Symbolic Z-matrix:
 Charge =  0 Multiplicity = 1

                         Standard orientation:
 ---------------------------------------------------------------------
 Center     Atomic      Atomic             Coordinates (Angstroms)
 Number     Number       Type             X           Y           Z
 ---------------------------------------------------------------------
      1         12           0        4.915555   -1.189734    0.408270
      2          6           0        5.549348    1.953691   -1.182139
      3          6           0        5.737780    0.307776    3.361992
      4          6           0        4.803935   -4.053382    1.766093
      5          6           0        5.252301   -2.675956   -2.725961
      6          7           0        5.545086    0.875056    0.899167
      7          6           0        5.691257    2.000235    0.206508
      8          6           0        5.935333    3.250583    1.103409
      9          6           0        6.528953    2.523784    2.392353
     10          6           0        5.871243    1.164814    2.229427
     11          6           0        8.043093    2.345150    2.347928
     12          6           0        4.608198    4.012276    1.435473
     13          6           0        4.789354    5.413431    2.026491
     14          1           0        3.835624    6.452773    1.669397
     15          7           0        4.748736   -1.700615    2.309329
     16          6           0        5.118941   -0.960884    3.382190
     17          6           0        4.791341   -1.775854    4.571805
     18          6           0        4.376367   -3.125608    4.098459
     19          6           0        4.655114   -3.020776    2.688959
     20          6           0        4.840274   -1.245101    5.971682
     21          6           0        3.827149   -4.323879    4.806016
     22          8           0        3.752305   -5.470166    4.244769
     23          6           0        3.456290   -4.138747    6.220665
     24          7           0        5.229736   -3.120310   -0.320978
     25          6           0        5.060696   -4.190309    0.463568
     26          6           0        5.061964   -5.459361   -0.336083
     27          6           0        5.024354   -5.015652   -1.869531
     28          6           0        5.094350   -3.481139   -1.672966
     29          6           0        6.256555   -6.395002   -0.104699
     30          6           0        3.883059   -5.596224   -2.741770
     31          6           0        2.553203   -5.041637   -2.282408
     32          7           0        5.150710   -0.498936   -1.635879
     33          6           0        5.294153   -1.292888   -2.782935
     34          6           0        5.531555   -0.378023   -3.914629
     35          6           0        5.526190    0.891874   -3.340890
     36          6           0        5.325948    0.775869   -1.935637
     37          6           0        5.775290   -0.764853   -5.261993
     38          6           0        5.667608    2.318241   -3.584478
     39          8           0        5.760368    3.020881   -4.592042
     40          6           0        5.809877    3.054758   -2.179796
     41          6           0        4.874046    4.232667   -2.187371
     42          8           0        3.637348    4.067056   -2.210068
     43          8           0        5.566643    5.352370   -1.928298
     44          6           0        4.692287    6.555011   -1.892099
     45          1           0        6.198962    0.604807    4.305934
     46          1           0        4.661668   -5.055256    2.176515
     47          1           0        5.282341   -3.062158   -3.746451
     48          1           0        6.663049    3.959035    0.707241
     49          1           0        6.196513    2.997382    3.315884
     50          1           0        8.449759    2.631540    1.378121
     51          1           0        8.216774    1.285390    2.535646
     52          1           0        8.520249    2.877416    3.171208
     53          1           0        4.111417    3.520869    2.272007
     54          1           0        3.967270    4.072406    0.555177
     55          1           0        5.811016    5.771646    1.896885
     56          1           0        4.660348    5.347697    3.106878
     57          1           0        5.338396   -0.277390    6.015909
     58          1           0        5.488194   -1.910429    6.541987
     59          1           0        3.852757   -1.210022    6.432019
     60          1           0        4.332047   -3.813627    6.782711
     61          1           0        2.999972   -5.076045    6.537044
     62          1           0        2.728595   -3.329843    6.291968
     63          1           0        4.180767   -6.060792   -0.116540
     64          1           0        5.934198   -5.298368   -2.399559
     65          1           0        5.971611   -7.399604    0.208807
     66          1           0        6.913295   -5.927990    0.628707
     67          1           0        6.925742   -6.501507   -0.958082
     68          1           0        3.834517   -6.678968   -2.631067
     69          1           0        3.998085   -5.376192   -3.803187
     70          1           0        2.290316   -5.696005   -1.452032
     71          1           0        1.815474   -5.110628   -3.082538
     72          1           0        2.659388   -4.033343   -1.881715
     73          1           0        5.183418   -0.093412   -5.883944
     74          1           0        5.501099   -1.805965   -5.430837
     75          1           0        6.850662   -0.600288   -5.327945
     76          1           0        6.851860    3.360310   -2.090180
     77          1           0        5.097530    7.268202   -2.609992
     78          1           0        4.634609    6.864891   -0.848523
     79          1           0        3.680333    6.427045   -2.277990
     80         12           0       -5.592896   -0.123473   -0.343832
     81          6           0       -2.939105    2.256965    0.068473
     82          6           0       -7.497562    1.877753    1.656643
     83          6           0       -7.791449   -2.411066   -0.317318
     84          6           0       -3.178477   -2.436132   -1.327658
     85          7           0       -5.162380    1.794456    0.670296
     86          6           0       -4.139772    2.635549    0.704485
     87          6           0       -4.445417    3.991961    1.394613
     88          6           0       -5.667614    3.519418    2.322961
     89          6           0       -6.169458    2.344001    1.486762
     90          6           0       -5.225083    2.988342    3.676271
     91          6           0       -4.893478    5.095027    0.372594
     92          6           0       -4.909573    6.519983    0.930278
     93          1           0       -4.537500    7.618782    0.043339
     94          7           0       -7.521520   -0.045849    0.117613
     95          6           0       -8.129291    0.846882    0.926894
     96          6           0       -9.548900    0.462144    0.956076
     97          6           0       -9.700306   -0.827906    0.229742
     98          6           0       -8.310096   -1.162773   -0.005362
     99          6           0      -10.614875    1.329846    1.559575
    100          6           0      -10.897654   -1.633972   -0.173762
    101          8           0      -10.787650   -2.841851   -0.588223
    102          6           0      -12.210035   -0.999931    0.018933
    103          7           0       -5.481533   -2.188610   -0.556334
    104          6           0       -6.593653   -2.944321   -0.558696
    105          6           0       -6.292444   -4.356751   -0.999929
    106          6           0       -4.783042   -4.329335   -1.527679
    107          6           0       -4.428123   -2.861642   -1.203175
    108          6           0       -6.436106   -5.434292    0.074613
    109          6           0       -4.532159   -4.848965   -2.969798
    110          6           0       -5.167703   -3.913766   -3.973225
    111          7           0       -3.475664   -0.074956   -0.771692
    112          6           0       -2.655219   -1.162841   -1.142430
    113          6           0       -1.268469   -0.658357   -1.212172
    114          6           0       -1.376097    0.693351   -0.851898
    115          6           0       -2.731176    1.004070   -0.557448
    116          6           0       -0.116076   -1.433267   -1.524609
    117          6           0       -0.649944    1.925403   -0.643440
    118          8           0        0.511194    2.290435   -0.823042
    119          6           0       -1.610927    2.961455    0.084228
    120          6           0       -1.507101    4.277146   -0.637361
    121          8           0       -1.903159    4.387262   -1.811083
    122          8           0       -1.161537    5.235608    0.241455
    123          6           0       -1.056753    6.561099   -0.424830
    124          1           0       -8.102394    2.313016    2.452641
    125          1           0       -8.525709   -3.212231   -0.429021
    126          1           0       -2.382211   -3.070956   -1.722154
    127          1           0       -3.641450    4.380962    2.007877
    128          1           0       -6.430675    4.290155    2.393943
    129          1           0       -4.150536    2.906084    3.745030
    130          1           0       -5.686185    2.014357    3.775160
    131          1           0       -5.644370    3.603077    4.477914
    132          1           0       -5.961257    4.967150    0.152971
    133          1           0       -4.290373    5.060694   -0.513811
    134          1           0       -4.371291    6.595903    1.882878
    135          1           0       -5.939842    6.782109    1.182969
    136          1           0      -10.182365    2.136870    2.163767
    137          1           0      -11.159388    0.711848    2.281692
    138          1           0      -11.319747    1.709290    0.816720
    139          1           0      -12.336463   -0.743069    1.067975
    140          1           0      -12.935630   -1.693950   -0.409694
    141          1           0      -12.228910   -0.057823   -0.540249
    142          1           0       -6.943453   -4.655213   -1.812468
    143          1           0       -4.123768   -4.956146   -0.909376
    144          1           0       -7.144724   -6.236941   -0.204141
    145          1           0       -6.743955   -4.958424    0.996197
    146          1           0       -5.507787   -5.922823    0.365752
    147          1           0       -5.007158   -5.823168   -3.109305
    148          1           0       -3.480669   -4.966035   -3.209907
    149          1           0       -6.209745   -4.246584   -3.995192
    150          1           0       -4.698094   -4.022153   -4.948804
    151          1           0       -5.159401   -2.880198   -3.608119
    152          1           0        0.481624   -0.841817   -2.205369
    153          1           0       -0.388016   -2.391336   -1.962703
    154          1           0        0.319013   -1.546317   -0.528026
    155          1           0       -1.285150    3.037079    1.122366
    156          1           0       -0.054361    6.946346   -0.213901
    157          1           0       -1.912974    7.152586   -0.049629
    158          1           0       -1.066768    6.579590   -1.508348
 ---------------------------------------------------------------------

 SCF Done:  E(RCAM-B3LYP) =  -4069.80892620     A.U. after   19 cycles

 Excitation energies and oscillator strengths:

 Excited State   1:      Singlet-A      1.6632 eV  745.43 nm  f=0.3050  <S**2>=0.000
     309 -> 315        0.13123
     310 -> 316       -0.10891
     311 -> 313        0.52771
     312 -> 314       -0.43925
 This state for optimization and/or second-order correction.
 Total Energy, E(TD-HF/TD-DFT) =  -4069.74780300
 Copying the excited state density for this state as the 1-particle RhoCI density.

 Excited State   2:      Singlet-A      1.6893 eV  733.94 nm  f=0.4829  <S**2>=0.000
     309 -> 315        0.11270
     310 -> 316        0.13536
     311 -> 313        0.43833
     312 -> 314        0.52642

 Excited State   3:      Singlet-A      2.1796 eV  568.85 nm  f=0.0009  <S**2>=0.000
     309 -> 313       -0.43921
     310 -> 314        0.47203
     311 -> 315        0.18336
     312 -> 316       -0.19637

 Excited State   4:      Singlet-A      2.1930 eV  565.35 nm  f=0.1746  <S**2>=0.000
     309 -> 313        0.46834
     310 -> 314        0.43496
     311 -> 315       -0.20354
     312 -> 316       -0.19133

 Excited State   5:      Singlet-A      2.4230 eV  511.71 nm  f=0.0000  <S**2>=0.000
     312 -> 313        0.70541

 The electronic state is 1-A.
 Alpha  occ. eigenvalues --  -46.87480 -46.87357 -19.26066 -19.25611 -19.18808
 Alpha  occ. eigenvalues --  -19.18552 -19.18506 -19.18144 -19.17681 -19.17651
 Alpha  occ. eigenvalues --  -14.42334 -14.42001 -14.41178 -14.41055 -14.39170
 Alpha  occ. eigenvalues --  -14.38987 -14.38403 -14.38119 -10.38769 -10.38247
 Alpha  occ. eigenvalues --  -10.35234 -10.35147 -10.33885 -10.33818 -10.31553
 Alpha  occ. eigenvalues --  -10.31192 -10.31123 -10.30937 -10.30859 -10.30442
 Alpha  occ. eigenvalues --  -10.30201 -10.30156 -10.30120 -10.30096 -10.29987
 Alpha  occ. eigenvalues --  -10.29883 -10.29704 -10.29539 -10.29276 -10.29218
 Alpha  occ. eigenvalues --  -10.29203 -10.28877 -10.28587 -10.28554 -10.28244
 Alpha  occ. eigenvalues --  -10.28206 -10.28093 -10.28015 -10.27900 -10.27793
 Alpha  occ. eigenvalues --  -10.27668 -10.27504 -10.27379 -10.27368 -10.27321
 Alpha  occ. eigenvalues --  -10.27317 -10.27299 -10.27287 -10.27275 -10.27220
 Alpha  occ. eigenvalues --  -10.27212 -10.27185 -10.27169 -10.26936 -10.26778
 Alpha  occ. eigenvalues --  -10.26596 -10.26555 -10.26284 -10.26173 -10.26094
 Alpha  occ. eigenvalues --  -10.26044 -10.26010 -10.25947 -10.25852 -10.25758
 Alpha  occ. eigenvalues --  -10.25695 -10.25652 -10.25486 -10.25251 -10.25218
 Alpha  occ. eigenvalues --  -10.24711 -10.24661 -10.24599 -10.24503 -10.24394
 Alpha  occ. eigenvalues --  -10.24393  -3.16230  -3.16091  -1.91112  -1.90972
 Alpha  occ. eigenvalues --   -1.90701  -1.90560  -1.90538  -1.90402  -1.16341
 Alpha  occ. eigenvalues --   -1.15933  -1.08230  -1.08115  -1.06916  -1.06808
 Alpha  occ. eigenvalues --   -1.06596  -1.05803  -1.04322  -1.04126  -1.03483
 Alpha  occ. eigenvalues --   -1.03358  -1.02853  -1.02815  -1.01988  -1.01923
 Alpha  occ. eigenvalues --   -0.91769  -0.91491  -0.89320  -0.89229  -0.89016
 Alpha  occ. eigenvalues --   -0.88713  -0.88056  -0.87990  -0.87606  -0.87517
 Alpha  occ. eigenvalues --   -0.87462  -0.87246  -0.86952  -0.86918  -0.84849
 Alpha  occ. eigenvalues --   -0.84535  -0.83711  -0.83684  -0.82776  -0.82677
 Alpha  occ. eigenvalues --   -0.82494  -0.82230  -0.81386  -0.81115  -0.80253
 Alpha  occ. eigenvalues --   -0.80161  -0.78459  -0.78418  -0.76995  -0.76878
 Alpha  occ. eigenvalues --   -0.76732  -0.76514  -0.75667  -0.75486  -0.74634
 Alpha  occ. eigenvalues --   -0.74582  -0.72521  -0.72383  -0.71409  -0.71275
 Alpha  occ. eigenvalues --   -0.69709  -0.69608  -0.68668  -0.68453  -0.67405
 Alpha  occ. eigenvalues --   -0.67238  -0.67048  -0.66755  -0.65104  -0.64823
 Alpha  occ. eigenvalues --   -0.64589  -0.64468  -0.64441  -0.64207  -0.64029
 Alpha  occ. eigenvalues --   -0.63935  -0.62051  -0.61792  -0.60165  -0.60096
 Alpha  occ. eigenvalues --   -0.59642  -0.59347  -0.58802  -0.58578  -0.58220
 Alpha  occ. eigenvalues --   -0.58083  -0.57286  -0.57093  -0.57039  -0.56858
 Alpha  occ. eigenvalues --   -0.56020  -0.55913  -0.55670  -0.55449  -0.55271
 Alpha  occ. eigenvalues --   -0.55157  -0.55052  -0.54989  -0.54279  -0.54073
 Alpha  occ. eigenvalues --   -0.53766  -0.53415  -0.53053  -0.52964  -0.52944
 Alpha  occ. eigenvalues --   -0.52803  -0.52697  -0.52521  -0.52483  -0.52410
 Alpha  occ. eigenvalues --   -0.52239  -0.52135  -0.51707  -0.51506  -0.51501
 Alpha  occ. eigenvalues --   -0.51160  -0.50968  -0.50786  -0.50328  -0.50280
 Alpha  occ. eigenvalues --   -0.49831  -0.49791  -0.49704  -0.49555  -0.49327
 Alpha  occ. eigenvalues --   -0.49092  -0.49017  -0.48892  -0.48774  -0.48670
 Alpha  occ. eigenvalues --   -0.48355  -0.48205  -0.48195  -0.48101  -0.48055
 Alpha  occ. eigenvalues --   -0.48028  -0.47405  -0.47319  -0.46946  -0.46918
 Alpha  occ. eigenvalues --   -0.46539  -0.46437  -0.46402  -0.46087  -0.46085
 Alpha  occ. eigenvalues --   -0.45991  -0.45901  -0.45724  -0.45609  -0.45373
 Alpha  occ. eigenvalues --   -0.45040  -0.44900  -0.44351  -0.44277  -0.44196
 Alpha  occ. eigenvalues --   -0.44135  -0.43945  -0.43906  -0.43837  -0.43724
 Alpha  occ. eigenvalues --   -0.43674  -0.43574  -0.43360  -0.43204  -0.43048
 Alpha  occ. eigenvalues --   -0.42990  -0.42726  -0.42657  -0.42627  -0.42440
 Alpha  occ. eigenvalues --   -0.42393  -0.42075  -0.41800  -0.41668  -0.41408
 Alpha  occ. eigenvalues --   -0.41306  -0.41274  -0.41106  -0.40806  -0.40750
 Alpha  occ. eigenvalues --   -0.40576  -0.40557  -0.40520  -0.40494  -0.40327
 Alpha  occ. eigenvalues --   -0.40221  -0.40096  -0.39718  -0.39278  -0.39269
 Alpha  occ. eigenvalues --   -0.38198  -0.38168  -0.37510  -0.37286  -0.37100
 Alpha  occ. eigenvalues --   -0.37031  -0.36980  -0.36786  -0.36502  -0.36185
 Alpha  occ. eigenvalues --   -0.36005  -0.35604  -0.34062  -0.33849  -0.33542
 Alpha  occ. eigenvalues --   -0.33015  -0.32978  -0.32671  -0.31113  -0.31035
 Alpha  occ. eigenvalues --   -0.30792  -0.30591  -0.29528  -0.29525  -0.29137
 Alpha  occ. eigenvalues --   -0.29057  -0.28984  -0.28874  -0.23853  -0.23634
 Alpha  occ. eigenvalues --   -0.20935  -0.20717
 Alpha virt. eigenvalues --   -0.08597  -0.08359  -0.01512  -0.01354   0.00156
 Alpha virt. eigenvalues --    0.00339   0.02441   0.02641   0.03374   0.03487
 Alpha virt. eigenvalues --    0.04881   0.05111   0.05499   0.05852   0.06269

 Mulliken charges:
               1
     1  Mg   0.836853
     2  C    0.007286
     3  C   -0.094074
     4  C   -0.047201
     5  C   -0.065706
     6  N   -0.256231
     7  C   -0.049009
     8  C   -0.016305
     9  C   -0.087274
    10  C    0.047338
    11  C    0.105196
    12  C    0.053643
    13  C   -0.069453
    14  H    0.031905
    15  N   -0.432588
    16  C    0.168403
    17  C   -0.177950
    18  C   -0.005139
    19  C    0.148070
    20  C    0.110597
    21  C    0.011240
    22  O   -0.251306
    23  C    0.062887
    24  N   -0.340771
    25  C    0.040360
    26  C   -0.027775
    27  C   -0.024242
    28  C    0.075027
    29  C    0.076558
    30  C    0.036521
    31  C   -0.008195
    32  N   -0.311529
    33  C    0.081191
    34  C   -0.170339
    35  C    0.007750
    36  C    0.088702
    37  C    0.127035
    38  C    0.050228
    39  O   -0.188418
    40  C   -0.008101
    41  C    0.208101
    42  O   -0.241599
    43  O   -0.306984
    44  C    0.159045
    45  H   -0.018826
    46  H   -0.018619
    47  H   -0.043304
    48  H   -0.000236
    49  H   -0.005143
    50  H    0.025032
    51  H    0.015710
    52  H    0.015265
    53  H    0.011225
    54  H    0.055418
    55  H    0.016072
    56  H    0.015982
    57  H    0.005350
    58  H    0.025651
    59  H    0.038110
    60  H    0.037033
    61  H    0.034299
    62  H    0.030860
    63  H    0.014784
    64  H    0.009171
    65  H    0.022115
    66  H    0.012822
    67  H    0.004099
    68  H    0.005541
    69  H    0.004633
    70  H    0.007843
    71  H    0.015265
    72  H    0.032164
    73  H    0.048344
    74  H    0.007751
    75  H    0.045273
    76  H    0.033226
    77  H    0.040627
    78  H    0.043823
    79  H    0.053408
    80  Mg   0.837442
    81  C   -0.016604
    82  C   -0.087926
    83  C   -0.045786
    84  C   -0.065391
    85  N   -0.254208
    86  C   -0.050274
    87  C   -0.014731
    88  C   -0.090378
    89  C    0.045282
    90  C    0.114657
    91  C    0.062695
    92  C   -0.077413
    93  H    0.034726
    94  N   -0.423345
    95  C    0.162461
    96  C   -0.175088
    97  C   -0.008187
    98  C    0.151886
    99  C    0.099576
   100  C    0.015291
   101  O   -0.253673
   102  C    0.061312
   103  N   -0.350143
   104  C    0.037334
   105  C   -0.019704
   106  C   -0.034824
   107  C    0.089137
   108  C    0.073690
   109  C    0.034797
   110  C   -0.007559
   111  N   -0.324426
   112  C    0.079670
   113  C   -0.163481
   114  C    0.004593
   115  C    0.096609
   116  C    0.122737
   117  C    0.039972
   118  O   -0.172360
   119  C   -0.000666
   120  C    0.216477
   121  O   -0.249710
   122  O   -0.307208
   123  C    0.153413
   124  H   -0.020429
   125  H   -0.016018
   126  H   -0.040652
   127  H   -0.001518
   128  H   -0.004747
   129  H    0.021446
   130  H    0.014331
   131  H    0.015395
   132  H    0.013878
   133  H    0.038527
   134  H    0.019817
   135  H    0.019192
   136  H    0.008240
   137  H    0.025514
   138  H    0.039345
   139  H    0.037946
   140  H    0.035950
   141  H    0.033765
   142  H    0.014079
   143  H    0.012760
   144  H    0.024707
   145  H    0.011470
   146  H    0.005838
   147  H    0.005855
   148  H    0.003177
   149  H    0.010790
   150  H    0.017575
   151  H    0.030602
   152  H    0.054676
   153  H    0.009999
   154  H    0.046725
   155  H    0.032628
   156  H    0.040661
   157  H    0.047697
   158  H    0.055592
 Sum of Mulliken charges =  -0.00000

 Dipole moment (field-independent basis, Debye):
    X=             -1.0859    Y=              1.8440    Z=              6.7359  Tot=              7.0676
 Quadrupole moment (field-independent basis, Debye-Ang):
   XX=           -487.5206   YY=           -486.1936   ZZ=           -503.8792
   XY=            -29.2303   XZ=              4.1149   YZ=             50.3612

 Normal termination of Gaussian 16 at Fri Sep 10 19:18:37 2021.
