 Gaussian 16, Revision A.03,
 Gaussian 16:  ES64L-G16RevA.03 25-Dec-2016

 -----------------------------------
 #p cam-b3lyp/Def2SVP td=(nstates=5)
 -----------------------------------

 --------------------------------
 TDDFT excited states in gaussian
 --------------------------------
 Symbolic Z-matrix:
 Charge =  0 Multiplicity = 1

                         Standard orientation:
 ---------------------------------------------------------------------
 Center     Atomic      Atomic             Coordinates (Angstroms)
 Number     Number       Type             X           Y           Z
 ---------------------------------------------------------------------
      1         12           0       -7.834284    0.520235   -0.657632
      2          6           0       -8.166599   -2.397598    1.388836
      3          6           0       -8.939391    2.336194    2.011468
      4          6           0       -7.983314    3.042603   -2.573896
      5          6           0       -7.858251   -1.598215   -3.424807
      6          7           0       -8.442265   -0.069657    1.387615
      7          6           0       -8.466813   -1.213094    2.065198
      8          6           0       -8.768383   -1.025917    3.582233
      9          6           0       -9.533059    0.371554    3.516324
     10          6           0       -8.909902    0.929889    2.249098
     11          6           0      -11.037246    0.233600    3.304444
     12          6           0       -7.462327   -0.924420    4.439931
     13          6           0       -7.660581   -1.068247    5.951673
     14          1           0       -6.635334   -1.745518    6.731108
     15          7           0       -7.907397    2.448467   -0.234045
     16          6           0       -8.372822    3.009722    0.907734
     17          6           0       -8.214720    4.470145    0.737884
     18          6           0       -7.796181    4.721929   -0.669072
     19          6           0       -7.905685    3.399416   -1.229737
     20          6           0       -8.406637    5.453559    1.851353
     21          6           0       -7.375905    5.960126   -1.395962
     22          8           0       -7.277518    6.000584   -2.670033
     23          6           0       -7.165202    7.165181   -0.573473
     24          7           0       -8.130606    0.726022   -2.713716
     25          6           0       -8.092040    1.927793   -3.299584
     26          6           0       -8.045946    1.805540   -4.793863
     27          6           0       -7.814942    0.256226   -5.103730
     28          6           0       -7.852353   -0.282836   -3.652427
     29          6           0       -9.291991    2.295799   -5.544216
     30          6           0       -6.601697   -0.109310   -5.995268
     31          6           0       -5.315105    0.199594   -5.262905
     32          7           0       -7.805978   -1.624674   -0.988707
     33          6           0       -7.843740   -2.287715   -2.223868
     34          6           0       -7.915457   -3.732183   -1.936749
     35          6           0       -7.931258   -3.808759   -0.545444
     36          6           0       -7.899587   -2.494231    0.001646
     37          6           0       -8.014988   -4.770306   -2.904649
     38          6           0       -7.992391   -4.694330    0.606027
     39          8           0       -7.942514   -5.914890    0.764890
     40          6           0       -8.270156   -3.812200    1.902375
     41          6           0       -7.298249   -4.247387    2.965070
     42          8           0       -6.073978   -4.043774    2.834429
     43          8           0       -7.975737   -4.615485    4.063275
     44          6           0       -7.069044   -5.030809    5.166709
     45          1           0       -9.495999    2.976107    2.698957
     46          1           0       -7.925506    3.880494   -3.271776
     47          1           0       -7.783547   -2.323279   -4.237306
     48          1           0       -9.419457   -1.786573    4.013429
     49          1           0       -9.293230    1.007258    4.368430
     50          1           0      -11.318215   -0.800277    3.104258
     51          1           0      -11.269298    0.864215    2.445974
     52          1           0      -11.587309    0.657467    4.145005
     53          1           0       -7.083784    0.096890    4.398796
     54          1           0       -6.721911   -1.650639    4.102712
     55          1           0       -8.646859   -1.468637    6.188005
     56          1           0       -7.660154   -0.071347    6.392568
     57          1           0       -8.871609    4.989202    2.720099
     58          1           0       -9.139685    6.183546    1.508616
     59          1           0       -7.478540    5.960721    2.115464
     60          1           0       -8.088036    7.406433   -0.045529
     61          1           0       -6.782451    7.928135   -1.250416
     62          1           0       -6.422232    6.943844    0.193310
     63          1           0       -7.218219    2.379905   -5.207867
     64          1           0       -8.666712   -0.189453   -5.618057
     65          1           0       -9.081420    3.066632   -6.285957
     66          1           0      -10.012223    2.649013   -4.806790
     67          1           0       -9.861088    1.513297   -6.045451
     68          1           0       -6.605059    0.490560   -6.904714
     69          1           0       -6.584932   -1.158604   -6.290142
     70          1           0       -5.173840    1.262300   -5.456638
     71          1           0       -4.492516   -0.385257   -5.675831
     72          1           0       -5.430919    0.077307   -4.185816
     73          1           0       -7.331367   -5.555265   -2.581432
     74          1           0       -7.760467   -4.408751   -3.900691
     75          1           0       -9.068883   -5.032239   -2.812173
     76          1           0       -9.303907   -3.997822    2.192246
     77          1           0       -7.362553   -6.038440    5.461271
     78          1           0       -7.121720   -4.247111    5.922651
     79          1           0       -6.024396   -5.191108    4.897722
     80         12           0        7.999069    0.678729    0.581161
     81          6           0        8.015879   -1.871935   -1.943300
     82          6           0        6.972527   -1.716070    2.782454
     83          6           0        7.540446    2.979686    2.717208
     84          6           0        7.907079    3.028827   -1.990669
     85          7           0        7.583806   -1.479481    0.332298
     86          6           0        7.684184   -2.351982   -0.659167
     87          6           0        7.492450   -3.832739   -0.234745
     88          6           0        6.624145   -3.591417    1.094421
     89          6           0        7.110787   -2.188819    1.452983
     90          6           0        5.128654   -3.525727    0.832635
     91          6           0        8.853678   -4.542675    0.089418
     92          6           0        8.771751   -6.065981    0.210176
     93          1           0        9.901621   -6.863169   -0.259223
     94          7           0        7.829806    0.582471    2.556162
     95          6           0        7.419903   -0.475322    3.287148
     96          6           0        7.450986   -0.031630    4.689410
     97          6           0        7.754644    1.425054    4.713867
     98          6           0        7.698299    1.729879    3.298242
     99          6           0        7.284653   -0.974937    5.845233
    100          6           0        8.035079    2.387391    5.828075
    101          8           0        8.037542    3.654995    5.638339
    102          6           0        8.214369    1.806351    7.166629
    103          7           0        7.545319    2.699637    0.401199
    104          6           0        7.452635    3.486753    1.487371
    105          6           0        7.392979    4.945265    1.100604
    106          6           0        7.709787    4.987517   -0.466372
    107          6           0        7.814408    3.471869   -0.744354
    108          6           0        6.064266    5.651156    1.370138
    109          6           0        8.876459    5.905182   -0.924010
    110          6           0       10.191625    5.360631   -0.414908
    111          7           0        8.152151    0.633309   -1.573503
    112          6           0        8.061607    1.730076   -2.458368
    113          6           0        8.109998    1.186911   -3.831344
    114          6           0        8.202885   -0.201069   -3.648636
    115          6           0        8.191415   -0.503152   -2.260072
    116          6           0        8.019948    1.948109   -5.030755
    117          6           0        8.297329   -1.480102   -4.314847
    118          8           0        8.434290   -1.843461   -5.482308
    119          6           0        8.053015   -2.627676   -3.242565
    120          6           0        9.127861   -3.664969   -3.419279
    121          8           0       10.317798   -3.388044   -3.186947
    122          8           0        8.553403   -4.864758   -3.621427
    123          6           0        9.579043   -5.928253   -3.791272
    124          1           0        6.432993   -2.335157    3.499762
    125          1           0        7.489377    3.820175    3.413228
    126          1           0        7.982376    3.703649   -2.846011
    127          1           0        6.934335   -4.438422   -0.938614
    128          1           0        6.891702   -4.298967    1.874897
    129          1           0        4.903763   -3.534213   -0.223536
    130          1           0        4.791334   -2.601784    1.283862
    131          1           0        4.616184   -4.328480    1.370491
    132          1           0        9.154782   -4.288905    1.113955
    133          1           0        9.602906   -4.277061   -0.630822
    134          1           0        7.830059   -6.461119   -0.189869
    135          1           0        8.743890   -6.329030    1.270384
    136          1           0        6.911186   -1.952482    5.516104
    137          1           0        6.480747   -0.574034    6.472023
    138          1           0        8.190672   -1.066305    6.448095
    139          1           0        7.321128    1.250519    7.441650
    140          1           0        8.494126    2.640954    7.812418
    141          1           0        9.035740    1.082224    7.126539
    142          1           0        8.147806    5.516197    1.627262
    143          1           0        6.850206    5.354735   -1.046109
    144          1           0        6.166972    6.542347    2.017663
    145          1           0        5.381764    4.937060    1.811477
    146          1           0        5.522189    5.970082    0.481523
    147          1           0        8.765499    6.902750   -0.491942
    148          1           0        8.934767    6.025217   -2.000670
    149          1           0       10.239700    5.747441    0.607414
    150          1           0       11.018670    5.731947   -1.016710
    151          1           0       10.166841    4.266484   -0.352543
    152          1           0        8.769981    1.556593   -5.705034
    153          1           0        8.169946    3.008836   -4.840667
    154          1           0        6.991153    1.725514   -5.326248
    155          1           0        7.057236   -3.035568   -3.420386
    156          1           0        9.374104   -6.420018   -4.747224
    157          1           0        9.516004   -6.552332   -2.880061
    158          1           0       10.607207   -5.615321   -3.930554
 ---------------------------------------------------------------------

 SCF Done:  E(RCAM-B3LYP) =  -4069.81190962     A.U. after   19 cycles

 Excitation energies and oscillator strengths:

 Excited State   1:      Singlet-A      1.6749 eV  740.26 nm  f=0.3398  <S**2>=0.000
     310 -> 316        0.16770
     311 -> 313       -0.17126
     312 -> 314        0.66435
     310 <- 316        0.10110
 This state for optimization and/or second-order correction.
 Total Energy, E(TD-HF/TD-DFT) =  -4069.75035940
 Copying the excited state density for this state as the 1-particle RhoCI density.

 Excited State   2:      Singlet-A      1.6799 eV  738.06 nm  f=0.4096  <S**2>=0.000
     309 -> 315        0.17010
     311 -> 313        0.66396
     312 -> 314        0.17113
     309 <- 315        0.10187

 Excited State   3:      Singlet-A      2.1856 eV  567.28 nm  f=0.0992  <S**2>=0.000
     310 -> 314        0.64121
     312 -> 316       -0.27191

 Excited State   4:      Singlet-A      2.1928 eV  565.42 nm  f=0.1001  <S**2>=0.000
     309 -> 313        0.63931
     311 -> 315       -0.27783

 Excited State   5:      Singlet-A      2.7631 eV  448.71 nm  f=0.0000  <S**2>=0.000
     312 -> 313        0.70710

 The electronic state is 1-A.
 Alpha  occ. eigenvalues --  -46.87839 -46.87586 -19.26372 -19.26266 -19.19106
 Alpha  occ. eigenvalues --  -19.19082 -19.18850 -19.18663 -19.18225 -19.17978
 Alpha  occ. eigenvalues --  -14.42494 -14.42416 -14.41489 -14.41288 -14.39445
 Alpha  occ. eigenvalues --  -14.39279 -14.38631 -14.38526 -10.39162 -10.39011
 Alpha  occ. eigenvalues --  -10.35482 -10.35341 -10.34446 -10.34154 -10.31779
 Alpha  occ. eigenvalues --  -10.31673 -10.31452 -10.31221 -10.30956 -10.30940
 Alpha  occ. eigenvalues --  -10.30615 -10.30550 -10.30329 -10.30285 -10.30241
 Alpha  occ. eigenvalues --  -10.30074 -10.29959 -10.29828 -10.29673 -10.29366
 Alpha  occ. eigenvalues --  -10.29332 -10.29294 -10.28805 -10.28614 -10.28613
 Alpha  occ. eigenvalues --  -10.28551 -10.28410 -10.28329 -10.28167 -10.28022
 Alpha  occ. eigenvalues --  -10.27929 -10.27836 -10.27770 -10.27626 -10.27585
 Alpha  occ. eigenvalues --  -10.27524 -10.27516 -10.27474 -10.27465 -10.27451
 Alpha  occ. eigenvalues --  -10.27407 -10.27400 -10.27396 -10.27326 -10.27219
 Alpha  occ. eigenvalues --  -10.26969 -10.26773 -10.26596 -10.26440 -10.26374
 Alpha  occ. eigenvalues --  -10.26280 -10.26197 -10.26094 -10.26057 -10.25885
 Alpha  occ. eigenvalues --  -10.25865 -10.25864 -10.25788 -10.25456 -10.25357
 Alpha  occ. eigenvalues --  -10.24879 -10.24827 -10.24801 -10.24700 -10.24690
 Alpha  occ. eigenvalues --  -10.24622  -3.16582  -3.16336  -1.91464  -1.91218
 Alpha  occ. eigenvalues --   -1.91050  -1.90893  -1.90807  -1.90644  -1.16719
 Alpha  occ. eigenvalues --   -1.16561  -1.08686  -1.08584  -1.07250  -1.06916
 Alpha  occ. eigenvalues --   -1.06866  -1.06728  -1.04626  -1.04414  -1.03801
 Alpha  occ. eigenvalues --   -1.03589  -1.03276  -1.02968  -1.02453  -1.02039
 Alpha  occ. eigenvalues --   -0.92022  -0.91910  -0.89553  -0.89431  -0.89240
 Alpha  occ. eigenvalues --   -0.89045  -0.88318  -0.88162  -0.87914  -0.87723
 Alpha  occ. eigenvalues --   -0.87717  -0.87604  -0.87312  -0.87056  -0.85033
 Alpha  occ. eigenvalues --   -0.84908  -0.83968  -0.83821  -0.83000  -0.82877
 Alpha  occ. eigenvalues --   -0.82698  -0.82569  -0.81648  -0.81519  -0.80647
 Alpha  occ. eigenvalues --   -0.80367  -0.78837  -0.78567  -0.77260  -0.77064
 Alpha  occ. eigenvalues --   -0.76987  -0.76816  -0.75977  -0.75746  -0.74934
 Alpha  occ. eigenvalues --   -0.74741  -0.72816  -0.72626  -0.71716  -0.71501
 Alpha  occ. eigenvalues --   -0.69932  -0.69703  -0.68922  -0.68740  -0.67686
 Alpha  occ. eigenvalues --   -0.67530  -0.67273  -0.67118  -0.65339  -0.65181
 Alpha  occ. eigenvalues --   -0.64903  -0.64695  -0.64669  -0.64574  -0.64304
 Alpha  occ. eigenvalues --   -0.64141  -0.62362  -0.62202  -0.60479  -0.60276
 Alpha  occ. eigenvalues --   -0.59853  -0.59702  -0.59031  -0.58919  -0.58549
 Alpha  occ. eigenvalues --   -0.58353  -0.57645  -0.57477  -0.57351  -0.57172
 Alpha  occ. eigenvalues --   -0.56355  -0.56131  -0.56049  -0.55806  -0.55564
 Alpha  occ. eigenvalues --   -0.55383  -0.55381  -0.55184  -0.54575  -0.54422
 Alpha  occ. eigenvalues --   -0.53948  -0.53811  -0.53340  -0.53271  -0.53160
 Alpha  occ. eigenvalues --   -0.53064  -0.52970  -0.52823  -0.52798  -0.52596
 Alpha  occ. eigenvalues --   -0.52463  -0.52350  -0.51960  -0.51818  -0.51669
 Alpha  occ. eigenvalues --   -0.51573  -0.51244  -0.51128  -0.50606  -0.50415
 Alpha  occ. eigenvalues --   -0.50061  -0.49958  -0.49900  -0.49806  -0.49562
 Alpha  occ. eigenvalues --   -0.49411  -0.49263  -0.49147  -0.49122  -0.49011
 Alpha  occ. eigenvalues --   -0.48647  -0.48498  -0.48490  -0.48474  -0.48317
 Alpha  occ. eigenvalues --   -0.48275  -0.47739  -0.47518  -0.47339  -0.47049
 Alpha  occ. eigenvalues --   -0.46838  -0.46635  -0.46609  -0.46461  -0.46402
 Alpha  occ. eigenvalues --   -0.46208  -0.46202  -0.46019  -0.45878  -0.45745
 Alpha  occ. eigenvalues --   -0.45234  -0.45149  -0.44630  -0.44548  -0.44439
 Alpha  occ. eigenvalues --   -0.44389  -0.44185  -0.44136  -0.44068  -0.44040
 Alpha  occ. eigenvalues --   -0.44015  -0.43868  -0.43554  -0.43477  -0.43429
 Alpha  occ. eigenvalues --   -0.43305  -0.43072  -0.42854  -0.42826  -0.42768
 Alpha  occ. eigenvalues --   -0.42692  -0.42494  -0.42049  -0.41895  -0.41751
 Alpha  occ. eigenvalues --   -0.41593  -0.41584  -0.41374  -0.41185  -0.40914
 Alpha  occ. eigenvalues --   -0.40904  -0.40862  -0.40654  -0.40618  -0.40606
 Alpha  occ. eigenvalues --   -0.40426  -0.40293  -0.40136  -0.39464  -0.39373
 Alpha  occ. eigenvalues --   -0.38503  -0.38286  -0.37807  -0.37565  -0.37356
 Alpha  occ. eigenvalues --   -0.37316  -0.37198  -0.37113  -0.36781  -0.36696
 Alpha  occ. eigenvalues --   -0.36245  -0.36146  -0.34330  -0.34179  -0.33849
 Alpha  occ. eigenvalues --   -0.33784  -0.33232  -0.33102  -0.31380  -0.31221
 Alpha  occ. eigenvalues --   -0.31079  -0.30898  -0.30086  -0.29882  -0.29491
 Alpha  occ. eigenvalues --   -0.29367  -0.29259  -0.29140  -0.24124  -0.23961
 Alpha  occ. eigenvalues --   -0.21169  -0.21043
 Alpha virt. eigenvalues --   -0.08817  -0.08720  -0.01790  -0.01613  -0.00100
 Alpha virt. eigenvalues --    0.00040   0.02153   0.02277   0.03073   0.03292
 Alpha virt. eigenvalues --    0.04669   0.04817   0.05019   0.05245   0.06112

 Mulliken charges:
               1
     1  Mg   0.838600
     2  C   -0.003153
     3  C   -0.094148
     4  C   -0.045775
     5  C   -0.063871
     6  N   -0.256792
     7  C   -0.052535
     8  C   -0.014003
     9  C   -0.087011
    10  C    0.046288
    11  C    0.104787
    12  C    0.053483
    13  C   -0.071668
    14  H    0.035555
    15  N   -0.433142
    16  C    0.168438
    17  C   -0.177103
    18  C   -0.003924
    19  C    0.148702
    20  C    0.110149
    21  C    0.012316
    22  O   -0.249484
    23  C    0.062457
    24  N   -0.341125
    25  C    0.041275
    26  C   -0.028224
    27  C   -0.024015
    28  C    0.074837
    29  C    0.076130
    30  C    0.035098
    31  C   -0.004568
    32  N   -0.310425
    33  C    0.080334
    34  C   -0.169756
    35  C    0.008257
    36  C    0.082911
    37  C    0.127341
    38  C    0.045962
    39  O   -0.188711
    40  C   -0.005272
    41  C    0.212856
    42  O   -0.257522
    43  O   -0.304633
    44  C    0.157869
    45  H   -0.017531
    46  H   -0.016686
    47  H   -0.041342
    48  H    0.000898
    49  H   -0.004031
    50  H    0.025477
    51  H    0.016559
    52  H    0.016724
    53  H    0.011245
    54  H    0.043796
    55  H    0.017990
    56  H    0.018096
    57  H    0.005892
    58  H    0.026949
    59  H    0.039647
    60  H    0.037416
    61  H    0.035749
    62  H    0.031505
    63  H    0.016683
    64  H    0.009556
    65  H    0.023368
    66  H    0.012519
    67  H    0.004861
    68  H    0.006613
    69  H    0.004840
    70  H    0.008855
    71  H    0.018457
    72  H    0.028696
    73  H    0.047366
    74  H    0.009289
    75  H    0.046066
    76  H    0.035214
    77  H    0.042906
    78  H    0.046441
    79  H    0.053133
    80  Mg   0.837872
    81  C   -0.016807
    82  C   -0.087614
    83  C   -0.045645
    84  C   -0.064931
    85  N   -0.254602
    86  C   -0.049597
    87  C   -0.015160
    88  C   -0.090482
    89  C    0.045749
    90  C    0.114222
    91  C    0.062475
    92  C   -0.077898
    93  H    0.034605
    94  N   -0.423501
    95  C    0.162877
    96  C   -0.174506
    97  C   -0.008011
    98  C    0.152228
    99  C    0.099345
   100  C    0.015443
   101  O   -0.253503
   102  C    0.061241
   103  N   -0.350025
   104  C    0.037579
   105  C   -0.019824
   106  C   -0.034811
   107  C    0.088941
   108  C    0.073723
   109  C    0.034791
   110  C   -0.007635
   111  N   -0.324095
   112  C    0.078474
   113  C   -0.163197
   114  C    0.002285
   115  C    0.096195
   116  C    0.131484
   117  C    0.042349
   118  O   -0.187981
   119  C    0.000961
   120  C    0.211222
   121  O   -0.251180
   122  O   -0.305467
   123  C    0.152093
   124  H   -0.019163
   125  H   -0.015884
   126  H   -0.040613
   127  H   -0.000292
   128  H   -0.004281
   129  H    0.022775
   130  H    0.014674
   131  H    0.017334
   132  H    0.013762
   133  H    0.037470
   134  H    0.021233
   135  H    0.019648
   136  H    0.009075
   137  H    0.026075
   138  H    0.039601
   139  H    0.038210
   140  H    0.036073
   141  H    0.033909
   142  H    0.014195
   143  H    0.012416
   144  H    0.024735
   145  H    0.011691
   146  H    0.005646
   147  H    0.006027
   148  H    0.003611
   149  H    0.010800
   150  H    0.017793
   151  H    0.030234
   152  H    0.045863
   153  H    0.008371
   154  H    0.047017
   155  H    0.035398
   156  H    0.043872
   157  H    0.049649
   158  H    0.053393
 Sum of Mulliken charges =  -0.00000

 Dipole moment (field-independent basis, Debye):
    X=             -4.5246    Y=              1.7492    Z=              5.5053  Tot=              7.3375
 Quadrupole moment (field-independent basis, Debye-Ang):
   XX=           -518.3567   YY=           -508.6005   ZZ=           -490.6385
   XY=            -36.7534   XZ=              9.5162   YZ=             -9.2700

 Normal termination of Gaussian 16 at Sun Sep 12 08:38:35 2021.
