 Gaussian 16, Revision A.03,
 Gaussian 16:  ES64L-G16RevA.03 25-Dec-2016

 -----------------------------------
 #p cam-b3lyp/Def2SVP td=(nstates=5)
 -----------------------------------

 --------------------------------
 TDDFT excited states in gaussian
 --------------------------------
 Symbolic Z-matrix:
 Charge =  0 Multiplicity = 1

                         Standard orientation:
 ---------------------------------------------------------------------
 Center     Atomic      Atomic             Coordinates (Angstroms)
 Number     Number       Type             X           Y           Z
 ---------------------------------------------------------------------
      1         12           0        6.460633   -1.001668    0.212058
      2          6           0        7.100875    2.106272   -1.444146
      3          6           0        7.615469    0.455819    3.073028
      4          6           0        6.332572   -3.855697    1.588553
      5          6           0        6.443139   -2.504356   -2.932347
      6          7           0        7.230755    1.030348    0.634513
      7          6           0        7.368609    2.146678   -0.073989
      8          6           0        7.752212    3.384203    0.791317
      9          6           0        8.422966    2.630151    2.025615
     10          6           0        7.688325    1.304684    1.928846
     11          6           0        9.916624    2.378057    1.846911
     12          6           0        6.498551    4.209739    1.236910
     13          6           0        6.799475    5.600773    1.802441
     14          1           0        5.869023    6.685061    1.526895
     15          7           0        6.440139   -1.502710    2.122918
     16          6           0        6.940259   -0.781228    3.154727
     17          6           0        6.681417   -1.578600    4.372874
     18          6           0        6.160909   -2.906851    3.945188
     19          6           0        6.317105   -2.816531    2.515915
     20          6           0        6.881095   -1.050029    5.760134
     21          6           0        5.619897   -4.076574    4.704917
     22          8           0        5.439731   -5.218195    4.158276
     23          6           0        5.386560   -3.872789    6.146120
     24          7           0        6.614481   -2.945669   -0.532808
     25          6           0        6.464773   -4.005717    0.268984
     26          6           0        6.333040   -5.273801   -0.521301
     27          6           0        6.179824   -4.829692   -2.047422
     28          6           0        6.341309   -3.300283   -1.865483
     29          6           0        7.496868   -6.266300   -0.393001
     30          6           0        4.938278   -5.354580   -2.811277
     31          6           0        3.683283   -4.735697   -2.237630
     32          7           0        6.545005   -0.324330   -1.848316
     33          6           0        6.546600   -1.124994   -2.999666
     34          6           0        6.725732   -0.223427   -4.152556
     35          6           0        6.833206    1.045567   -3.586915
     36          6           0        6.754187    0.940267   -2.168831
     37          6           0        6.828868   -0.622447   -5.514385
     38          6           0        7.021106    2.463224   -3.849211
     39          8           0        7.057188    3.159926   -4.864493
     40          6           0        7.324022    3.192776   -2.466525
     41          6           0        6.449370    4.414804   -2.396240
     42          8           0        5.209046    4.309526   -2.307485
     43          8           0        7.215746    5.499648   -2.205645
     44          6           0        6.407365    6.743413   -2.097380
     45          1           0        8.173130    0.730623    3.970490
     46          1           0        6.179303   -4.849224    2.014993
     47          1           0        6.362982   -2.892164   -3.949516
     48          1           0        8.474968    4.056188    0.328193
     49          1           0        8.197842    3.119902    2.972814
     50          1           0       10.248222    2.643758    0.843234
     51          1           0       10.054926    1.311216    2.023587
     52          1           0       10.490759    2.886971    2.621606
     53          1           0        6.055455    3.743569    2.116917
     54          1           0        5.785056    4.300452    0.417141
     55          1           0        7.821566    5.908796    1.580264
     56          1           0        6.764674    5.542027    2.890346
     57          1           0        7.427417   -0.107666    5.754879
     58          1           0        7.544509   -1.745747    6.273522
     59          1           0        5.941610   -0.966690    6.306719
     60          1           0        6.323817   -3.590318    6.626024
     61          1           0        4.915577   -4.786598    6.506647
     62          1           0        4.708168   -3.029408    6.278185
     63          1           0        5.446968   -5.831531   -0.220902
     64          1           0        7.023817   -5.156638   -2.655251
     65          1           0        7.192855   -7.255670   -0.050322
     66          1           0        8.238451   -5.831351    0.276450
     67          1           0        8.081033   -6.405730   -1.302247
     68          1           0        4.847504   -6.433616   -2.691330
     69          1           0        4.968337   -5.141028   -3.879801
     70          1           0        3.464431   -5.376015   -1.383858
     71          1           0        2.874419   -4.769196   -2.968265
     72          1           0        3.873579   -3.733525   -1.853018
     73          1           0        6.216883    0.076620   -6.084252
     74          1           0        6.490607   -1.649090   -5.652900
     75          1           0        7.900717   -0.510420   -5.677007
     76          1           0        8.383404    3.447340   -2.471915
     77          1           0        6.780751    7.435627   -2.852136
     78          1           0        6.458401    7.056347   -1.054368
     79          1           0        5.359927    6.664591   -2.390636
     80         12           0       -6.628122    0.958280    0.440150
     81          6           0       -6.940816   -2.364015   -0.880305
     82          6           0       -5.649699    1.943712   -2.675324
     83          6           0       -5.911321    3.793772    1.670450
     84          6           0       -6.513705   -0.465441    3.619090
     85          7           0       -6.368393   -0.158297   -1.451425
     86          6           0       -6.576190   -1.404841   -1.848014
     87          6           0       -6.460485   -1.619824   -3.380974
     88          6           0       -5.511538   -0.371615   -3.727892
     89          6           0       -5.886297    0.549857   -2.568971
     90          6           0       -4.030262   -0.694048   -3.621980
     91          6           0       -7.846984   -1.506474   -4.106780
     92          6           0       -7.858973   -2.008082   -5.552459
     93          1           0       -9.061132   -2.672072   -6.048858
     94          7           0       -6.364971    2.713841   -0.447163
     95          6           0       -5.988493    2.931576   -1.724706
     96          6           0       -5.918828    4.392792   -1.880135
     97          6           0       -6.124754    5.016890   -0.544917
     98          6           0       -6.120870    3.839412    0.299848
     99          6           0       -5.755898    5.062379   -3.213750
    100          6           0       -6.284310    6.439220   -0.100270
    101          8           0       -6.213395    6.770216    1.135950
    102          6           0       -6.432743    7.445283   -1.162011
    103          7           0       -6.052718    1.564632    2.343725
    104          6           0       -5.853346    2.864378    2.624486
    105          6           0       -5.718073    3.086604    4.112007
    106          6           0       -6.110991    1.693474    4.792008
    107          6           0       -6.328732    0.843866    3.520732
    108          6           0       -4.333948    3.516967    4.597180
    109          6           0       -7.236853    1.725209    5.861624
    110          6           0       -8.557173    2.070134    5.211119
    111          7           0       -6.893598   -1.019130    1.269261
    112          6           0       -6.776674   -1.398621    2.624401
    113          6           0       -6.930541   -2.866830    2.680206
    114          6           0       -7.104721   -3.245189    1.340427
    115          6           0       -7.042229   -2.096315    0.506340
    116          6           0       -6.852126   -3.667446    3.854496
    117          6           0       -7.316640   -4.356447    0.441055
    118          8           0       -7.536512   -5.558702    0.582439
    119          6           0       -7.093637   -3.850216   -1.049045
    120          6           0       -8.241754   -4.346072   -1.884779
    121          8           0       -9.397585   -3.936568   -1.677454
    122          8           0       -7.758200   -5.050236   -2.924353
    123          6           0       -8.858655   -5.553834   -3.788777
    124          1           0       -5.115993    2.314026   -3.551054
    125          1           0       -5.769838    4.760973    2.158270
    126          1           0       -6.588182   -0.973700    4.582831
    127          1           0       -5.979895   -2.545256   -3.674901
    128          1           0       -5.784704    0.080178   -4.677960
    129          1           0       -3.860606   -1.679745   -3.214849
    130          1           0       -3.610554    0.061600   -2.970908
    131          1           0       -3.544723   -0.558950   -4.592718
    132          1           0       -8.078137   -0.446552   -4.273751
    133          1           0       -8.612966   -2.004794   -3.545028
    134          1           0       -6.966851   -2.599891   -5.790840
    135          1           0       -7.794352   -1.145182   -6.219722
    136          1           0       -5.464565    4.345194   -3.991033
    137          1           0       -4.896520    5.736439   -3.130254
    138          1           0       -6.634016    5.643492   -3.503383
    139          1           0       -5.564979    7.410454   -1.816394
    140          1           0       -6.623892    8.388364   -0.646313
    141          1           0       -7.300769    7.180464   -1.776022
    142          1           0       -6.406012    3.850499    4.453038
    143          1           0       -5.259894    1.246650    5.326636
    144          1           0       -4.344859    4.471230    5.156942
    145          1           0       -3.678066    3.586656    3.739565
    146          1           0       -3.818184    2.791618    5.224120
    147          1           0       -7.038861    2.509154    6.596729
    148          1           0       -7.342039    0.792580    6.405819
    149          1           0       -8.527567    3.162497    5.156764
    150          1           0       -9.387740    1.727864    5.825166
    151          1           0       -8.600974    1.690049    4.183858
    152          1           0       -7.659632   -4.385129    3.796504
    153          1           0       -6.922408   -3.060634    4.754837
    154          1           0       -5.856556   -4.101340    3.728618
    155          1           0       -6.137094   -4.247808   -1.390408
    156          1           0       -8.735416   -6.638699   -3.863309
    157          1           0       -8.790220   -4.973395   -4.728011
    158          1           0       -9.869865   -5.481657   -3.405789
 ---------------------------------------------------------------------

 SCF Done:  E(RCAM-B3LYP) =  -4069.81193449     A.U. after   19 cycles

 Excitation energies and oscillator strengths:

 Excited State   1:      Singlet-A      1.6693 eV  742.74 nm  f=0.1425  <S**2>=0.000
     309 -> 315        0.10551
     310 -> 316        0.13609
     311 -> 313        0.41847
     312 -> 314        0.54401
 This state for optimization and/or second-order correction.
 Total Energy, E(TD-HF/TD-DFT) =  -4069.75058919
 Copying the excited state density for this state as the 1-particle RhoCI density.

 Excited State   2:      Singlet-A      1.6855 eV  735.59 nm  f=0.5930  <S**2>=0.000
     309 -> 315        0.14027
     310 -> 316       -0.10740
     311 -> 313        0.54320
     312 -> 314       -0.41796

 Excited State   3:      Singlet-A      2.1860 eV  567.17 nm  f=0.0746  <S**2>=0.000
     309 -> 313        0.13429
     310 -> 314        0.62849
     312 -> 316       -0.26667

 Excited State   4:      Singlet-A      2.1930 eV  565.35 nm  f=0.1203  <S**2>=0.000
     309 -> 313        0.62665
     310 -> 314       -0.13320
     311 -> 315       -0.27225

 Excited State   5:      Singlet-A      2.6475 eV  468.31 nm  f=0.0000  <S**2>=0.000
     312 -> 313        0.70710

 The electronic state is 1-A.
 Alpha  occ. eigenvalues --  -46.87857 -46.87550 -19.26368 -19.26266 -19.19109
 Alpha  occ. eigenvalues --  -19.19073 -19.18856 -19.18610 -19.18248 -19.17949
 Alpha  occ. eigenvalues --  -14.42509 -14.42382 -14.41508 -14.41255 -14.39461
 Alpha  occ. eigenvalues --  -14.39240 -14.38652 -14.38492 -10.39166 -10.39002
 Alpha  occ. eigenvalues --  -10.35488 -10.35286 -10.34468 -10.34127 -10.31762
 Alpha  occ. eigenvalues --  -10.31681 -10.31469 -10.31190 -10.30964 -10.30903
 Alpha  occ. eigenvalues --  -10.30636 -10.30570 -10.30295 -10.30260 -10.30249
 Alpha  occ. eigenvalues --  -10.30038 -10.29981 -10.29802 -10.29693 -10.29322
 Alpha  occ. eigenvalues --  -10.29312 -10.29293 -10.28802 -10.28594 -10.28581
 Alpha  occ. eigenvalues --  -10.28549 -10.28426 -10.28290 -10.28169 -10.27998
 Alpha  occ. eigenvalues --  -10.27889 -10.27858 -10.27785 -10.27643 -10.27552
 Alpha  occ. eigenvalues --  -10.27542 -10.27529 -10.27495 -10.27465 -10.27452
 Alpha  occ. eigenvalues --  -10.27374 -10.27354 -10.27312 -10.27311 -10.27232
 Alpha  occ. eigenvalues --  -10.26950 -10.26756 -10.26581 -10.26441 -10.26303
 Alpha  occ. eigenvalues --  -10.26283 -10.26239 -10.26090 -10.26081 -10.25933
 Alpha  occ. eigenvalues --  -10.25843 -10.25834 -10.25762 -10.25471 -10.25349
 Alpha  occ. eigenvalues --  -10.24900 -10.24844 -10.24763 -10.24750 -10.24681
 Alpha  occ. eigenvalues --  -10.24587  -3.16600  -3.16300  -1.91482  -1.91182
 Alpha  occ. eigenvalues --   -1.91068  -1.90910  -1.90771  -1.90608  -1.16717
 Alpha  occ. eigenvalues --   -1.16558  -1.08708  -1.08558  -1.07255  -1.06863
 Alpha  occ. eigenvalues --   -1.06858  -1.06730  -1.04640  -1.04379  -1.03819
 Alpha  occ. eigenvalues --   -1.03554  -1.03295  -1.02934  -1.02472  -1.02004
 Alpha  occ. eigenvalues --   -0.92038  -0.91879  -0.89578  -0.89406  -0.89242
 Alpha  occ. eigenvalues --   -0.89022  -0.88341  -0.88140  -0.87943  -0.87730
 Alpha  occ. eigenvalues --   -0.87691  -0.87571  -0.87326  -0.87000  -0.85036
 Alpha  occ. eigenvalues --   -0.84882  -0.83993  -0.83803  -0.83013  -0.82826
 Alpha  occ. eigenvalues --   -0.82703  -0.82538  -0.81656  -0.81500  -0.80658
 Alpha  occ. eigenvalues --   -0.80339  -0.78856  -0.78520  -0.77276  -0.77035
 Alpha  occ. eigenvalues --   -0.76993  -0.76798  -0.75985  -0.75721  -0.74952
 Alpha  occ. eigenvalues --   -0.74720  -0.72837  -0.72592  -0.71729  -0.71474
 Alpha  occ. eigenvalues --   -0.69963  -0.69687  -0.68928  -0.68712  -0.67701
 Alpha  occ. eigenvalues --   -0.67498  -0.67270  -0.67088  -0.65345  -0.65158
 Alpha  occ. eigenvalues --   -0.64917  -0.64681  -0.64668  -0.64551  -0.64326
 Alpha  occ. eigenvalues --   -0.64119  -0.62370  -0.62187  -0.60495  -0.60232
 Alpha  occ. eigenvalues --   -0.59861  -0.59674  -0.59048  -0.58890  -0.58566
 Alpha  occ. eigenvalues --   -0.58324  -0.57659  -0.57456  -0.57368  -0.57142
 Alpha  occ. eigenvalues --   -0.56373  -0.56095  -0.56049  -0.55789  -0.55576
 Alpha  occ. eigenvalues --   -0.55402  -0.55345  -0.55167  -0.54590  -0.54408
 Alpha  occ. eigenvalues --   -0.53949  -0.53788  -0.53357  -0.53278  -0.53126
 Alpha  occ. eigenvalues --   -0.53032  -0.52981  -0.52805  -0.52798  -0.52544
 Alpha  occ. eigenvalues --   -0.52497  -0.52335  -0.51994  -0.51790  -0.51672
 Alpha  occ. eigenvalues --   -0.51541  -0.51261  -0.51103  -0.50617  -0.50356
 Alpha  occ. eigenvalues --   -0.50084  -0.49968  -0.49865  -0.49775  -0.49569
 Alpha  occ. eigenvalues --   -0.49373  -0.49278  -0.49154  -0.49087  -0.48988
 Alpha  occ. eigenvalues --   -0.48659  -0.48517  -0.48498  -0.48449  -0.48296
 Alpha  occ. eigenvalues --   -0.48229  -0.47751  -0.47484  -0.47352  -0.47009
 Alpha  occ. eigenvalues --   -0.46857  -0.46610  -0.46608  -0.46436  -0.46421
 Alpha  occ. eigenvalues --   -0.46227  -0.46167  -0.45995  -0.45895  -0.45727
 Alpha  occ. eigenvalues --   -0.45253  -0.45125  -0.44648  -0.44557  -0.44415
 Alpha  occ. eigenvalues --   -0.44360  -0.44203  -0.44143  -0.44079  -0.44015
 Alpha  occ. eigenvalues --   -0.43984  -0.43828  -0.43566  -0.43462  -0.43440
 Alpha  occ. eigenvalues --   -0.43279  -0.43088  -0.42838  -0.42803  -0.42772
 Alpha  occ. eigenvalues --   -0.42717  -0.42467  -0.42069  -0.41875  -0.41767
 Alpha  occ. eigenvalues --   -0.41587  -0.41566  -0.41351  -0.41197  -0.40923
 Alpha  occ. eigenvalues --   -0.40877  -0.40866  -0.40626  -0.40614  -0.40591
 Alpha  occ. eigenvalues --   -0.40406  -0.40283  -0.40114  -0.39496  -0.39358
 Alpha  occ. eigenvalues --   -0.38520  -0.38267  -0.37801  -0.37544  -0.37376
 Alpha  occ. eigenvalues --   -0.37321  -0.37173  -0.37084  -0.36788  -0.36686
 Alpha  occ. eigenvalues --   -0.36257  -0.36126  -0.34348  -0.34147  -0.33855
 Alpha  occ. eigenvalues --   -0.33770  -0.33249  -0.33068  -0.31386  -0.31170
 Alpha  occ. eigenvalues --   -0.31094  -0.30865  -0.30108  -0.29855  -0.29509
 Alpha  occ. eigenvalues --   -0.29389  -0.29214  -0.29103  -0.24141  -0.23926
 Alpha  occ. eigenvalues --   -0.21188  -0.21007
 Alpha virt. eigenvalues --   -0.08835  -0.08680  -0.01807  -0.01577  -0.00112
 Alpha virt. eigenvalues --    0.00086   0.02131   0.02308   0.03053   0.03323
 Alpha virt. eigenvalues --    0.04662   0.04846   0.05015   0.05256   0.06127

 Mulliken charges:
               1
     1  Mg   0.838550
     2  C   -0.003059
     3  C   -0.094079
     4  C   -0.045752
     5  C   -0.064061
     6  N   -0.256817
     7  C   -0.052476
     8  C   -0.014018
     9  C   -0.087009
    10  C    0.046401
    11  C    0.104773
    12  C    0.053439
    13  C   -0.071961
    14  H    0.036357
    15  N   -0.433191
    16  C    0.168557
    17  C   -0.177057
    18  C   -0.003825
    19  C    0.148790
    20  C    0.110156
    21  C    0.012430
    22  O   -0.249172
    23  C    0.062415
    24  N   -0.341114
    25  C    0.041274
    26  C   -0.028307
    27  C   -0.023938
    28  C    0.074763
    29  C    0.076087
    30  C    0.035133
    31  C   -0.004497
    32  N   -0.310331
    33  C    0.080182
    34  C   -0.170205
    35  C    0.008176
    36  C    0.082732
    37  C    0.127454
    38  C    0.045741
    39  O   -0.188938
    40  C   -0.005173
    41  C    0.212809
    42  O   -0.257559
    43  O   -0.304648
    44  C    0.157814
    45  H   -0.017416
    46  H   -0.016502
    47  H   -0.041707
    48  H    0.000931
    49  H   -0.003884
    50  H    0.025479
    51  H    0.016497
    52  H    0.016827
    53  H    0.011289
    54  H    0.043918
    55  H    0.017884
    56  H    0.018144
    57  H    0.005976
    58  H    0.027057
    59  H    0.039635
    60  H    0.037402
    61  H    0.036045
    62  H    0.031390
    63  H    0.016904
    64  H    0.009501
    65  H    0.023581
    66  H    0.012582
    67  H    0.004799
    68  H    0.006790
    69  H    0.004357
    70  H    0.009480
    71  H    0.017499
    72  H    0.028675
    73  H    0.046846
    74  H    0.008915
    75  H    0.046143
    76  H    0.035258
    77  H    0.042872
    78  H    0.046738
    79  H    0.053251
    80  Mg   0.837948
    81  C   -0.016755
    82  C   -0.087265
    83  C   -0.045372
    84  C   -0.065041
    85  N   -0.254548
    86  C   -0.049824
    87  C   -0.015100
    88  C   -0.090499
    89  C    0.045585
    90  C    0.114069
    91  C    0.062519
    92  C   -0.077789
    93  H    0.034458
    94  N   -0.423634
    95  C    0.162842
    96  C   -0.173719
    97  C   -0.007812
    98  C    0.152392
    99  C    0.098993
   100  C    0.015691
   101  O   -0.253576
   102  C    0.061162
   103  N   -0.349958
   104  C    0.037610
   105  C   -0.019808
   106  C   -0.034687
   107  C    0.088823
   108  C    0.073766
   109  C    0.034862
   110  C   -0.007607
   111  N   -0.324050
   112  C    0.078304
   113  C   -0.163339
   114  C    0.002224
   115  C    0.096097
   116  C    0.131494
   117  C    0.042259
   118  O   -0.188252
   119  C    0.000932
   120  C    0.211255
   121  O   -0.251148
   122  O   -0.305625
   123  C    0.152111
   124  H   -0.018349
   125  H   -0.015853
   126  H   -0.040945
   127  H   -0.000805
   128  H   -0.004185
   129  H    0.022076
   130  H    0.015661
   131  H    0.017121
   132  H    0.013906
   133  H    0.037440
   134  H    0.020784
   135  H    0.019776
   136  H    0.009432
   137  H    0.027321
   138  H    0.039530
   139  H    0.038876
   140  H    0.036016
   141  H    0.033772
   142  H    0.014148
   143  H    0.011921
   144  H    0.024578
   145  H    0.012274
   146  H    0.004954
   147  H    0.005742
   148  H    0.003400
   149  H    0.010805
   150  H    0.017674
   151  H    0.030397
   152  H    0.045734
   153  H    0.008106
   154  H    0.046993
   155  H    0.035048
   156  H    0.043666
   157  H    0.049546
   158  H    0.053445
 Sum of Mulliken charges =  -0.00000

 Dipole moment (field-independent basis, Debye):
    X=              4.5185    Y=              2.4793    Z=              1.0486  Tot=              5.2596
 Quadrupole moment (field-independent basis, Debye-Ang):
   XX=           -520.9152   YY=           -532.5517   ZZ=           -465.5453
   XY=            -17.5165   XZ=             51.9358   YZ=             28.7406

 Normal termination of Gaussian 16 at Sat Sep  4 07:22:37 2021.
