 Gaussian 16, Revision A.03,
 Gaussian 16:  ES64L-G16RevA.03 25-Dec-2016

 -----------------------------------
 #p cam-b3lyp/Def2SVP td=(nstates=5)
 -----------------------------------

 --------------------------------
 TDDFT excited states in gaussian
 --------------------------------
 Symbolic Z-matrix:
 Charge =  0 Multiplicity = 1

                         Standard orientation:
 ---------------------------------------------------------------------
 Center     Atomic      Atomic             Coordinates (Angstroms)
 Number     Number       Type             X           Y           Z
 ---------------------------------------------------------------------
      1         12           0       16.137824    0.500455    0.649354
      2          6           0       16.403743   -2.454134   -1.353620
      3          6           0       17.096795    2.273510   -2.103775
      4          6           0       16.350680    3.061675    2.507166
      5          6           0       16.314395   -1.562316    3.452826
      6          7           0       16.654814   -0.124107   -1.410571
      7          6           0       16.659332   -1.280485   -2.066269
      8          6           0       16.887055   -1.120600   -3.599224
      9          6           0       17.639340    0.285124   -3.596695
     10          6           0       17.070833    0.862547   -2.312442
     11          6           0       19.153205    0.165736   -3.453646
     12          6           0       15.541016   -1.048594   -4.395921
     13          6           0       15.669254   -1.220511   -5.912282
     14          1           0       14.615527   -1.922857   -6.629023
     15          7           0       16.170723    2.420507    0.185489
     16          6           0       16.575896    2.963390   -0.987711
     17          6           0       16.410724    4.425326   -0.838901
     18          6           0       16.056390    4.700995    0.581151
     19          6           0       16.206027    3.390976    1.161527
     20          6           0       16.539631    5.388223   -1.979060
     21          6           0       15.657940    5.949320    1.302992
     22          8           0       15.619326    6.014125    2.579269
     23          6           0       15.396102    7.135747    0.468203
     24          7           0       16.528607    0.749834    2.684724
     25          6           0       16.505153    1.962578    3.248361
     26          6           0       16.530856    1.869582    4.745234
     27          6           0       16.330926    0.324595    5.095661
     28          6           0       16.305489   -0.242793    3.654934
     29          6           0       17.805706    2.386486    5.426099
     30          6           0       15.164960   -0.034707    6.050566
     31          6           0       13.842105    0.247328    5.374099
     32          7           0       16.147582   -1.637630    1.022905
     33          6           0       16.250476   -2.275629    2.267511
     34          6           0       16.323666   -3.724764    2.005367
     35          6           0       16.274640   -3.828792    0.616620
     36          6           0       16.203468   -2.525747    0.046270
     37          6           0       16.479575   -4.742471    2.987406
     38          6           0       16.290658   -4.736427   -0.519074
     39          8           0       16.246105   -5.960320   -0.651712
     40          6           0       16.497747   -3.877601   -1.843974
     41          6           0       15.481411   -4.343038   -2.850820
     42          8           0       14.262601   -4.148541   -2.666324
     43          8           0       16.110168   -4.726397   -3.972534
     44          6           0       15.156839   -5.172162   -5.023539
     45          1           0       17.613646    2.904920   -2.829122
     46          1           0       16.317092    3.912667    3.190629
     47          1           0       16.285671   -2.271785    4.281851
     48          1           0       17.524986   -1.883431   -4.045943
     49          1           0       17.352964    0.901473   -4.448649
     50          1           0       19.454093   -0.861240   -3.246990
     51          1           0       19.418878    0.815452   -2.619511
     52          1           0       19.658558    0.578051   -4.327369
     53          1           0       15.154180   -0.030320   -4.356708
     54          1           0       14.824957   -1.774994   -4.010008
     55          1           0       16.647421   -1.616102   -6.187249
     56          1           0       15.637617   -0.232610   -6.371901
     57          1           0       16.967947    4.911160   -2.859685
     58          1           0       17.280356    6.131820   -1.685630
     59          1           0       15.594862    5.881179   -2.208706
     60          1           0       16.290441    7.375249   -0.107423
     61          1           0       15.037745    7.908311    1.147597
     62          1           0       14.620154    6.892165   -0.258104
     63          1           0       15.717615    2.444143    5.186759
     64          1           0       17.210614   -0.102652    5.577618
     65          1           0       17.622303    3.169854    6.161900
     66          1           0       18.486631    2.731835    4.648688
     67          1           0       18.405954    1.619546    5.914895
     68          1           0       15.204935    0.583104    6.947035
     69          1           0       15.173087   -1.078053    6.366184
     70          1           0       13.699034    1.312277    5.553672
     71          1           0       13.046061   -0.337017    5.836771
     72          1           0       13.908271    0.104790    4.295307
     73          1           0       15.789714   -5.540168    2.712197
     74          1           0       16.268542   -4.363653    3.987188
     75          1           0       17.530617   -4.996139    2.850223
     76          1           0       17.518563   -4.059088   -2.178819
     77          1           0       15.446647   -6.182601   -5.312084
     78          1           0       15.165615   -4.403160   -5.796173
     79          1           0       14.127771   -5.337032   -4.702330
     80         12           0      -15.602157    0.485844   -0.316348
     81          6           0      -18.133964   -1.826003    0.744012
     82          6           0      -18.106324    2.723662   -0.912923
     83          6           0      -13.450518    2.380273   -1.676145
     84          6           0      -13.475039   -2.244753   -0.722491
     85          7           0      -17.796637    0.349645   -0.075635
     86          6           0      -18.640387   -0.556984    0.393907
     87          6           0      -20.097019   -0.050087    0.569485
     88          6           0      -20.064822    1.148773   -0.498489
     89          6           0      -18.569179    1.457262   -0.474631
     90          6           0      -20.440067    0.712151   -1.904873
     91          6           0      -20.374670    0.480056    2.019956
     92          6           0      -21.851973    0.701913    2.351763
     93          1           0      -22.309190    0.425665    3.710844
     94          7           0      -15.668720    2.429860   -0.709984
     95          6           0      -16.771402    3.184257   -0.900376
     96          6           0      -16.285127    4.544417   -1.179056
     97          6           0      -14.802647    4.496883   -1.300433
     98          6           0      -14.580053    3.065683   -1.253169
     99          6           0      -17.192513    5.739364   -1.225593
    100          6           0      -13.759222    5.562424   -1.448995
    101          8           0      -12.552058    5.281827   -1.775878
    102          6           0      -14.213952    6.951702   -1.292018
    103          7           0      -13.804094    0.107087   -1.288909
    104          6           0      -13.036339    1.114684   -1.739729
    105          6           0      -11.671597    0.617734   -2.153146
    106          6           0      -11.599180   -0.901103   -1.657693
    107          6           0      -13.030688   -1.053295   -1.098199
    108          6           0      -11.366242    0.679742   -3.649574
    109          6           0      -10.403657   -1.287173   -0.744284
    110          6           0      -10.529222   -0.591243    0.591874
    111          7           0      -15.682604   -1.627621    0.125077
    112          6           0      -14.691715   -2.595032   -0.151187
    113          6           0      -15.249368   -3.909721    0.227021
    114          6           0      -16.544721   -3.616269    0.679160
    115          6           0      -16.785134   -2.219908    0.570178
    116          6           0      -14.591382   -5.164065    0.086303
    117          6           0      -17.767176   -4.171571    1.213889
    118          8           0      -18.119600   -5.285631    1.599095
    119          6           0      -18.895586   -3.053398    1.161225
    120          6           0      -19.587445   -3.028440    2.496593
    121          8           0      -18.972807   -2.681350    3.520490
    122          8           0      -20.908204   -3.206995    2.311972
    123          6           0      -21.638985   -3.178987    3.606969
    124          1           0      -18.826642    3.417402   -1.347388
    125          1           0      -12.634380    3.002258   -2.051009
    126          1           0      -12.839497   -3.132858   -0.727016
    127          1           0      -20.863129   -0.767320    0.300346
    128          1           0      -20.636305    2.004649   -0.148877
    129          1           0      -20.552221   -0.359426   -1.977601
    130          1           0      -19.635199    1.052503   -2.543144
    131          1           0      -21.335205    1.244713   -2.238684
    132          1           0      -20.007051    1.511112    2.100813
    133          1           0      -19.932801   -0.166485    2.753004
    134          1           0      -22.514982    0.225981    1.619052
    135          1           0      -22.072030    1.768246    2.259443
    136          1           0      -18.247700    5.441919   -1.264444
    137          1           0      -17.015431    6.238177   -2.184601
    138          1           0      -16.997887    6.447759   -0.417528
    139          1           0      -14.991604    7.161866   -2.022464
    140          1           0      -13.310567    7.562508   -1.343980
    141          1           0      -14.673457    7.059797   -0.303189
    142          1           0      -10.889060    1.184655   -1.663913
    143          1           0      -11.515552   -1.601452   -2.501698
    144          1           0      -10.459332    1.267715   -3.885978
    145          1           0      -12.228820    1.090589   -4.157217
    146          1           0      -11.249497   -0.286433   -4.137501
    147          1           0       -9.464175   -0.945082   -1.185324
    148          1           0      -10.312414   -2.355799   -0.580872
    149          1           0      -10.106789    0.398676    0.395181
    150          1           0       -9.959437   -1.119236    1.353842
    151          1           0      -11.581491   -0.452106    0.865791
    152          1           0      -14.776687   -5.716818    0.997694
    153          1           0      -13.525788   -5.036228   -0.092359
    154          1           0      -15.110238   -5.559117   -0.791193
    155          1           0      -19.577963   -3.314483    0.351422
    156          1           0      -22.204336   -4.113560    3.675056
    157          1           0      -22.220345   -2.237846    3.601632
    158          1           0      -21.050141   -3.221319    4.515767
 ---------------------------------------------------------------------

 SCF Done:  E(RCAM-B3LYP) =  -4069.81177476     A.U. after   19 cycles

 Excitation energies and oscillator strengths:

 Excited State   1:      Singlet-A      1.6753 eV  740.08 nm  f=0.2133  <S**2>=0.000
     310 -> 316        0.16864
     311 -> 313        0.66668
     312 -> 314       -0.16190
     310 <- 316        0.10167
 This state for optimization and/or second-order correction.
 Total Energy, E(TD-HF/TD-DFT) =  -4069.75020926
 Copying the excited state density for this state as the 1-particle RhoCI density.

 Excited State   2:      Singlet-A      1.6801 eV  737.95 nm  f=0.5641  <S**2>=0.000
     309 -> 315        0.17066
     311 -> 313        0.16185
     312 -> 314        0.66631
     309 <- 315        0.10218

 Excited State   3:      Singlet-A      2.1861 eV  567.15 nm  f=0.1025  <S**2>=0.000
     310 -> 313        0.64246
     311 -> 316       -0.27312

 Excited State   4:      Singlet-A      2.1925 eV  565.48 nm  f=0.0989  <S**2>=0.000
     309 -> 314        0.64069
     312 -> 315       -0.27830

 Excited State   5:      Singlet-A      3.0610 eV  405.04 nm  f=0.0000  <S**2>=0.000
     312 -> 313        0.70710

 The electronic state is 1-A.
 Alpha  occ. eigenvalues --  -46.87766 -46.87660 -19.26350 -19.26256 -19.19161
 Alpha  occ. eigenvalues --  -19.18991 -19.18784 -19.18714 -19.18140 -19.18051
 Alpha  occ. eigenvalues --  -14.42498 -14.42420 -14.41420 -14.41358 -14.39373
 Alpha  occ. eigenvalues --  -14.39352 -14.38599 -14.38557 -10.39090 -10.39051
 Alpha  occ. eigenvalues --  -10.35418 -10.35392 -10.34360 -10.34228 -10.31756
 Alpha  occ. eigenvalues --  -10.31651 -10.31376 -10.31309 -10.31024 -10.30879
 Alpha  occ. eigenvalues --  -10.30540 -10.30478 -10.30397 -10.30360 -10.30177
 Alpha  occ. eigenvalues --  -10.30140 -10.29893 -10.29891 -10.29601 -10.29437
 Alpha  occ. eigenvalues --  -10.29400 -10.29224 -10.28720 -10.28720 -10.28656
 Alpha  occ. eigenvalues --  -10.28510 -10.28405 -10.28335 -10.28142 -10.28088
 Alpha  occ. eigenvalues --  -10.28001 -10.27763 -10.27698 -10.27670 -10.27554
 Alpha  occ. eigenvalues --  -10.27513 -10.27484 -10.27470 -10.27469 -10.27465
 Alpha  occ. eigenvalues --  -10.27451 -10.27419 -10.27374 -10.27372 -10.27129
 Alpha  occ. eigenvalues --  -10.27051 -10.26694 -10.26675 -10.26417 -10.26379
 Alpha  occ. eigenvalues --  -10.26207 -10.26152 -10.26128 -10.26028 -10.25989
 Alpha  occ. eigenvalues --  -10.25933 -10.25848 -10.25814 -10.25406 -10.25395
 Alpha  occ. eigenvalues --  -10.24873 -10.24803 -10.24758 -10.24720 -10.24689
 Alpha  occ. eigenvalues --  -10.24654  -3.16509  -3.16410  -1.91391  -1.91292
 Alpha  occ. eigenvalues --   -1.90977  -1.90881  -1.90820  -1.90718  -1.16643
 Alpha  occ. eigenvalues --   -1.16604  -1.08659  -1.08598  -1.07185  -1.06967
 Alpha  occ. eigenvalues --   -1.06945  -1.06614  -1.04551  -1.04495  -1.03731
 Alpha  occ. eigenvalues --   -1.03663  -1.03204  -1.03038  -1.02381  -1.02111
 Alpha  occ. eigenvalues --   -0.91987  -0.91943  -0.89492  -0.89489  -0.89159
 Alpha  occ. eigenvalues --   -0.89152  -0.88257  -0.88217  -0.87841  -0.87793
 Alpha  occ. eigenvalues --   -0.87684  -0.87643  -0.87244  -0.87121  -0.85000
 Alpha  occ. eigenvalues --   -0.84953  -0.83906  -0.83872  -0.82937  -0.82931
 Alpha  occ. eigenvalues --   -0.82653  -0.82619  -0.81596  -0.81557  -0.80567
 Alpha  occ. eigenvalues --   -0.80443  -0.78767  -0.78635  -0.77189  -0.77144
 Alpha  occ. eigenvalues --   -0.76905  -0.76898  -0.75894  -0.75839  -0.74868
 Alpha  occ. eigenvalues --   -0.74801  -0.72744  -0.72698  -0.71643  -0.71581
 Alpha  occ. eigenvalues --   -0.69876  -0.69752  -0.68844  -0.68828  -0.67611
 Alpha  occ. eigenvalues --   -0.67601  -0.67201  -0.67190  -0.65272  -0.65257
 Alpha  occ. eigenvalues --   -0.64824  -0.64769  -0.64653  -0.64591  -0.64239
 Alpha  occ. eigenvalues --   -0.64201  -0.62278  -0.62269  -0.60412  -0.60339
 Alpha  occ. eigenvalues --   -0.59797  -0.59775  -0.58992  -0.58958  -0.58474
 Alpha  occ. eigenvalues --   -0.58425  -0.57555  -0.57554  -0.57279  -0.57235
 Alpha  occ. eigenvalues --   -0.56280  -0.56204  -0.55950  -0.55886  -0.55490
 Alpha  occ. eigenvalues --   -0.55452  -0.55310  -0.55245  -0.54494  -0.54485
 Alpha  occ. eigenvalues --   -0.53914  -0.53866  -0.53269  -0.53227  -0.53192
 Alpha  occ. eigenvalues --   -0.53142  -0.52902  -0.52885  -0.52726  -0.52669
 Alpha  occ. eigenvalues --   -0.52407  -0.52394  -0.51885  -0.51883  -0.51659
 Alpha  occ. eigenvalues --   -0.51587  -0.51200  -0.51166  -0.50542  -0.50476
 Alpha  occ. eigenvalues --   -0.50001  -0.49980  -0.49888  -0.49865  -0.49488
 Alpha  occ. eigenvalues --   -0.49485  -0.49203  -0.49185  -0.49105  -0.49067
 Alpha  occ. eigenvalues --   -0.48564  -0.48559  -0.48431  -0.48416  -0.48374
 Alpha  occ. eigenvalues --   -0.48339  -0.47665  -0.47594  -0.47267  -0.47118
 Alpha  occ. eigenvalues --   -0.46767  -0.46708  -0.46555  -0.46526  -0.46329
 Alpha  occ. eigenvalues --   -0.46269  -0.46133  -0.46084  -0.45822  -0.45793
 Alpha  occ. eigenvalues --   -0.45207  -0.45171  -0.44548  -0.44514  -0.44477
 Alpha  occ. eigenvalues --   -0.44476  -0.44128  -0.44114  -0.44076  -0.44059
 Alpha  occ. eigenvalues --   -0.43990  -0.43940  -0.43552  -0.43466  -0.43386
 Alpha  occ. eigenvalues --   -0.43356  -0.42997  -0.42930  -0.42901  -0.42670
 Alpha  occ. eigenvalues --   -0.42625  -0.42550  -0.41979  -0.41961  -0.41674
 Alpha  occ. eigenvalues --   -0.41669  -0.41504  -0.41458  -0.41112  -0.40990
 Alpha  occ. eigenvalues --   -0.40839  -0.40793  -0.40722  -0.40698  -0.40541
 Alpha  occ. eigenvalues --   -0.40490  -0.40228  -0.40205  -0.39420  -0.39410
 Alpha  occ. eigenvalues --   -0.38439  -0.38348  -0.37719  -0.37654  -0.37290
 Alpha  occ. eigenvalues --   -0.37264  -0.37234  -0.37200  -0.36770  -0.36684
 Alpha  occ. eigenvalues --   -0.36216  -0.36163  -0.34256  -0.34253  -0.33862
 Alpha  occ. eigenvalues --   -0.33741  -0.33175  -0.33157  -0.31314  -0.31273
 Alpha  occ. eigenvalues --   -0.31006  -0.30973  -0.30000  -0.29956  -0.29419
 Alpha  occ. eigenvalues --   -0.29327  -0.29292  -0.29211  -0.24051  -0.24036
 Alpha  occ. eigenvalues --   -0.21117  -0.21098
 Alpha virt. eigenvalues --   -0.08792  -0.08744  -0.01720  -0.01683  -0.00029
 Alpha virt. eigenvalues --   -0.00028   0.02208   0.02230   0.03152   0.03229
 Alpha virt. eigenvalues --    0.04729   0.04747   0.05127   0.05165   0.06181

 Mulliken charges:
               1
     1  Mg   0.838696
     2  C   -0.002962
     3  C   -0.094111
     4  C   -0.045850
     5  C   -0.063961
     6  N   -0.256771
     7  C   -0.052469
     8  C   -0.014026
     9  C   -0.086996
    10  C    0.046319
    11  C    0.104818
    12  C    0.053469
    13  C   -0.071803
    14  H    0.036135
    15  N   -0.433120
    16  C    0.168426
    17  C   -0.177149
    18  C   -0.003998
    19  C    0.148722
    20  C    0.110181
    21  C    0.012303
    22  O   -0.249617
    23  C    0.062463
    24  N   -0.341117
    25  C    0.041234
    26  C   -0.028186
    27  C   -0.023954
    28  C    0.074837
    29  C    0.076179
    30  C    0.035116
    31  C   -0.004502
    32  N   -0.310470
    33  C    0.080421
    34  C   -0.169717
    35  C    0.008345
    36  C    0.082999
    37  C    0.127312
    38  C    0.046118
    39  O   -0.188458
    40  C   -0.005327
    41  C    0.212860
    42  O   -0.257084
    43  O   -0.304806
    44  C    0.157699
    45  H   -0.017620
    46  H   -0.016835
    47  H   -0.041490
    48  H    0.000919
    49  H   -0.004030
    50  H    0.025461
    51  H    0.016440
    52  H    0.016638
    53  H    0.011228
    54  H    0.044131
    55  H    0.017846
    56  H    0.017955
    57  H    0.005864
    58  H    0.026806
    59  H    0.039585
    60  H    0.037323
    61  H    0.035667
    62  H    0.031540
    63  H    0.016578
    64  H    0.009441
    65  H    0.023213
    66  H    0.012527
    67  H    0.004736
    68  H    0.006368
    69  H    0.004730
    70  H    0.008797
    71  H    0.018179
    72  H    0.028982
    73  H    0.047575
    74  H    0.009120
    75  H    0.045984
    76  H    0.035128
    77  H    0.042925
    78  H    0.046398
    79  H    0.053695
    80  Mg   0.837851
    81  C   -0.016840
    82  C   -0.087808
    83  C   -0.045502
    84  C   -0.064862
    85  N   -0.254564
    86  C   -0.049829
    87  C   -0.015102
    88  C   -0.090496
    89  C    0.045752
    90  C    0.114384
    91  C    0.062536
    92  C   -0.077907
    93  H    0.034923
    94  N   -0.423481
    95  C    0.162913
    96  C   -0.174642
    97  C   -0.007811
    98  C    0.152124
    99  C    0.099375
   100  C    0.015580
   101  O   -0.253172
   102  C    0.061183
   103  N   -0.350069
   104  C    0.037514
   105  C   -0.019833
   106  C   -0.034846
   107  C    0.088929
   108  C    0.073653
   109  C    0.034720
   110  C   -0.007700
   111  N   -0.324114
   112  C    0.078457
   113  C   -0.163099
   114  C    0.002246
   115  C    0.096213
   116  C    0.131479
   117  C    0.042390
   118  O   -0.187842
   119  C    0.000900
   120  C    0.211263
   121  O   -0.250995
   122  O   -0.305643
   123  C    0.152023
   124  H   -0.019684
   125  H   -0.015560
   126  H   -0.040380
   127  H   -0.000655
   128  H   -0.004328
   129  H    0.022450
   130  H    0.014414
   131  H    0.016263
   132  H    0.013927
   133  H    0.037691
   134  H    0.020772
   135  H    0.019589
   136  H    0.008749
   137  H    0.026116
   138  H    0.039800
   139  H    0.038228
   140  H    0.036398
   141  H    0.033914
   142  H    0.014449
   143  H    0.012442
   144  H    0.025169
   145  H    0.011582
   146  H    0.005696
   147  H    0.006356
   148  H    0.003727
   149  H    0.010945
   150  H    0.018050
   151  H    0.030044
   152  H    0.046053
   153  H    0.008592
   154  H    0.046933
   155  H    0.035007
   156  H    0.043914
   157  H    0.049485
   158  H    0.053604
 Sum of Mulliken charges =  -0.00000

 Dipole moment (field-independent basis, Debye):
    X=             -0.0120    Y=              6.7517    Z=             -4.3588  Tot=              8.0365
 Quadrupole moment (field-independent basis, Debye-Ang):
   XX=           -353.9624   YY=           -544.5810   ZZ=           -482.0914
   XY=            -28.6848   XZ=             -5.7714   YZ=             -6.8009

 Normal termination of Gaussian 16 at Sun Sep 12 09:46:00 2021.
