 Gaussian 16, Revision A.03,
 Gaussian 16:  ES64L-G16RevA.03 25-Dec-2016

 -----------------------------------
 #p cam-b3lyp/Def2SVP td=(nstates=5)
 -----------------------------------

 --------------------------------
 TDDFT excited states in gaussian
 --------------------------------
 Symbolic Z-matrix:
 Charge =  0 Multiplicity = 1

                         Standard orientation:
 ---------------------------------------------------------------------
 Center     Atomic      Atomic             Coordinates (Angstroms)
 Number     Number       Type             X           Y           Z
 ---------------------------------------------------------------------
      1         12           0        5.081785    1.129369    0.364484
      2          6           0        6.045693   -2.111212   -0.810987
      3          6           0        5.753523    2.301901   -2.768725
      4          6           0        4.674362    4.064653    1.493525
      5          6           0        5.578233   -0.059920    3.602507
      6          7           0        5.800834    0.124419   -1.472277
      7          6           0        6.075747   -1.132427   -1.806839
      8          6           0        6.325520   -1.325114   -3.332572
      9          6           0        6.763081    0.161913   -3.705789
     10          6           0        6.034627    0.912917   -2.605211
     11          6           0        8.261051    0.410547   -3.561676
     12          6           0        5.027540   -1.749674   -4.098552
     13          6           0        5.249602   -2.272215   -5.520872
     14          1           0        4.397524   -3.343580   -6.014318
     15          7           0        4.726720    2.827651   -0.580300
     16          6           0        5.054512    3.126086   -1.860446
     17          6           0        4.578364    4.506824   -2.091803
     18          6           0        4.117414    5.054049   -0.785601
     19          6           0        4.517199    3.999753    0.111066
     20          6           0        4.546287    5.150403   -3.444034
     21          6           0        3.435719    6.330032   -0.404431
     22          8           0        3.333394    6.709391    0.812200
     23          6           0        2.962622    7.178674   -1.513046
     24          7           0        5.329528    1.969001    2.259550
     25          6           0        5.027885    3.251364    2.490936
     26          6           0        5.012916    3.552206    3.960361
     27          6           0        5.130134    2.142639    4.701397
     28          6           0        5.282661    1.233716    3.456863
     29          6           0        6.121559    4.486996    4.463440
     30          6           0        4.029265    1.798286    5.735770
     31          6           0        2.704751    1.607441    5.031257
     32          7           0        5.528182   -0.788403    1.277680
     33          6           0        5.713821   -1.049298    2.643017
     34          6           0        6.101956   -2.466688    2.763112
     35          6           0        6.131465   -2.930588    1.449426
     36          6           0        5.809383   -1.863478    0.562955
     37          6           0        6.430076   -3.141324    3.972094
     38          6           0        6.384200   -4.073306    0.586768
     39          8           0        6.604586   -5.270484    0.775679
     40          6           0        6.457837   -3.558336   -0.918294
     41          6           0        5.603791   -4.472590   -1.753790
     42          8           0        4.365034   -4.503358   -1.605796
     43          8           0        6.343595   -4.986157   -2.748516
     44          6           0        5.548689   -5.879659   -3.632785
     45          1           0        6.153807    2.822316   -3.641011
     46          1           0        4.434479    5.034502    1.934306
     47          1           0        5.667015   -0.522735    4.587075
     48          1           0        7.127534   -2.021713   -3.577411
     49          1           0        6.387161    0.463525   -4.683254
     50          1           0        8.763652   -0.440134   -3.101618
     51          1           0        8.349946    1.293378   -2.928272
     52          1           0        8.702320    0.684007   -4.520465
     53          1           0        4.433030   -0.862715   -4.317466
     54          1           0        4.466321   -2.489190   -3.526297
     55          1           0        6.299444   -2.505749   -5.700321
     56          1           0        5.028301   -1.465364   -6.219597
     57          1           0        5.100519    4.567217   -4.178381
     58          1           0        5.100857    6.085234   -3.364970
     59          1           0        3.528621    5.353766   -3.777696
     60          1           0        3.808400    7.448903   -2.145647
     61          1           0        2.422302    8.003921   -1.050584
     62          1           0        2.285271    6.596866   -2.138861
     63          1           0        4.079681    4.032420    4.251723
     64          1           0        6.060291    2.051819    5.262853
     65          1           0        5.747566    5.374370    4.974715
     66          1           0        6.744601    4.759616    3.612095
     67          1           0        6.850317    4.017806    5.123888
     68          1           0        3.901997    2.618602    6.441341
     69          1           0        4.245065    0.897286    6.310121
     70          1           0        2.332842    2.626574    4.931843
     71          1           0        2.032340    1.004322    5.642258
     72          1           0        2.842527    1.211243    4.025011
     73          1           0        5.935884   -4.111586    3.923773
     74          1           0        6.104048   -2.573676    4.843348
     75          1           0        7.515604   -3.190198    3.887852
     76          1           0        7.506480   -3.596223   -1.211612
     77          1           0        6.056732   -6.843831   -3.655128
     78          1           0        5.425597   -5.350575   -4.577942
     79          1           0        4.565714   -6.173520   -3.262992
     80         12           0       -5.243279   -1.224347    0.232183
     81          6           0       -5.738502    1.960638   -1.345686
     82          6           0       -4.768746    0.465904    3.156642
     83          6           0       -4.360081   -3.967816    1.559125
     84          6           0       -4.625881   -2.541401   -2.934816
     85          7           0       -5.275249    0.933726    0.715841
     86          6           0       -5.535009    2.047269    0.047338
     87          6           0       -5.658620    3.315596    0.933690
     88          6           0       -4.782810    2.820516    2.185387
     89          6           0       -4.977615    1.312776    2.038929
     90          6           0       -3.301270    3.126855    2.042042
     91          6           0       -7.142017    3.610667    1.351385
     92          6           0       -7.376451    4.997116    1.955169
     93          1           0       -8.637381    5.676273    1.670124
     94          7           0       -5.132168   -1.749801    2.142713
     95          6           0       -4.960917   -0.932403    3.202817
     96          6           0       -4.924993   -1.808082    4.384375
     97          6           0       -4.923765   -3.222096    3.920403
     98          6           0       -4.781169   -3.030403    2.491062
     99          6           0       -4.976088   -1.281596    5.789228
    100          6           0       -5.020398   -4.530681    4.644609
    101          8           0       -4.759448   -5.642826    4.063334
    102          6           0       -5.338616   -4.464518    6.078424
    103          7           0       -4.381523   -2.951361   -0.540563
    104          6           0       -4.148476   -4.018295    0.243840
    105          6           0       -3.784102   -5.231024   -0.578906
    106          6           0       -4.057869   -4.816889   -2.099146
    107          6           0       -4.466253   -3.342126   -1.890062
    108          6           0       -2.343798   -5.722793   -0.437140
    109          6           0       -5.003237   -5.736431   -2.919750
    110          6           0       -6.410891   -5.646359   -2.375900
    111          7           0       -5.364449   -0.505868   -1.801815
    112          6           0       -5.035293   -1.214783   -2.977902
    113          6           0       -5.169879   -0.271542   -4.106881
    114          6           0       -5.548721    0.936419   -3.502060
    115          6           0       -5.623917    0.763807   -2.093496
    116          6           0       -4.904488   -0.566873   -5.473797
    117          6           0       -5.891790    2.321067   -3.733912
    118          8           0       -6.079801    3.013859   -4.733117
    119          6           0       -5.906992    3.078704   -2.336722
    120          6           0       -7.168496    3.894750   -2.264557
    121          8           0       -8.280224    3.338309   -2.232145
    122          8           0       -6.848899    5.180021   -2.027293
    123          6           0       -8.067735    6.027349   -1.936232
    124          1           0       -4.380400    0.905928    4.075583
    125          1           0       -4.149953   -4.964303    1.954534
    126          1           0       -4.546071   -2.900477   -3.963100
    127          1           0       -5.224304    4.211875    0.507276
    128          1           0       -5.203531    3.169878    3.124703
    129          1           0       -3.064354    3.522748    1.065677
    130          1           0       -2.789597    2.187102    2.203613
    131          1           0       -2.973937    3.790606    2.847410
    132          1           0       -7.402654    2.983665    2.213762
    133          1           0       -7.808020    3.459432    0.524226
    134          1           0       -6.528952    5.671196    1.781061
    135          1           0       -7.421827    4.898926    3.042515
    136          1           0       -4.805357   -0.198388    5.819323
    137          1           0       -4.118203   -1.706672    6.321397
    138          1           0       -5.892060   -1.564845    6.312147
    139          1           0       -4.583378   -3.871715    6.588982
    140          1           0       -5.452541   -5.501371    6.400637
    141          1           0       -6.290234   -3.935472    6.201545
    142          1           0       -4.414917   -6.074147   -0.325305
    143          1           0       -3.131159   -4.805382   -2.691525
    144          1           0       -2.272893   -6.779299   -0.116448
    145          1           0       -1.830176   -5.077546    0.263128
    146          1           0       -1.732259   -5.625224   -1.332517
    147          1           0       -4.697614   -6.780698   -2.818503
    148          1           0       -5.016713   -5.506155   -3.979831
    149          1           0       -6.396596   -6.348212   -1.536679
    150          1           0       -7.133448   -5.948893   -3.131172
    151          1           0       -6.612180   -4.648951   -1.968082
    152          1           0       -5.706899   -0.124803   -6.049318
    153          1           0       -4.837030   -1.639534   -5.642967
    154          1           0       -3.938201   -0.070391   -5.596557
    155          1           0       -5.013094    3.702042   -2.292321
    156          1           0       -7.951226    6.834177   -2.666389
    157          1           0       -8.150113    6.318852   -0.872278
    158          1           0       -9.007228    5.589647   -2.252806
 ---------------------------------------------------------------------

 SCF Done:  E(RCAM-B3LYP) =  -4069.81195139     A.U. after   19 cycles

 Excitation energies and oscillator strengths:

 Excited State   1:      Singlet-A      1.6621 eV  745.94 nm  f=0.1023  <S**2>=0.000
     309 -> 315       -0.10743
     310 -> 316       -0.13263
     311 -> 313       -0.43246
     312 -> 314        0.53357
 This state for optimization and/or second-order correction.
 Total Energy, E(TD-HF/TD-DFT) =  -4069.75086944
 Copying the excited state density for this state as the 1-particle RhoCI density.

 Excited State   2:      Singlet-A      1.6901 eV  733.59 nm  f=0.6097  <S**2>=0.000
     309 -> 315        0.13827
     310 -> 316       -0.11161
     311 -> 313        0.53208
     312 -> 314        0.43129

 Excited State   3:      Singlet-A      2.1834 eV  567.84 nm  f=0.0524  <S**2>=0.000
     309 -> 313        0.23389
     310 -> 314        0.59983
     312 -> 316        0.25202

 Excited State   4:      Singlet-A      2.1944 eV  565.01 nm  f=0.1362  <S**2>=0.000
     309 -> 313        0.59633
     310 -> 314       -0.23156
     311 -> 315       -0.26062
     312 -> 316       -0.10215

 Excited State   5:      Singlet-A      2.4855 eV  498.84 nm  f=0.0000  <S**2>=0.000
     312 -> 313        0.70709

 The electronic state is 1-A.
 Alpha  occ. eigenvalues --  -46.87885 -46.87493 -19.26367 -19.26279 -19.19107
 Alpha  occ. eigenvalues --  -19.19078 -19.18905 -19.18552 -19.18241 -19.17948
 Alpha  occ. eigenvalues --  -14.42533 -14.42333 -14.41546 -14.41176 -14.39489
 Alpha  occ. eigenvalues --  -14.39188 -14.38672 -14.38444 -10.39166 -10.39005
 Alpha  occ. eigenvalues --  -10.35536 -10.35230 -10.34462 -10.34126 -10.31765
 Alpha  occ. eigenvalues --  -10.31701 -10.31482 -10.31162 -10.30986 -10.30863
 Alpha  occ. eigenvalues --  -10.30650 -10.30600 -10.30309 -10.30238 -10.30220
 Alpha  occ. eigenvalues --  -10.30026 -10.29943 -10.29713 -10.29701 -10.29337
 Alpha  occ. eigenvalues --  -10.29268 -10.29259 -10.28816 -10.28598 -10.28577
 Alpha  occ. eigenvalues --  -10.28547 -10.28444 -10.28252 -10.28178 -10.27984
 Alpha  occ. eigenvalues --  -10.27870 -10.27856 -10.27805 -10.27664 -10.27646
 Alpha  occ. eigenvalues --  -10.27592 -10.27515 -10.27509 -10.27488 -10.27343
 Alpha  occ. eigenvalues --  -10.27328 -10.27320 -10.27269 -10.27235 -10.27086
 Alpha  occ. eigenvalues --  -10.26947 -10.26770 -10.26572 -10.26468 -10.26381
 Alpha  occ. eigenvalues --  -10.26289 -10.26272 -10.26116 -10.25937 -10.25914
 Alpha  occ. eigenvalues --  -10.25838 -10.25770 -10.25760 -10.25565 -10.24946
 Alpha  occ. eigenvalues --  -10.24935 -10.24909 -10.24886 -10.24734 -10.24556
 Alpha  occ. eigenvalues --  -10.24503  -3.16628  -3.16243  -1.91509  -1.91125
 Alpha  occ. eigenvalues --   -1.91096  -1.90938  -1.90713  -1.90551  -1.16716
 Alpha  occ. eigenvalues --   -1.16570  -1.08699  -1.08563  -1.07309  -1.06864
 Alpha  occ. eigenvalues --   -1.06802  -1.06728  -1.04662  -1.04336  -1.03854
 Alpha  occ. eigenvalues --   -1.03495  -1.03321  -1.02864  -1.02500  -1.01943
 Alpha  occ. eigenvalues --   -0.92054  -0.91845  -0.89647  -0.89309  -0.89256
 Alpha  occ. eigenvalues --   -0.88999  -0.88413  -0.87997  -0.87947  -0.87755
 Alpha  occ. eigenvalues --   -0.87666  -0.87517  -0.87343  -0.86975  -0.85058
 Alpha  occ. eigenvalues --   -0.84847  -0.84078  -0.83654  -0.83054  -0.82763
 Alpha  occ. eigenvalues --   -0.82728  -0.82501  -0.81671  -0.81479  -0.80681
 Alpha  occ. eigenvalues --   -0.80305  -0.78869  -0.78493  -0.77315  -0.77022
 Alpha  occ. eigenvalues --   -0.76990  -0.76736  -0.76000  -0.75700  -0.75012
 Alpha  occ. eigenvalues --   -0.74557  -0.72862  -0.72543  -0.71761  -0.71387
 Alpha  occ. eigenvalues --   -0.70066  -0.69541  -0.68950  -0.68678  -0.67727
 Alpha  occ. eigenvalues --   -0.67444  -0.67291  -0.67062  -0.65366  -0.65130
 Alpha  occ. eigenvalues --   -0.64946  -0.64718  -0.64617  -0.64505  -0.64388
 Alpha  occ. eigenvalues --   -0.64005  -0.62390  -0.62155  -0.60528  -0.60171
 Alpha  occ. eigenvalues --   -0.59876  -0.59648  -0.59080  -0.58825  -0.58594
 Alpha  occ. eigenvalues --   -0.58270  -0.57666  -0.57445  -0.57410  -0.57062
 Alpha  occ. eigenvalues --   -0.56387  -0.56069  -0.56061  -0.55772  -0.55600
 Alpha  occ. eigenvalues --   -0.55459  -0.55322  -0.55066  -0.54637  -0.54312
 Alpha  occ. eigenvalues --   -0.53965  -0.53763  -0.53388  -0.53296  -0.53073
 Alpha  occ. eigenvalues --   -0.53009  -0.53001  -0.52827  -0.52764  -0.52601
 Alpha  occ. eigenvalues --   -0.52524  -0.52212  -0.51991  -0.51778  -0.51685
 Alpha  occ. eigenvalues --   -0.51523  -0.51291  -0.51062  -0.50637  -0.50323
 Alpha  occ. eigenvalues --   -0.50158  -0.49994  -0.49820  -0.49636  -0.49590
 Alpha  occ. eigenvalues --   -0.49341  -0.49291  -0.49167  -0.49069  -0.48961
 Alpha  occ. eigenvalues --   -0.48677  -0.48569  -0.48525  -0.48425  -0.48200
 Alpha  occ. eigenvalues --   -0.48140  -0.47781  -0.47438  -0.47379  -0.46941
 Alpha  occ. eigenvalues --   -0.46896  -0.46628  -0.46542  -0.46452  -0.46398
 Alpha  occ. eigenvalues --   -0.46259  -0.46111  -0.45904  -0.45903  -0.45691
 Alpha  occ. eigenvalues --   -0.45320  -0.44951  -0.44662  -0.44595  -0.44376
 Alpha  occ. eigenvalues --   -0.44322  -0.44255  -0.44164  -0.44095  -0.43982
 Alpha  occ. eigenvalues --   -0.43906  -0.43805  -0.43583  -0.43476  -0.43429
 Alpha  occ. eigenvalues --   -0.43217  -0.43118  -0.42825  -0.42823  -0.42767
 Alpha  occ. eigenvalues --   -0.42739  -0.42355  -0.42130  -0.41795  -0.41792
 Alpha  occ. eigenvalues --   -0.41613  -0.41517  -0.41300  -0.41227  -0.40968
 Alpha  occ. eigenvalues --   -0.40908  -0.40807  -0.40689  -0.40568  -0.40540
 Alpha  occ. eigenvalues --   -0.40303  -0.40279  -0.40091  -0.39615  -0.39217
 Alpha  occ. eigenvalues --   -0.38592  -0.38123  -0.37824  -0.37513  -0.37434
 Alpha  occ. eigenvalues --   -0.37338  -0.37083  -0.37044  -0.36811  -0.36657
 Alpha  occ. eigenvalues --   -0.36294  -0.36031  -0.34373  -0.34091  -0.33859
 Alpha  occ. eigenvalues --   -0.33764  -0.33275  -0.33013  -0.31436  -0.31125
 Alpha  occ. eigenvalues --   -0.31108  -0.30807  -0.30101  -0.29855  -0.29529
 Alpha  occ. eigenvalues --   -0.29400  -0.29179  -0.29073  -0.24168  -0.23872
 Alpha  occ. eigenvalues --   -0.21214  -0.20952
 Alpha virt. eigenvalues --   -0.08857  -0.08637  -0.01842  -0.01507  -0.00136
 Alpha virt. eigenvalues --    0.00121   0.02117   0.02342   0.03010   0.03384
 Alpha virt. eigenvalues --    0.04635   0.04892   0.05015   0.05255   0.06102

 Mulliken charges:
               1
     1  Mg   0.838617
     2  C   -0.002907
     3  C   -0.093560
     4  C   -0.046354
     5  C   -0.064071
     6  N   -0.256748
     7  C   -0.052428
     8  C   -0.014050
     9  C   -0.087074
    10  C    0.046271
    11  C    0.104727
    12  C    0.053382
    13  C   -0.071796
    14  H    0.035629
    15  N   -0.433165
    16  C    0.168382
    17  C   -0.176653
    18  C   -0.004043
    19  C    0.148612
    20  C    0.109943
    21  C    0.011859
    22  O   -0.250483
    23  C    0.062454
    24  N   -0.341010
    25  C    0.041244
    26  C   -0.028125
    27  C   -0.023820
    28  C    0.074439
    29  C    0.076173
    30  C    0.035333
    31  C   -0.004327
    32  N   -0.310489
    33  C    0.080314
    34  C   -0.169585
    35  C    0.008517
    36  C    0.082950
    37  C    0.127296
    38  C    0.046205
    39  O   -0.188162
    40  C   -0.005418
    41  C    0.213093
    42  O   -0.257508
    43  O   -0.304617
    44  C    0.157795
    45  H   -0.017143
    46  H   -0.017297
    47  H   -0.041711
    48  H    0.001055
    49  H   -0.003609
    50  H    0.025506
    51  H    0.016450
    52  H    0.016998
    53  H    0.011560
    54  H    0.043694
    55  H    0.018061
    56  H    0.018467
    57  H    0.006259
    58  H    0.026990
    59  H    0.040662
    60  H    0.037803
    61  H    0.035382
    62  H    0.032275
    63  H    0.015518
    64  H    0.009696
    65  H    0.022880
    66  H    0.012992
    67  H    0.004902
    68  H    0.005835
    69  H    0.004995
    70  H    0.007367
    71  H    0.016639
    72  H    0.029887
    73  H    0.047946
    74  H    0.008835
    75  H    0.046109
    76  H    0.035364
    77  H    0.043198
    78  H    0.046496
    79  H    0.053093
    80  Mg   0.838023
    81  C   -0.017212
    82  C   -0.088035
    83  C   -0.044814
    84  C   -0.064339
    85  N   -0.254693
    86  C   -0.049959
    87  C   -0.015102
    88  C   -0.090506
    89  C    0.046001
    90  C    0.114529
    91  C    0.062556
    92  C   -0.077738
    93  H    0.034233
    94  N   -0.423646
    95  C    0.163385
    96  C   -0.174621
    97  C   -0.007334
    98  C    0.152290
    99  C    0.099416
   100  C    0.015701
   101  O   -0.252342
   102  C    0.061241
   103  N   -0.350029
   104  C    0.038522
   105  C   -0.020581
   106  C   -0.034349
   107  C    0.089019
   108  C    0.072408
   109  C    0.034662
   110  C   -0.007540
   111  N   -0.323919
   112  C    0.078278
   113  C   -0.163603
   114  C    0.001667
   115  C    0.096216
   116  C    0.131660
   117  C    0.041638
   118  O   -0.189322
   119  C    0.001189
   120  C    0.211147
   121  O   -0.251070
   122  O   -0.305762
   123  C    0.152175
   124  H   -0.019871
   125  H   -0.014565
   126  H   -0.040920
   127  H   -0.000899
   128  H   -0.004635
   129  H    0.022318
   130  H    0.014682
   131  H    0.017124
   132  H    0.013810
   133  H    0.037394
   134  H    0.020988
   135  H    0.019543
   136  H    0.008494
   137  H    0.025956
   138  H    0.039543
   139  H    0.038081
   140  H    0.036427
   141  H    0.033508
   142  H    0.013816
   143  H    0.013310
   144  H    0.025289
   145  H    0.014811
   146  H    0.009000
   147  H    0.006516
   148  H    0.002797
   149  H    0.011023
   150  H    0.017180
   151  H    0.029779
   152  H    0.045381
   153  H    0.008424
   154  H    0.045749
   155  H    0.034104
   156  H    0.043307
   157  H    0.049684
   158  H    0.053418
 Sum of Mulliken charges =  -0.00000

 Dipole moment (field-independent basis, Debye):
    X=              3.4153    Y=              3.7051    Z=              0.9098  Tot=              5.1206
 Quadrupole moment (field-independent basis, Debye-Ang):
   XX=           -523.3208   YY=           -532.8776   ZZ=           -463.5586
   XY=             15.9007   XZ=            -49.8344   YZ=             28.9211

 Normal termination of Gaussian 16 at Sat Sep  4 03:15:55 2021.
