 Gaussian 16, Revision A.03,
 Gaussian 16:  ES64L-G16RevA.03 25-Dec-2016

 -----------------------------------
 #p cam-b3lyp/Def2SVP td=(nstates=5)
 -----------------------------------

 --------------------------------
 TDDFT excited states in gaussian
 --------------------------------
 Symbolic Z-matrix:
 Charge =  0 Multiplicity = 1

                         Standard orientation:
 ---------------------------------------------------------------------
 Center     Atomic      Atomic             Coordinates (Angstroms)
 Number     Number       Type             X           Y           Z
 ---------------------------------------------------------------------
      1         12           0       -3.997595    0.252428    0.068834
      2          6           0       -3.278811    3.753886    0.256871
      3          6           0       -4.760101    0.737254   -3.221545
      4          6           0       -5.069657   -2.731040   -0.010037
      5          6           0       -4.277322    0.273614    3.542588
      6          7           0       -3.980712    2.062070   -1.206140
      7          6           0       -3.627824    3.331248   -1.027735
      8          6           0       -3.590714    4.153947   -2.350294
      9          6           0       -4.598553    3.277086   -3.220565
     10          6           0       -4.410501    1.936476   -2.532577
     11          6           0       -6.056282    3.702516   -3.077254
     12          6           0       -2.161760    4.187699   -2.989579
     13          6           0       -1.965040    5.228918   -4.095253
     14          1           0       -0.675433    5.893000   -4.210394
     15          7           0       -4.330350   -0.949298   -1.463477
     16          6           0       -4.608920   -0.579941   -2.736764
     17          6           0       -4.773875   -1.836430   -3.498804
     18          6           0       -4.756167   -2.964149   -2.526164
     19          6           0       -4.744155   -2.248989   -1.275652
     20          6           0       -4.878099   -1.885334   -4.992289
     21          6           0       -4.761486   -4.450450   -2.696498
     22          8           0       -4.977523   -5.246268   -1.719475
     23          6           0       -4.592813   -4.954720   -4.071381
     24          7           0       -4.806429   -1.004840    1.525782
     25          6           0       -5.135203   -2.269570    1.240561
     26          6           0       -5.422625   -3.053339    2.486768
     27          6           0       -4.983868   -2.120867    3.706498
     28          6           0       -4.573682   -0.861021    2.904746
     29          6           0       -6.880496   -3.493246    2.679397
     30          6           0       -3.970178   -2.714805    4.716493
     31          6           0       -2.628604   -2.905630    4.045031
     32          7           0       -3.644747    1.685748    1.660104
     33          6           0       -3.848671    1.488063    3.033425
     34          6           0       -3.576586    2.774723    3.700166
     35          6           0       -3.247231    3.641454    2.659903
     36          6           0       -3.335131    2.947444    1.419372
     37          6           0       -3.705273    3.035174    5.093019
     38          6           0       -2.865434    4.998861    2.305596
     39          8           0       -2.550104    6.005169    2.942309
     40          6           0       -2.989001    5.157990    0.725964
     41          6           0       -1.728689    5.817119    0.235586
     42          8           0       -0.631333    5.226225    0.299004
     43          8           0       -2.044472    6.931248   -0.442306
     44          6           0       -0.840390    7.617990   -0.981497
     45          1           0       -5.248142    0.811121   -4.195352
     46          1           0       -5.338056   -3.789121    0.019348
     47          1           0       -4.262129    0.334218    4.632335
     48          1           0       -3.965508    5.173812   -2.261809
     49          1           0       -4.287755    3.214798   -4.263277
     50          1           0       -6.176600    4.456670   -2.299632
     51          1           0       -6.599924    2.794788   -2.814619
     52          1           0       -6.461049    4.027365   -4.036114
     53          1           0       -2.003320    3.274972   -3.563938
     54          1           0       -1.399206    4.327783   -2.222629
     55          1           0       -2.773421    5.960616   -4.102092
     56          1           0       -2.048017    4.724565   -5.058032
     57          1           0       -5.027627   -0.893047   -5.416026
     58          1           0       -5.795607   -2.423279   -5.229990
     59          1           0       -4.026604   -2.392075   -5.446714
     60          1           0       -5.392543   -4.561713   -4.699493
     61          1           0       -4.532447   -6.039317   -3.988580
     62          1           0       -3.661176   -4.561954   -4.479716
     63          1           0       -4.840281   -3.973453    2.513083
     64          1           0       -5.833559   -1.827957    4.323671
     65          1           0       -7.001071   -4.570589    2.795584
     66          1           0       -7.458573   -3.124098    1.832729
     67          1           0       -7.394192   -3.019565    3.515554
     68          1           0       -4.302173   -3.695899    5.054398
     69          1           0       -3.826306   -2.091266    5.598962
     70          1           0       -2.740285   -3.868178    3.547175
     71          1           0       -1.832347   -2.941097    4.789294
     72          1           0       -2.460466   -2.156185    3.271372
     73          1           0       -2.829133    3.618243    5.376529
     74          1           0       -3.767112    2.109563    5.664878
     75          1           0       -4.638316    3.598262    5.107795
     76          1           0       -3.870418    5.771090    0.540671
     77          1           0       -0.860267    8.641678   -0.607464
     78          1           0       -0.859058    7.473588   -2.061869
     79          1           0        0.121583    7.277096   -0.597129
     80         12           0        3.682811   -1.783440    0.095736
     81          6           0        4.718014    1.647778    0.280506
     82          6           0        3.231950   -1.311491   -3.252183
     83          6           0        2.342241   -4.656592   -0.027962
     84          6           0        3.122827   -1.654882    3.533121
     85          7           0        3.972138   -0.015466   -1.201488
     86          6           0        4.428090    1.216316   -1.030679
     87          6           0        4.658217    2.005345   -2.347504
     88          6           0        3.635283    1.203187   -3.290390
     89          6           0        3.633887   -0.139649   -2.562741
     90          6           0        2.223239    1.764041   -3.260596
     91          6           0        6.133854    1.884029   -2.866908
     92          6           0        6.509923    2.873231   -3.972256
     93          1           0        7.868572    3.408047   -3.995001
     94          7           0        3.363798   -2.986290   -1.450209
     95          6           0        3.228874   -2.629357   -2.744689
     96          6           0        2.989319   -3.878649   -3.483640
     97          6           0        2.829856   -4.982931   -2.498828
     98          6           0        2.818154   -4.231484   -1.259770
     99          6           0        3.009753   -3.954049   -4.982740
    100          6           0        2.695583   -6.468135   -2.648357
    101          8           0        2.328889   -7.212794   -1.671706
    102          6           0        2.915463   -7.013917   -3.995676
    103          7           0        2.652891   -2.920381    1.498933
    104          6           0        2.221282   -4.158939    1.202899
    105          6           0        1.756183   -4.885314    2.442438
    106          6           0        2.192645   -3.960168    3.671744
    107          6           0        2.781072   -2.763984    2.891821
    108          6           0        0.256065   -5.166721    2.525088
    109          6           0        3.061341   -4.621505    4.776580
    110          6           0        4.425236   -4.966519    4.223265
    111          7           0        4.046856   -0.358764    1.678705
    112          6           0        3.710388   -0.495458    3.043324
    113          6           0        4.052828    0.779694    3.706022
    114          6           0        4.547298    1.584198    2.668353
    115          6           0        4.496488    0.868480    1.441705
    116          6           0        3.849237    1.083183    5.081724
    117          6           0        5.090800    2.879866    2.329900
    118          8           0        5.442692    3.868860    2.971627
    119          6           0        5.107678    3.022980    0.746984
    120          6           0        6.459656    3.543259    0.342028
    121          8           0        7.480387    2.854886    0.517715
    122          8           0        6.301011    4.667792   -0.379533
    123          6           0        7.613710    5.215682   -0.813648
    124          1           0        2.841530   -1.209332   -4.265112
    125          1           0        1.970922   -5.683486    0.005199
    126          1           0        3.069532   -1.569329    4.620553
    127          1           0        4.381396    3.051905   -2.304268
    128          1           0        4.030561    1.091181   -4.296649
    129          1           0        2.113310    2.539431   -2.517075
    130          1           0        1.578525    0.925735   -3.031167
    131          1           0        1.931637    2.104262   -4.258361
    132          1           0        6.244104    0.939318   -3.414723
    133          1           0        6.831180    1.966101   -2.055957
    134          1           0        5.776471    3.683106   -4.067676
    135          1           0        6.462919    2.354527   -4.932856
    136          1           0        2.985769   -2.955397   -5.436088
    137          1           0        2.065980   -4.415735   -5.292574
    138          1           0        3.838681   -4.554840   -5.363002
    139          1           0        2.212709   -6.558084   -4.689079
    140          1           0        2.864162   -8.098660   -3.883511
    141          1           0        3.918631   -6.726753   -4.330052
    142          1           0        2.246867   -5.846498    2.534413
    143          1           0        1.321267   -3.577643    4.223305
    144          1           0        0.019567   -6.240430    2.648785
    145          1           0       -0.214529   -4.773948    1.633565
    146          1           0       -0.270329   -4.636512    3.316907
    147          1           0        2.610428   -5.562885    5.100053
    148          1           0        3.182437   -4.002391    5.659199
    149          1           0        4.255326   -5.928143    3.729824
    150          1           0        5.152724   -5.058506    5.027216
    151          1           0        4.729938   -4.249568    3.452030
    152          1           0        4.743627    1.585633    5.425378
    153          1           0        3.649331    0.184623    5.661738
    154          1           0        2.970621    1.729908    5.010831
    155          1           0        4.305721    3.708934    0.471498
    156          1           0        7.660726    6.250345   -0.460176
    157          1           0        7.657816    5.054476   -1.907184
    158          1           0        8.505551    4.797183   -0.362069
 ---------------------------------------------------------------------

 SCF Done:  E(RCAM-B3LYP) =  -4069.81133147     A.U. after   19 cycles

 Excitation energies and oscillator strengths:

 Excited State   1:      Singlet-A      1.6381 eV  756.88 nm  f=0.0010  <S**2>=0.000
     309 -> 315       -0.11296
     310 -> 316        0.11932
     311 -> 313       -0.47080
     312 -> 314        0.50205
 This state for optimization and/or second-order correction.
 Total Energy, E(TD-HF/TD-DFT) =  -4069.75113265
 Copying the excited state density for this state as the 1-particle RhoCI density.

 Excited State   2:      Singlet-A      1.7117 eV  724.33 nm  f=0.6783  <S**2>=0.000
     309 -> 315        0.13452
     310 -> 316        0.12495
     311 -> 313        0.49864
     312 -> 314        0.46761

 Excited State   3:      Singlet-A      2.1776 eV  569.37 nm  f=0.0106  <S**2>=0.000
     309 -> 313       -0.34129
     310 -> 314        0.54887
     311 -> 315        0.13932
     312 -> 316       -0.22587

 Excited State   4:      Singlet-A      2.1981 eV  564.06 nm  f=0.1570  <S**2>=0.000
     309 -> 313        0.54239
     310 -> 314        0.33497
     311 -> 315       -0.24126
     312 -> 316       -0.15092

 Excited State   5:      Singlet-A      2.2394 eV  553.65 nm  f=0.0000  <S**2>=0.000
     312 -> 313        0.70709

 The electronic state is 1-A.
 Alpha  occ. eigenvalues --  -46.87900 -46.87381 -19.26370 -19.26058 -19.19112
 Alpha  occ. eigenvalues --  -19.18861 -19.18860 -19.18479 -19.18225 -19.17677
 Alpha  occ. eigenvalues --  -14.42567 -14.42221 -14.41563 -14.41082 -14.39501
 Alpha  occ. eigenvalues --  -14.39078 -14.38683 -14.38299 -10.39173 -10.38777
 Alpha  occ. eigenvalues --  -10.35495 -10.35163 -10.34450 -10.33847 -10.31756
 Alpha  occ. eigenvalues --  -10.31526 -10.31522 -10.31029 -10.31013 -10.30752
 Alpha  occ. eigenvalues --  -10.30678 -10.30599 -10.30326 -10.30100 -10.30062
 Alpha  occ. eigenvalues --  -10.30026 -10.29905 -10.29725 -10.29594 -10.29354
 Alpha  occ. eigenvalues --  -10.29181 -10.29116 -10.28919 -10.28809 -10.28500
 Alpha  occ. eigenvalues --  -10.28461 -10.28449 -10.28271 -10.28105 -10.27881
 Alpha  occ. eigenvalues --  -10.27880 -10.27846 -10.27704 -10.27678 -10.27659
 Alpha  occ. eigenvalues --  -10.27623 -10.27576 -10.27510 -10.27413 -10.27335
 Alpha  occ. eigenvalues --  -10.27305 -10.27242 -10.27195 -10.27184 -10.27110
 Alpha  occ. eigenvalues --  -10.26953 -10.26634 -10.26483 -10.26463 -10.26416
 Alpha  occ. eigenvalues --  -10.26365 -10.26263 -10.26139 -10.25972 -10.25913
 Alpha  occ. eigenvalues --  -10.25718 -10.25673 -10.25534 -10.25506 -10.25055
 Alpha  occ. eigenvalues --  -10.25022 -10.24917 -10.24887 -10.24562 -10.24556
 Alpha  occ. eigenvalues --  -10.24395  -3.16642  -3.16132  -1.91524  -1.91111
 Alpha  occ. eigenvalues --   -1.91014  -1.90952  -1.90603  -1.90439  -1.16719
 Alpha  occ. eigenvalues --   -1.16348  -1.08681  -1.08273  -1.07255  -1.06733
 Alpha  occ. eigenvalues --   -1.06731  -1.06643  -1.04697  -1.04212  -1.03872
 Alpha  occ. eigenvalues --   -1.03383  -1.03334  -1.02757  -1.02515  -1.01822
 Alpha  occ. eigenvalues --   -0.92071  -0.91664  -0.89668  -0.89349  -0.89239
 Alpha  occ. eigenvalues --   -0.88890  -0.88427  -0.87964  -0.87960  -0.87803
 Alpha  occ. eigenvalues --   -0.87481  -0.87418  -0.87370  -0.86897  -0.85134
 Alpha  occ. eigenvalues --   -0.84745  -0.84099  -0.83620  -0.83068  -0.82779
 Alpha  occ. eigenvalues --   -0.82725  -0.82402  -0.81689  -0.81314  -0.80703
 Alpha  occ. eigenvalues --   -0.80170  -0.78899  -0.78383  -0.77365  -0.77084
 Alpha  occ. eigenvalues --   -0.76894  -0.76637  -0.76044  -0.75562  -0.75030
 Alpha  occ. eigenvalues --   -0.74524  -0.72886  -0.72416  -0.71786  -0.71295
 Alpha  occ. eigenvalues --   -0.70110  -0.69529  -0.69013  -0.68574  -0.67744
 Alpha  occ. eigenvalues --   -0.67376  -0.67325  -0.66975  -0.65434  -0.65003
 Alpha  occ. eigenvalues --   -0.64968  -0.64753  -0.64499  -0.64414  -0.64381
 Alpha  occ. eigenvalues --   -0.63946  -0.62398  -0.61998  -0.60544  -0.60095
 Alpha  occ. eigenvalues --   -0.59941  -0.59524  -0.59100  -0.58710  -0.58612
 Alpha  occ. eigenvalues --   -0.58138  -0.57675  -0.57421  -0.57211  -0.56958
 Alpha  occ. eigenvalues --   -0.56411  -0.56087  -0.55936  -0.55622  -0.55617
 Alpha  occ. eigenvalues --   -0.55476  -0.55200  -0.54978  -0.54655  -0.54226
 Alpha  occ. eigenvalues --   -0.54054  -0.53659  -0.53410  -0.53342  -0.53043
 Alpha  occ. eigenvalues --   -0.52975  -0.52889  -0.52868  -0.52655  -0.52623
 Alpha  occ. eigenvalues --   -0.52461  -0.52190  -0.51997  -0.51757  -0.51550
 Alpha  occ. eigenvalues --   -0.51417  -0.51315  -0.50915  -0.50681  -0.50292
 Alpha  occ. eigenvalues --   -0.50202  -0.50029  -0.49735  -0.49639  -0.49612
 Alpha  occ. eigenvalues --   -0.49317  -0.49242  -0.49225  -0.48923  -0.48811
 Alpha  occ. eigenvalues --   -0.48701  -0.48579  -0.48519  -0.48275  -0.48118
 Alpha  occ. eigenvalues --   -0.48077  -0.47817  -0.47404  -0.47351  -0.46961
 Alpha  occ. eigenvalues --   -0.46865  -0.46706  -0.46485  -0.46451  -0.46311
 Alpha  occ. eigenvalues --   -0.46269  -0.46013  -0.45922  -0.45793  -0.45526
 Alpha  occ. eigenvalues --   -0.45311  -0.44924  -0.44677  -0.44648  -0.44293
 Alpha  occ. eigenvalues --   -0.44249  -0.44220  -0.44207  -0.44112  -0.43859
 Alpha  occ. eigenvalues --   -0.43835  -0.43667  -0.43601  -0.43519  -0.43282
 Alpha  occ. eigenvalues --   -0.43145  -0.43113  -0.42852  -0.42771  -0.42654
 Alpha  occ. eigenvalues --   -0.42602  -0.42319  -0.42173  -0.41813  -0.41721
 Alpha  occ. eigenvalues --   -0.41689  -0.41361  -0.41255  -0.41214  -0.41037
 Alpha  occ. eigenvalues --   -0.40916  -0.40727  -0.40696  -0.40501  -0.40465
 Alpha  occ. eigenvalues --   -0.40423  -0.40236  -0.40008  -0.39629  -0.39208
 Alpha  occ. eigenvalues --   -0.38618  -0.38089  -0.37934  -0.37459  -0.37424
 Alpha  occ. eigenvalues --   -0.37402  -0.37000  -0.36936  -0.36814  -0.36489
 Alpha  occ. eigenvalues --   -0.36311  -0.35948  -0.34392  -0.33968  -0.33864
 Alpha  occ. eigenvalues --   -0.33561  -0.33291  -0.32894  -0.31394  -0.31141
 Alpha  occ. eigenvalues --   -0.31036  -0.30684  -0.30086  -0.29577  -0.29535
 Alpha  occ. eigenvalues --   -0.29406  -0.29062  -0.28887  -0.24188  -0.23743
 Alpha  occ. eigenvalues --   -0.21237  -0.20836
 Alpha virt. eigenvalues --   -0.08872  -0.08505  -0.01855  -0.01411  -0.00142
 Alpha virt. eigenvalues --    0.00234   0.02114   0.02412   0.02653   0.03619
 Alpha virt. eigenvalues --    0.04563   0.04961   0.05047   0.05481   0.05919

 Mulliken charges:
               1
     1  Mg   0.839097
     2  C   -0.003065
     3  C   -0.095183
     4  C   -0.045389
     5  C   -0.064095
     6  N   -0.256566
     7  C   -0.053046
     8  C   -0.013832
     9  C   -0.086849
    10  C    0.046014
    11  C    0.104784
    12  C    0.053090
    13  C   -0.071245
    14  H    0.034329
    15  N   -0.433330
    16  C    0.168532
    17  C   -0.177777
    18  C   -0.003436
    19  C    0.149347
    20  C    0.110415
    21  C    0.013851
    22  O   -0.248263
    23  C    0.062384
    24  N   -0.340869
    25  C    0.041013
    26  C   -0.029138
    27  C   -0.024959
    28  C    0.074315
    29  C    0.076019
    30  C    0.044897
    31  C   -0.026773
    32  N   -0.310652
    33  C    0.080671
    34  C   -0.169697
    35  C    0.008828
    36  C    0.083350
    37  C    0.127179
    38  C    0.046782
    39  O   -0.186941
    40  C   -0.005857
    41  C    0.213667
    42  O   -0.257724
    43  O   -0.304799
    44  C    0.157049
    45  H   -0.017833
    46  H   -0.016245
    47  H   -0.041724
    48  H    0.001429
    49  H   -0.004911
    50  H    0.025827
    51  H    0.016795
    52  H    0.016633
    53  H    0.009915
    54  H    0.043697
    55  H    0.019113
    56  H    0.017050
    57  H    0.005263
    58  H    0.027253
    59  H    0.038033
    60  H    0.036784
    61  H    0.037048
    62  H    0.030387
    63  H    0.017488
    64  H    0.010003
    65  H    0.023685
    66  H    0.012867
    67  H    0.004917
    68  H    0.006415
    69  H    0.003353
    70  H    0.020200
    71  H    0.022227
    72  H    0.032102
    73  H    0.048383
    74  H    0.008638
    75  H    0.046344
    76  H    0.035341
    77  H    0.044120
    78  H    0.045233
    79  H    0.054612
    80  Mg   0.837074
    81  C   -0.014844
    82  C   -0.088404
    83  C   -0.045573
    84  C   -0.065061
    85  N   -0.254602
    86  C   -0.047715
    87  C   -0.015063
    88  C   -0.091324
    89  C    0.046008
    90  C    0.112175
    91  C    0.062711
    92  C   -0.077103
    93  H    0.034060
    94  N   -0.423379
    95  C    0.162680
    96  C   -0.176367
    97  C   -0.008050
    98  C    0.151432
    99  C    0.100334
   100  C    0.015022
   101  O   -0.252919
   102  C    0.061628
   103  N   -0.350302
   104  C    0.037384
   105  C   -0.020342
   106  C   -0.035772
   107  C    0.089403
   108  C    0.074079
   109  C    0.034248
   110  C   -0.006705
   111  N   -0.324925
   112  C    0.079724
   113  C   -0.161781
   114  C    0.004982
   115  C    0.096097
   116  C    0.130421
   117  C    0.045573
   118  O   -0.186557
   119  C   -0.000868
   120  C    0.210516
   121  O   -0.252077
   122  O   -0.304900
   123  C    0.152343
   124  H   -0.022063
   125  H   -0.015283
   126  H   -0.041348
   127  H    0.000619
   128  H   -0.006183
   129  H    0.031434
   130  H    0.013484
   131  H    0.011972
   132  H    0.013360
   133  H    0.037683
   134  H    0.020151
   135  H    0.018619
   136  H    0.007372
   137  H    0.023128
   138  H    0.039066
   139  H    0.036640
   140  H    0.035972
   141  H    0.033470
   142  H    0.013372
   143  H    0.012124
   144  H    0.023508
   145  H    0.013586
   146  H    0.001425
   147  H    0.005379
   148  H    0.002800
   149  H    0.010820
   150  H    0.017356
   151  H    0.030408
   152  H    0.045532
   153  H    0.006794
   154  H    0.051135
   155  H    0.042771
   156  H    0.043513
   157  H    0.048491
   158  H    0.053060
 Sum of Mulliken charges =  -0.00000

 Dipole moment (field-independent basis, Debye):
    X=             -4.3676    Y=             -0.7981    Z=             -7.4124  Tot=              8.6404
 Quadrupole moment (field-independent basis, Debye-Ang):
   XX=           -520.0747   YY=           -547.6969   ZZ=           -448.9348
   XY=            -10.8696   XZ=            -17.3033   YZ=            -43.9898

 Normal termination of Gaussian 16 at Thu Sep  9 11:07:04 2021.
