 Gaussian 16, Revision A.03,
 Gaussian 16:  ES64L-G16RevA.03 25-Dec-2016

 -----------------------------------
 #p cam-b3lyp/Def2SVP td=(nstates=5)
 -----------------------------------

 --------------------------------
 TDDFT excited states in gaussian
 --------------------------------
 Symbolic Z-matrix:
 Charge =  0 Multiplicity = 1

                         Standard orientation:
 ---------------------------------------------------------------------
 Center     Atomic      Atomic             Coordinates (Angstroms)
 Number     Number       Type             X           Y           Z
 ---------------------------------------------------------------------
      1         12           0        6.871042    0.305976    0.233732
      2          6           0        6.921401   -3.007229   -1.119911
      3          6           0        7.780878    1.423287   -2.859305
      4          6           0        7.275334    3.180525    1.510501
      5          6           0        7.084505   -1.141862    3.396620
      6          7           0        7.268614   -0.754664   -1.668274
      7          6           0        7.194673   -2.019942   -2.069243
      8          6           0        7.360410   -2.190792   -3.608956
      9          6           0        8.171200   -0.854769   -3.924646
     10          6           0        7.685615    0.002773   -2.769331
     11          6           0        9.683484   -1.019001   -3.812720
     12          6           0        5.984469   -2.215937   -4.355872
     13          6           0        6.037529   -2.702571   -5.806984
     14          1           0        4.923955   -3.482875   -6.325083
     15          7           0        6.964905    2.085230   -0.619670
     16          6           0        7.340096    2.353692   -1.893423
     17          6           0        7.244089    3.821422   -2.045843
     18          6           0        6.965483    4.401127   -0.702558
     19          6           0        7.084965    3.232733    0.131683
     20          6           0        7.362887    4.521201   -3.364913
     21          6           0        6.653104    5.789911   -0.242309
     22          8           0        6.674232    6.117895    0.993229
     23          6           0        6.405029    6.790866   -1.295681
     24          7           0        7.362456    0.948736    2.158052
     25          6           0        7.415790    2.251112    2.457977
     26          6           0        7.504235    2.467014    3.939700
     27          6           0        7.254562    1.039446    4.610123
     28          6           0        7.140783    0.189715    3.320440
     29          6           0        8.829020    3.047461    4.453544
     30          6           0        6.118103    0.944159    5.658837
     31          6           0        4.779601    1.147836    4.985022
     32          7           0        6.806448   -1.707114    1.042646
     33          6           0        6.937495   -2.079673    2.388269
     34          6           0        6.937186   -3.553542    2.430441
     35          6           0        6.821899   -3.938548    1.096153
     36          6           0        6.780883   -2.778897    0.270430
     37          6           0        7.093279   -4.353917    3.596404
     38          6           0        6.748619   -5.060116    0.173888
     39          8           0        6.646151   -6.281220    0.299979
     40          6           0        6.932783   -4.504044   -1.306887
     41          6           0        5.853674   -5.114436   -2.159093
     42          8           0        4.653686   -4.824394   -1.976694
     43          8           0        6.414902   -5.751936   -3.197919
     44          6           0        5.397550   -6.355399   -4.099573
     45          1           0        8.291272    1.864761   -3.717525
     46          1           0        7.308502    4.154552    2.003055
     47          1           0        7.062610   -1.663108    4.355409
     48          1           0        7.944744   -3.060674   -3.909428
     49          1           0        7.873608   -0.413218   -4.875537
     50          1           0        9.949310   -1.995400   -3.407872
     51          1           0       10.013497   -0.225885   -3.141489
     52          1           0       10.166462   -0.821596   -4.770081
     53          1           0        5.643451   -1.193065   -4.515566
     54          1           0        5.256066   -2.809972   -3.802809
     55          1           0        6.984739   -3.195517   -6.027678
     56          1           0        6.027498   -1.830119   -6.460381
     57          1           0        7.730817    3.851944   -4.141617
     58          1           0        8.146933    5.270611   -3.258301
     59          1           0        6.430653    5.003739   -3.658900
     60          1           0        7.282192    6.860955   -1.939281
     61          1           0        6.110527    7.703929   -0.779508
     62          1           0        5.587803    6.442798   -1.928089
     63          1           0        6.736680    3.160755    4.280302
     64          1           0        8.135887    0.676365    5.139381
     65          1           0        8.712113    3.973793    5.016524
     66          1           0        9.488681    3.190315    3.598132
     67          1           0        9.417284    2.368030    5.069772
     68          1           0        6.224270    1.730406    6.405489
     69          1           0        6.095887   -0.010919    6.183797
     70          1           0        4.690131    2.232812    4.944360
     71          1           0        3.980835    0.712493    5.586404
     72          1           0        4.791470    0.783132    3.957727
     73          1           0        6.358511   -5.155035    3.517070
     74          1           0        6.943350   -3.767198    4.502432
     75          1           0        8.125410   -4.683514    3.478389
     76          1           0        7.929002   -4.802246   -1.632070
     77          1           0        5.630938   -7.416997   -4.181870
     78          1           0        5.404582   -5.763352   -5.014907
     79          1           0        4.377745   -6.398066   -3.715494
     80         12           0       -6.354449    0.892115    0.301287
     81          6           0       -8.730858   -1.793426    0.161287
     82          6           0       -8.089302    2.360988   -2.241804
     83          6           0       -4.032496    3.044479    0.093178
     84          6           0       -4.211203   -1.277275    1.988269
     85          7           0       -8.160638    0.267280   -0.812049
     86          6           0       -9.014062   -0.742800   -0.736167
     87          6           0      -10.281808   -0.581275   -1.617246
     88          6           0       -9.687102    0.433545   -2.710553
     89          6           0       -8.598351    1.092254   -1.865929
     90          6           0       -9.022781   -0.267465   -3.883846
     91          6           0      -11.478917    0.058946   -0.830447
     92          6           0      -12.834991   -0.037222   -1.532990
     93          1           0      -14.030234   -0.227637   -0.715918
     94          7           0       -6.342274    2.691194   -0.536415
     95          6           0       -7.130095    3.125790   -1.542269
     96          6           0       -6.715315    4.511976   -1.808004
     97          6           0       -5.508013    4.805565   -0.988889
     98          6           0       -5.229053    3.489751   -0.449523
     99          6           0       -7.490946    5.436468   -2.700819
    100          6           0       -4.725534    6.059976   -0.743165
    101          8           0       -3.571767    6.035512   -0.185452
    102          6           0       -5.308030    7.307564   -1.258648
    103          7           0       -4.326875    0.827301    0.756352
    104          6           0       -3.553077    1.918738    0.622510
    105          6           0       -2.202779    1.712382    1.266335
    106          6           0       -2.317862    0.337236    2.074608
    107          6           0       -3.749144   -0.076511    1.667607
    108          6           0       -1.013196    1.641747    0.309102
    109          6           0       -1.961609    0.377291    3.585952
    110          6           0       -2.986012    1.197806    4.336113
    111          7           0       -6.492276   -1.098616    1.129561
    112          6           0       -5.467691   -1.828263    1.771387
    113          6           0       -6.005185   -3.174340    2.057049
    114          6           0       -7.307801   -3.141646    1.536854
    115          6           0       -7.557096   -1.871985    0.949233
    116          6           0       -5.292257   -4.241243    2.673128
    117          6           0       -8.524976   -3.896056    1.341780
    118          8           0       -8.931029   -4.999089    1.705338
    119          6           0       -9.456758   -3.099239    0.330224
    120          6           0      -10.844284   -3.059667    0.909645
    121          8           0      -11.071812   -2.439284    1.963194
    122          8           0      -11.709591   -3.573379    0.016492
    123          6           0      -13.100910   -3.545715    0.541141
    124          1           0       -8.423889    2.795858   -3.184046
    125          1           0       -3.233049    3.787206    0.145202
    126          1           0       -3.639009   -1.979021    2.598867
    127          1           0      -10.619055   -1.491144   -2.099094
    128          1           0      -10.429868    1.166620   -3.014302
    129          1           0       -8.955748   -1.334265   -3.730321
    130          1           0       -8.034524    0.166042   -3.964312
    131          1           0       -9.538985   -0.015794   -4.814722
    132          1           0      -11.353454    1.149215   -0.812638
    133          1           0      -11.552531   -0.356766    0.155647
    134          1           0      -12.819099   -0.753460   -2.363473
    135          1           0      -13.047163    0.922369   -2.010677
    136          1           0       -8.237056    4.892048   -3.292717
    137          1           0       -6.787802    5.827997   -3.443896
    138          1           0       -7.933496    6.273995   -2.157337
    139          1           0       -5.447923    7.223603   -2.333749
    140          1           0       -4.649346    8.104407   -0.907857
    141          1           0       -6.304218    7.435670   -0.820704
    142          1           0       -1.980098    2.511643    1.962536
    143          1           0       -1.641893   -0.430668    1.670592
    144          1           0       -0.230769    2.392398    0.529104
    145          1           0       -1.380763    1.760590   -0.701501
    146          1           0       -0.515406    0.674712    0.261662
    147          1           0       -0.998492    0.871588    3.735044
    148          1           0       -1.892717   -0.605759    4.039687
    149          1           0       -2.636118    2.223947    4.188851
    150          1           0       -2.992866    0.930671    5.390920
    151          1           0       -3.974280    1.116266    3.868850
    152          1           0       -5.965674   -4.693067    3.389288
    153          1           0       -4.381461   -3.886923    3.151345
    154          1           0       -5.081678   -4.864833    1.800172
    155          1           0       -9.426993   -3.624096   -0.625402
    156          1           0      -13.481805   -4.570448    0.490755
    157          1           0      -13.630867   -2.781333   -0.057704
    158          1           0      -13.235613   -3.321486    1.592819
 ---------------------------------------------------------------------

 SCF Done:  E(RCAM-B3LYP) =  -4069.81185343     A.U. after   19 cycles

 Excitation energies and oscillator strengths:

 Excited State   1:      Singlet-A      1.6647 eV  744.78 nm  f=0.0094  <S**2>=0.000
     309 -> 315       -0.10806
     310 -> 316        0.13287
     311 -> 313       -0.43187
     312 -> 314        0.53383
 This state for optimization and/or second-order correction.
 Total Energy, E(TD-HF/TD-DFT) =  -4069.75067677
 Copying the excited state density for this state as the 1-particle RhoCI density.

 Excited State   2:      Singlet-A      1.6898 eV  733.73 nm  f=0.7318  <S**2>=0.000
     309 -> 315        0.13859
     310 -> 316        0.11146
     311 -> 313        0.53263
     312 -> 314        0.43094

 Excited State   3:      Singlet-A      2.1851 eV  567.42 nm  f=0.0935  <S**2>=0.000
     310 -> 314        0.63562
     312 -> 316       -0.26949

 Excited State   4:      Singlet-A      2.1939 eV  565.12 nm  f=0.1062  <S**2>=0.000
     309 -> 313        0.63346
     311 -> 315       -0.27587

 Excited State   5:      Singlet-A      2.6457 eV  468.63 nm  f=0.0000  <S**2>=0.000
     312 -> 313        0.70685

 The electronic state is 1-A.
 Alpha  occ. eigenvalues --  -46.87839 -46.87539 -19.26320 -19.26262 -19.19068
 Alpha  occ. eigenvalues --  -19.19064 -19.18807 -19.18621 -19.18202 -19.17936
 Alpha  occ. eigenvalues --  -14.42488 -14.42381 -14.41490 -14.41230 -14.39438
 Alpha  occ. eigenvalues --  -14.39235 -14.38630 -14.38476 -10.39122 -10.38996
 Alpha  occ. eigenvalues --  -10.35437 -10.35301 -10.34423 -10.34114 -10.31708
 Alpha  occ. eigenvalues --  -10.31679 -10.31446 -10.31191 -10.30939 -10.30919
 Alpha  occ. eigenvalues --  -10.30610 -10.30545 -10.30272 -10.30241 -10.30237
 Alpha  occ. eigenvalues --  -10.30007 -10.29964 -10.29755 -10.29662 -10.29317
 Alpha  occ. eigenvalues --  -10.29285 -10.29282 -10.28781 -10.28628 -10.28585
 Alpha  occ. eigenvalues --  -10.28569 -10.28398 -10.28292 -10.28148 -10.28047
 Alpha  occ. eigenvalues --  -10.27880 -10.27824 -10.27762 -10.27610 -10.27555
 Alpha  occ. eigenvalues --  -10.27550 -10.27490 -10.27486 -10.27439 -10.27387
 Alpha  occ. eigenvalues --  -10.27367 -10.27353 -10.27339 -10.27212 -10.27193
 Alpha  occ. eigenvalues --  -10.26942 -10.26741 -10.26611 -10.26364 -10.26350
 Alpha  occ. eigenvalues --  -10.26261 -10.26260 -10.26061 -10.25970 -10.25938
 Alpha  occ. eigenvalues --  -10.25883 -10.25793 -10.25675 -10.25462 -10.25215
 Alpha  occ. eigenvalues --  -10.24866 -10.24823 -10.24805 -10.24751 -10.24591
 Alpha  occ. eigenvalues --  -10.24565  -3.16583  -3.16289  -1.91465  -1.91172
 Alpha  occ. eigenvalues --   -1.91051  -1.90893  -1.90760  -1.90597  -1.16670
 Alpha  occ. eigenvalues --   -1.16554  -1.08661  -1.08544  -1.07205  -1.06875
 Alpha  occ. eigenvalues --   -1.06852  -1.06685  -1.04618  -1.04381  -1.03799
 Alpha  occ. eigenvalues --   -1.03542  -1.03271  -1.02911  -1.02449  -1.01987
 Alpha  occ. eigenvalues --   -0.92008  -0.91870  -0.89569  -0.89355  -0.89222
 Alpha  occ. eigenvalues --   -0.89053  -0.88333  -0.88073  -0.87907  -0.87708
 Alpha  occ. eigenvalues --   -0.87657  -0.87565  -0.87285  -0.87021  -0.85013
 Alpha  occ. eigenvalues --   -0.84897  -0.83989  -0.83731  -0.82973  -0.82831
 Alpha  occ. eigenvalues --   -0.82673  -0.82552  -0.81621  -0.81488  -0.80626
 Alpha  occ. eigenvalues --   -0.80334  -0.78819  -0.78523  -0.77257  -0.77031
 Alpha  occ. eigenvalues --   -0.76972  -0.76784  -0.75956  -0.75734  -0.74938
 Alpha  occ. eigenvalues --   -0.74662  -0.72811  -0.72572  -0.71706  -0.71458
 Alpha  occ. eigenvalues --   -0.69971  -0.69608  -0.68902  -0.68724  -0.67670
 Alpha  occ. eigenvalues --   -0.67485  -0.67243  -0.67108  -0.65322  -0.65169
 Alpha  occ. eigenvalues --   -0.64892  -0.64659  -0.64649  -0.64542  -0.64316
 Alpha  occ. eigenvalues --   -0.64064  -0.62335  -0.62169  -0.60464  -0.60226
 Alpha  occ. eigenvalues --   -0.59837  -0.59691  -0.59024  -0.58869  -0.58539
 Alpha  occ. eigenvalues --   -0.58305  -0.57621  -0.57443  -0.57343  -0.57111
 Alpha  occ. eigenvalues --   -0.56339  -0.56086  -0.56011  -0.55788  -0.55537
 Alpha  occ. eigenvalues --   -0.55385  -0.55351  -0.55113  -0.54569  -0.54360
 Alpha  occ. eigenvalues --   -0.53927  -0.53816  -0.53327  -0.53241  -0.53111
 Alpha  occ. eigenvalues --   -0.53037  -0.52952  -0.52796  -0.52765  -0.52582
 Alpha  occ. eigenvalues --   -0.52504  -0.52255  -0.51953  -0.51734  -0.51639
 Alpha  occ. eigenvalues --   -0.51565  -0.51236  -0.51081  -0.50570  -0.50385
 Alpha  occ. eigenvalues --   -0.50076  -0.49932  -0.49878  -0.49731  -0.49534
 Alpha  occ. eigenvalues --   -0.49389  -0.49242  -0.49126  -0.49098  -0.48994
 Alpha  occ. eigenvalues --   -0.48627  -0.48496  -0.48454  -0.48450  -0.48242
 Alpha  occ. eigenvalues --   -0.48232  -0.47723  -0.47486  -0.47322  -0.47002
 Alpha  occ. eigenvalues --   -0.46839  -0.46585  -0.46584  -0.46453  -0.46396
 Alpha  occ. eigenvalues --   -0.46202  -0.46146  -0.45950  -0.45858  -0.45698
 Alpha  occ. eigenvalues --   -0.45242  -0.45070  -0.44613  -0.44529  -0.44409
 Alpha  occ. eigenvalues --   -0.44360  -0.44185  -0.44118  -0.44039  -0.44022
 Alpha  occ. eigenvalues --   -0.43957  -0.43839  -0.43531  -0.43443  -0.43421
 Alpha  occ. eigenvalues --   -0.43271  -0.43063  -0.42827  -0.42779  -0.42741
 Alpha  occ. eigenvalues --   -0.42707  -0.42420  -0.42061  -0.41840  -0.41739
 Alpha  occ. eigenvalues --   -0.41567  -0.41552  -0.41351  -0.41174  -0.40909
 Alpha  occ. eigenvalues --   -0.40873  -0.40824  -0.40630  -0.40617  -0.40593
 Alpha  occ. eigenvalues --   -0.40353  -0.40262  -0.40142  -0.39512  -0.39275
 Alpha  occ. eigenvalues --   -0.38514  -0.38210  -0.37782  -0.37558  -0.37364
 Alpha  occ. eigenvalues --   -0.37298  -0.37132  -0.37092  -0.36755  -0.36667
 Alpha  occ. eigenvalues --   -0.36234  -0.36090  -0.34325  -0.34131  -0.33814
 Alpha  occ. eigenvalues --   -0.33764  -0.33224  -0.33053  -0.31339  -0.31178
 Alpha  occ. eigenvalues --   -0.31069  -0.30854  -0.30062  -0.29840  -0.29475
 Alpha  occ. eigenvalues --   -0.29357  -0.29216  -0.29088  -0.24119  -0.23913
 Alpha  occ. eigenvalues --   -0.21164  -0.20995
 Alpha virt. eigenvalues --   -0.08806  -0.08673  -0.01784  -0.01561  -0.00073
 Alpha virt. eigenvalues --    0.00073   0.02166   0.02331   0.03020   0.03338
 Alpha virt. eigenvalues --    0.04681   0.04841   0.05058   0.05262   0.06144

 Mulliken charges:
               1
     1  Mg   0.837751
     2  C   -0.003088
     3  C   -0.093970
     4  C   -0.045902
     5  C   -0.064181
     6  N   -0.256806
     7  C   -0.052622
     8  C   -0.013953
     9  C   -0.087015
    10  C    0.046327
    11  C    0.104772
    12  C    0.053426
    13  C   -0.071841
    14  H    0.036118
    15  N   -0.433296
    16  C    0.168508
    17  C   -0.176884
    18  C   -0.003669
    19  C    0.148664
    20  C    0.110132
    21  C    0.012744
    22  O   -0.249260
    23  C    0.062246
    24  N   -0.341049
    25  C    0.041139
    26  C   -0.028303
    27  C   -0.023896
    28  C    0.074443
    29  C    0.076088
    30  C    0.035221
    31  C   -0.004659
    32  N   -0.310355
    33  C    0.079883
    34  C   -0.170147
    35  C    0.008356
    36  C    0.082468
    37  C    0.127395
    38  C    0.045858
    39  O   -0.188387
    40  C   -0.005229
    41  C    0.213028
    42  O   -0.257621
    43  O   -0.304692
    44  C    0.157634
    45  H   -0.017404
    46  H   -0.016527
    47  H   -0.041627
    48  H    0.001021
    49  H   -0.003929
    50  H    0.025548
    51  H    0.016505
    52  H    0.016784
    53  H    0.011209
    54  H    0.043842
    55  H    0.017980
    56  H    0.018032
    57  H    0.005820
    58  H    0.027004
    59  H    0.040164
    60  H    0.037076
    61  H    0.036415
    62  H    0.032268
    63  H    0.016655
    64  H    0.009672
    65  H    0.023503
    66  H    0.012694
    67  H    0.004852
    68  H    0.006779
    69  H    0.004754
    70  H    0.009200
    71  H    0.016985
    72  H    0.028320
    73  H    0.047336
    74  H    0.008917
    75  H    0.046211
    76  H    0.035310
    77  H    0.043166
    78  H    0.046446
    79  H    0.053626
    80  Mg   0.837779
    81  C   -0.016999
    82  C   -0.088092
    83  C   -0.045668
    84  C   -0.064020
    85  N   -0.254586
    86  C   -0.049794
    87  C   -0.015070
    88  C   -0.090495
    89  C    0.045756
    90  C    0.114464
    91  C    0.062588
    92  C   -0.077748
    93  H    0.034660
    94  N   -0.423398
    95  C    0.162828
    96  C   -0.175052
    97  C   -0.008062
    98  C    0.152040
    99  C    0.099551
   100  C    0.015229
   101  O   -0.253259
   102  C    0.061260
   103  N   -0.350049
   104  C    0.037564
   105  C   -0.019996
   106  C   -0.035314
   107  C    0.088820
   108  C    0.072903
   109  C    0.034582
   110  C   -0.007654
   111  N   -0.324198
   112  C    0.078363
   113  C   -0.162670
   114  C    0.002232
   115  C    0.096337
   116  C    0.131574
   117  C    0.042533
   118  O   -0.187820
   119  C    0.000856
   120  C    0.211225
   121  O   -0.251117
   122  O   -0.305628
   123  C    0.152098
   124  H   -0.020173
   125  H   -0.015663
   126  H   -0.039265
   127  H   -0.000759
   128  H   -0.004629
   129  H    0.022515
   130  H    0.014414
   131  H    0.015850
   132  H    0.013858
   133  H    0.037664
   134  H    0.020696
   135  H    0.019416
   136  H    0.008508
   137  H    0.025513
   138  H    0.039467
   139  H    0.037799
   140  H    0.036094
   141  H    0.033867
   142  H    0.014333
   143  H    0.014850
   144  H    0.024926
   145  H    0.010999
   146  H    0.007844
   147  H    0.006472
   148  H    0.004185
   149  H    0.010825
   150  H    0.017430
   151  H    0.029825
   152  H    0.045751
   153  H    0.009230
   154  H    0.047969
   155  H    0.035007
   156  H    0.043818
   157  H    0.049334
   158  H    0.053496
 Sum of Mulliken charges =  -0.00000

 Dipole moment (field-independent basis, Debye):
    X=              1.7304    Y=              5.1389    Z=             -6.6910  Tot=              8.6124
 Quadrupole moment (field-independent basis, Debye-Ang):
   XX=           -460.7126   YY=           -557.6727   ZZ=           -462.4672
   XY=            -22.7908   XZ=             24.9912   YZ=             -6.9279

 Normal termination of Gaussian 16 at Sat Sep 11 16:50:07 2021.
