 Gaussian 16, Revision A.03,
 Gaussian 16:  ES64L-G16RevA.03 25-Dec-2016

 -----------------------------------
 #p cam-b3lyp/Def2SVP td=(nstates=5)
 -----------------------------------

 --------------------------------
 TDDFT excited states in gaussian
 --------------------------------
 Symbolic Z-matrix:
 Charge =  0 Multiplicity = 1

                         Standard orientation:
 ---------------------------------------------------------------------
 Center     Atomic      Atomic             Coordinates (Angstroms)
 Number     Number       Type             X           Y           Z
 ---------------------------------------------------------------------
      1         12           0       -4.251088   -0.973090    0.320193
      2          6           0       -4.546034    1.920873    2.405906
      3          6           0       -5.437820    0.938300   -2.245216
      4          6           0       -4.430058   -3.616501   -1.422496
      5          6           0       -4.184506   -2.884255    3.233726
      6          7           0       -4.875668    1.148225    0.217377
      7          6           0       -4.883755    2.165600    1.072978
      8          6           0       -5.212210    3.533452    0.403297
      9          6           0       -6.008081    3.004279   -0.872854
     10          6           0       -5.379214    1.627739   -0.997710
     11          6           0       -7.505325    2.840293   -0.632290
     12          6           0       -3.921816    4.317702   -0.010909
     13          6           0       -4.139225    5.790667   -0.369324
     14          1           0       -3.110269    6.756756   -0.015388
     15          7           0       -4.375302   -1.211371   -1.637010
     16          6           0       -4.870638   -0.322399   -2.531245
     17          6           0       -4.743994   -0.964564   -3.857241
     18          6           0       -4.310458   -2.372922   -3.641216
     19          6           0       -4.380819   -2.465456   -2.205297
     20          6           0       -4.975313   -0.240140   -5.147765
     21          6           0       -3.908260   -3.465625   -4.580562
     22          8           0       -3.791827   -4.680754   -4.200458
     23          6           0       -3.737917   -3.086513   -5.994881
     24          7           0       -4.521380   -2.983425    0.813274
     25          6           0       -4.502004   -3.933444   -0.128040
     26          6           0       -4.430777   -5.302925    0.479732
     27          6           0       -4.159235   -5.081599    2.037626
     28          6           0       -4.205775   -3.533957    2.067748
     29          6           0       -5.676535   -6.181148    0.298560
     30          6           0       -2.924648   -5.794332    2.644443
     31          6           0       -1.656659   -5.197067    2.076485
     32          7           0       -4.168011   -0.576145    2.452464
     33          6           0       -4.171911   -1.522816    3.487100
     34          6           0       -4.214324   -0.774703    4.756980
     35          6           0       -4.249112    0.563536    4.370002
     36          6           0       -4.256167    0.645400    2.948193
     37          6           0       -4.275244   -1.345526    6.058857
     38          6           0       -4.306838    1.942636    4.826738
     39          8           0       -4.230992    2.496456    5.924474
     40          6           0       -4.624349    2.872588    3.573660
     41          6           0       -3.658569    4.025611    3.607050
     42          8           0       -2.437545    3.842845    3.425218
     43          8           0       -4.343643    5.179391    3.609723
     44          6           0       -3.444120    6.363875    3.612665
     45          1           0       -6.019350    1.371951   -3.061127
     46          1           0       -4.381321   -4.551789   -1.984012
     47          1           0       -4.080852   -3.410818    4.184221
     48          1           0       -5.851799    4.187721    0.995988
     49          1           0       -5.795837    3.599783   -1.760576
     50          1           0       -7.759176    2.991419    0.416825
     51          1           0       -7.739124    1.820128   -0.937406
     52          1           0       -8.077578    3.489881   -1.295115
     53          1           0       -3.566534    3.943614   -0.971063
     54          1           0       -3.159773    4.244327    0.765772
     55          1           0       -5.119351    6.139767   -0.043151
     56          1           0       -4.168544    5.877135   -1.455540
     57          1           0       -5.442289    0.730281   -4.984177
     58          1           0       -5.719926   -0.809660   -5.703560
     59          1           0       -4.063298   -0.152633   -5.738445
     60          1           0       -4.673888   -2.673961   -6.372121
     61          1           0       -3.362933   -3.975182   -6.501344
     62          1           0       -3.001537   -2.284928   -6.059341
     63          1           0       -3.610530   -5.878241    0.052376
     64          1           0       -4.992645   -5.425084    2.650912
     65          1           0       -5.472880   -7.134678   -0.189303
     66          1           0       -6.415709   -5.606622   -0.258963
     67          1           0       -6.219748   -6.399096    1.217708
     68          1           0       -2.928369   -6.850972    2.379032
     69          1           0       -2.879105   -5.725560    3.731387
     70          1           0       -1.537248   -5.730376    1.134065
     71          1           0       -0.814629   -5.388107    2.742594
     72          1           0       -1.785670   -4.140893    1.839130
     73          1           0       -3.578470   -0.776569    6.674294
     74          1           0       -4.014349   -2.403439    6.039969
     75          1           0       -5.324032   -1.178402    6.303745
     76          1           0       -5.657721    3.200897    3.680796
     77          1           0       -3.718502    6.973152    4.473902
     78          1           0       -3.526272    6.817816    2.624943
     79          1           0       -2.392129    6.169722    3.824704
     80         12           0        4.698451   -0.278603   -0.233458
     81          6           0        2.772331    1.875535   -2.361562
     82          6           0        6.803584    2.356199    0.277301
     83          6           0        6.656965   -2.264647    1.278913
     84          6           0        3.137878   -2.979270   -1.788035
     85          7           0        4.683681    1.796897   -0.997901
     86          6           0        3.868243    2.519903   -1.750667
     87          6           0        4.203116    4.035118   -1.789799
     88          6           0        5.763012    3.946308   -1.418727
     89          6           0        5.753064    2.636972   -0.632473
     90          6           0        6.660969    3.768240   -2.631701
     91          6           0        3.402748    4.852082   -0.715550
     92          6           0        3.445719    6.370709   -0.899131
     93          1           0        2.256633    7.146909   -0.558442
     94          7           0        6.180922    0.095162    1.031908
     95          6           0        6.912420    1.226051    1.117090
     96          6           0        7.889715    0.993073    2.191698
     97          6           0        7.783547   -0.427465    2.622423
     98          6           0        6.864062   -0.937307    1.625073
     99          6           0        8.747703    2.084848    2.762056
    100          6           0        8.416113   -1.202272    3.738545
    101          8           0        8.365809   -2.482256    3.782655
    102          6           0        9.175832   -0.424530    4.728200
    103          7           0        5.032028   -2.324410   -0.393906
    104          6           0        5.901917   -2.948896    0.419249
    105          6           0        5.772347   -4.449269    0.307577
    106          6           0        4.462734   -4.702928   -0.574549
    107          6           0        4.096123   -3.240483   -0.909579
    108          6           0        6.960031   -5.174301   -0.324991
    109          6           0        3.367364   -5.617627    0.038762
    110          6           0        2.738935   -4.939494    1.234843
    111          7           0        3.094014   -0.539295   -1.656781
    112          6           0        2.618222   -1.756204   -2.192359
    113          6           0        1.597594   -1.416687   -3.205014
    114          6           0        1.566623   -0.014004   -3.204725
    115          6           0        2.516298    0.485788   -2.273154
    116          6           0        0.881809   -2.347733   -4.009332
    117          6           0        0.954040    1.157700   -3.788294
    118          8           0        0.023753    1.353867   -4.569207
    119          6           0        1.796916    2.435238   -3.359522
    120          6           0        0.834301    3.488473   -2.883516
    121          8           0        0.157950    3.308375   -1.855547
    122          8           0        1.028886    4.615741   -3.591874
    123          6           0        0.104674    5.693396   -3.148792
    124          1           0        7.647450    3.045111    0.324010
    125          1           0        7.230362   -2.996511    1.852565
    126          1           0        2.535766   -3.766633   -2.246500
    127          1           0        4.077471    4.503228   -2.758745
    128          1           0        6.064734    4.772351   -0.779987
    129          1           0        6.090970    3.611792   -3.535449
    130          1           0        7.276110    2.903964   -2.417986
    131          1           0        7.349175    4.613911   -2.718644
    132          1           0        3.912090    4.765417    0.252841
    133          1           0        2.383055    4.522544   -0.668151
    134          1           0        3.819819    6.655701   -1.889983
    135          1           0        4.182429    6.783374   -0.205611
    136          1           0        8.724457    2.984153    2.134281
    137          1           0        9.785560    1.739474    2.703501
    138          1           0        8.507839    2.308272    3.803796
    139          1           0        9.971907    0.119814    4.225786
    140          1           0        9.476296   -1.141270    5.494945
    141          1           0        8.510428    0.326389    5.168617
    142          1           0        5.631673   -4.898937    1.282829
    143          1           0        4.703258   -5.193232   -1.529327
    144          1           0        7.392652   -5.955583    0.328081
    145          1           0        7.709427   -4.438800   -0.585739
    146          1           0        6.755380   -5.645843   -1.284660
    147          1           0        3.811372   -6.546085    0.406165
    148          1           0        2.588042   -5.889845   -0.665184
    149          1           0        3.437299   -5.170656    2.044739
    150          1           0        1.752189   -5.352368    1.434653
    151          1           0        2.728448   -3.850550    1.109374
    152          1           0       -0.149590   -2.021248   -4.020385
    153          1           0        0.974864   -3.360668   -3.623224
    154          1           0        1.402158   -2.222411   -4.962641
    155          1           0        2.362898    2.762429   -4.232561
    156          1           0       -0.441864    6.030028   -4.035158
    157          1           0        0.739956    6.439367   -2.635265
    158          1           0       -0.710276    5.415572   -2.490679
 ---------------------------------------------------------------------

 SCF Done:  E(RCAM-B3LYP) =  -4069.81318141     A.U. after   19 cycles

 Excitation energies and oscillator strengths:

 Excited State   1:      Singlet-A      1.6443 eV  754.02 nm  f=0.1420  <S**2>=0.000
     309 -> 315        0.12378
     310 -> 316       -0.10945
     311 -> 313        0.51170
     312 -> 314       -0.45934
 This state for optimization and/or second-order correction.
 Total Energy, E(TD-HF/TD-DFT) =  -4069.75275441
 Copying the excited state density for this state as the 1-particle RhoCI density.

 Excited State   2:      Singlet-A      1.7035 eV  727.81 nm  f=0.5946  <S**2>=0.000
     309 -> 315        0.12021
     310 -> 316        0.13388
     311 -> 313        0.45715
     312 -> 314        0.50920

 Excited State   3:      Singlet-A      2.1785 eV  569.13 nm  f=0.0092  <S**2>=0.000
     309 -> 313        0.53866
     310 -> 314        0.35617
     311 -> 315       -0.22286
     312 -> 316       -0.14550

 Excited State   4:      Singlet-A      2.1951 eV  564.81 nm  f=0.1625  <S**2>=0.000
     309 -> 313       -0.35185
     310 -> 314        0.53331
     311 -> 315        0.15418
     312 -> 316       -0.23348

 Excited State   5:      Singlet-A      2.2927 eV  540.78 nm  f=0.0000  <S**2>=0.000
     312 -> 313        0.70602

 The electronic state is 1-A.
 Alpha  occ. eigenvalues --  -46.87564 -46.87200 -19.26480 -19.25858 -19.19260
 Alpha  occ. eigenvalues --  -19.18625 -19.18528 -19.18337 -19.18140 -19.17675
 Alpha  occ. eigenvalues --  -14.42403 -14.41855 -14.41274 -14.40910 -14.39261
 Alpha  occ. eigenvalues --  -14.38810 -14.38522 -14.38017 -10.39167 -10.38591
 Alpha  occ. eigenvalues --  -10.35301 -10.34969 -10.34307 -10.33895 -10.31962
 Alpha  occ. eigenvalues --  -10.31347 -10.31244 -10.30939 -10.30830 -10.30324
 Alpha  occ. eigenvalues --  -10.30299 -10.30296 -10.30033 -10.29994 -10.29990
 Alpha  occ. eigenvalues --  -10.29821 -10.29685 -10.29453 -10.29340 -10.29333
 Alpha  occ. eigenvalues --  -10.29103 -10.28677 -10.28641 -10.28580 -10.28340
 Alpha  occ. eigenvalues --  -10.28150 -10.28146 -10.28071 -10.27943 -10.27779
 Alpha  occ. eigenvalues --  -10.27585 -10.27548 -10.27415 -10.27410 -10.27392
 Alpha  occ. eigenvalues --  -10.27369 -10.27285 -10.27232 -10.27148 -10.27139
 Alpha  occ. eigenvalues --  -10.27110 -10.27091 -10.27027 -10.26847 -10.26702
 Alpha  occ. eigenvalues --  -10.26659 -10.26559 -10.26306 -10.26006 -10.25984
 Alpha  occ. eigenvalues --  -10.25947 -10.25944 -10.25861 -10.25832 -10.25779
 Alpha  occ. eigenvalues --  -10.25755 -10.25495 -10.25411 -10.25322 -10.25131
 Alpha  occ. eigenvalues --  -10.24827 -10.24615 -10.24587 -10.24533 -10.24286
 Alpha  occ. eigenvalues --  -10.24276  -3.16312  -3.15939  -1.91194  -1.90819
 Alpha  occ. eigenvalues --   -1.90783  -1.90621  -1.90407  -1.90250  -1.16764
 Alpha  occ. eigenvalues --   -1.16193  -1.08755  -1.08142  -1.07038  -1.06876
 Alpha  occ. eigenvalues --   -1.06752  -1.06159  -1.04412  -1.03991  -1.03579
 Alpha  occ. eigenvalues --   -1.03219  -1.02957  -1.02674  -1.02034  -1.01858
 Alpha  occ. eigenvalues --   -0.91948  -0.91431  -0.89407  -0.89099  -0.89073
 Alpha  occ. eigenvalues --   -0.88610  -0.88128  -0.87869  -0.87727  -0.87598
 Alpha  occ. eigenvalues --   -0.87352  -0.87098  -0.87033  -0.86674  -0.84922
 Alpha  occ. eigenvalues --   -0.84434  -0.83796  -0.83576  -0.82842  -0.82591
 Alpha  occ. eigenvalues --   -0.82453  -0.82126  -0.81613  -0.81117  -0.80409
 Alpha  occ. eigenvalues --   -0.80083  -0.78557  -0.78218  -0.77065  -0.76864
 Alpha  occ. eigenvalues --   -0.76742  -0.76458  -0.75813  -0.75423  -0.74741
 Alpha  occ. eigenvalues --   -0.74477  -0.72623  -0.72254  -0.71523  -0.71173
 Alpha  occ. eigenvalues --   -0.69660  -0.69563  -0.68760  -0.68345  -0.67545
 Alpha  occ. eigenvalues --   -0.67121  -0.67109  -0.66652  -0.65216  -0.64733
 Alpha  occ. eigenvalues --   -0.64724  -0.64607  -0.64350  -0.64147  -0.64121
 Alpha  occ. eigenvalues --   -0.63811  -0.62306  -0.61842  -0.60256  -0.59901
 Alpha  occ. eigenvalues --   -0.59721  -0.59233  -0.58932  -0.58477  -0.58384
 Alpha  occ. eigenvalues --   -0.57993  -0.57582  -0.57174  -0.57087  -0.56834
 Alpha  occ. eigenvalues --   -0.56151  -0.55908  -0.55780  -0.55510  -0.55415
 Alpha  occ. eigenvalues --   -0.55209  -0.55007  -0.54935  -0.54465  -0.54112
 Alpha  occ. eigenvalues --   -0.53836  -0.53325  -0.53159  -0.53103  -0.52860
 Alpha  occ. eigenvalues --   -0.52808  -0.52678  -0.52583  -0.52427  -0.52293
 Alpha  occ. eigenvalues --   -0.52205  -0.52085  -0.51824  -0.51584  -0.51440
 Alpha  occ. eigenvalues --   -0.51175  -0.51038  -0.50714  -0.50378  -0.49979
 Alpha  occ. eigenvalues --   -0.49897  -0.49789  -0.49581  -0.49420  -0.49363
 Alpha  occ. eigenvalues --   -0.49165  -0.49083  -0.48989  -0.48690  -0.48595
 Alpha  occ. eigenvalues --   -0.48538  -0.48350  -0.48262  -0.48133  -0.48022
 Alpha  occ. eigenvalues --   -0.47925  -0.47539  -0.47189  -0.47050  -0.46770
 Alpha  occ. eigenvalues --   -0.46636  -0.46483  -0.46318  -0.46209  -0.46038
 Alpha  occ. eigenvalues --   -0.46017  -0.45839  -0.45805  -0.45696  -0.45368
 Alpha  occ. eigenvalues --   -0.45140  -0.44794  -0.44493  -0.44400  -0.44119
 Alpha  occ. eigenvalues --   -0.44108  -0.44012  -0.44002  -0.43883  -0.43687
 Alpha  occ. eigenvalues --   -0.43598  -0.43573  -0.43494  -0.43324  -0.43034
 Alpha  occ. eigenvalues --   -0.42977  -0.42869  -0.42867  -0.42556  -0.42458
 Alpha  occ. eigenvalues --   -0.42288  -0.42248  -0.41879  -0.41648  -0.41579
 Alpha  occ. eigenvalues --   -0.41378  -0.41203  -0.41029  -0.40931  -0.40647
 Alpha  occ. eigenvalues --   -0.40635  -0.40607  -0.40410  -0.40407  -0.40312
 Alpha  occ. eigenvalues --   -0.40138  -0.40124  -0.39599  -0.39330  -0.39103
 Alpha  occ. eigenvalues --   -0.38256  -0.38052  -0.37573  -0.37219  -0.37183
 Alpha  occ. eigenvalues --   -0.37124  -0.36853  -0.36826  -0.36693  -0.36263
 Alpha  occ. eigenvalues --   -0.36159  -0.35717  -0.34183  -0.33911  -0.33735
 Alpha  occ. eigenvalues --   -0.33263  -0.33103  -0.32637  -0.31185  -0.30900
 Alpha  occ. eigenvalues --   -0.30870  -0.30495  -0.30046  -0.29538  -0.29259
 Alpha  occ. eigenvalues --   -0.29157  -0.28881  -0.28765  -0.23955  -0.23516
 Alpha  occ. eigenvalues --   -0.21038  -0.20569
 Alpha virt. eigenvalues --   -0.08722  -0.08211  -0.01595  -0.01214   0.00041
 Alpha virt. eigenvalues --    0.00492   0.02219   0.02697   0.03245   0.04080
 Alpha virt. eigenvalues --    0.04800   0.05082   0.05228   0.05589   0.06112

 Mulliken charges:
               1
     1  Mg   0.844362
     2  C   -0.000645
     3  C   -0.088361
     4  C   -0.048454
     5  C   -0.065349
     6  N   -0.256746
     7  C   -0.049740
     8  C   -0.016569
     9  C   -0.088580
    10  C    0.050018
    11  C    0.105173
    12  C    0.054510
    13  C   -0.071662
    14  H    0.030083
    15  N   -0.433078
    16  C    0.173185
    17  C   -0.170991
    18  C   -0.005810
    19  C    0.148510
    20  C    0.109981
    21  C    0.010055
    22  O   -0.253058
    23  C    0.060913
    24  N   -0.341170
    25  C    0.041731
    26  C   -0.027937
    27  C   -0.023996
    28  C    0.074096
    29  C    0.076655
    30  C    0.039187
    31  C   -0.014659
    32  N   -0.310060
    33  C    0.079898
    34  C   -0.171147
    35  C    0.007393
    36  C    0.083068
    37  C    0.127604
    38  C    0.045545
    39  O   -0.190861
    40  C   -0.005779
    41  C    0.212060
    42  O   -0.254915
    43  O   -0.305265
    44  C    0.158860
    45  H   -0.018544
    46  H   -0.019076
    47  H   -0.043491
    48  H   -0.001376
    49  H   -0.003857
    50  H    0.024559
    51  H    0.015910
    52  H    0.015246
    53  H    0.021912
    54  H    0.048415
    55  H    0.016331
    56  H    0.015131
    57  H    0.005490
    58  H    0.023422
    59  H    0.050192
    60  H    0.036998
    61  H    0.032733
    62  H    0.038078
    63  H    0.014140
    64  H    0.008702
    65  H    0.021716
    66  H    0.012811
    67  H    0.004066
    68  H    0.004419
    69  H    0.003831
    70  H    0.007163
    71  H    0.023661
    72  H    0.032377
    73  H    0.046266
    74  H    0.007917
    75  H    0.044764
    76  H    0.033869
    77  H    0.041179
    78  H    0.045668
    79  H    0.052792
    80  Mg   0.840570
    81  C   -0.015996
    82  C   -0.087584
    83  C   -0.045313
    84  C   -0.064970
    85  N   -0.254783
    86  C   -0.048969
    87  C   -0.015894
    88  C   -0.090702
    89  C    0.046715
    90  C    0.114479
    91  C    0.062244
    92  C   -0.077536
    93  H    0.034011
    94  N   -0.423454
    95  C    0.164009
    96  C   -0.174308
    97  C   -0.007329
    98  C    0.152591
    99  C    0.099406
   100  C    0.016077
   101  O   -0.253155
   102  C    0.060893
   103  N   -0.350093
   104  C    0.037752
   105  C   -0.020028
   106  C   -0.034088
   107  C    0.088635
   108  C    0.073755
   109  C    0.033876
   110  C   -0.010433
   111  N   -0.323784
   112  C    0.077617
   113  C   -0.162825
   114  C   -0.000055
   115  C    0.096685
   116  C    0.129455
   117  C    0.042690
   118  O   -0.193947
   119  C    0.000919
   120  C    0.209470
   121  O   -0.248481
   122  O   -0.305572
   123  C    0.152419
   124  H   -0.019823
   125  H   -0.015543
   126  H   -0.039255
   127  H   -0.001819
   128  H   -0.004072
   129  H    0.021871
   130  H    0.014388
   131  H    0.016038
   132  H    0.015862
   133  H    0.039981
   134  H    0.019557
   135  H    0.019931
   136  H    0.008778
   137  H    0.025922
   138  H    0.040740
   139  H    0.037983
   140  H    0.036439
   141  H    0.034845
   142  H    0.014539
   143  H    0.012448
   144  H    0.024976
   145  H    0.011391
   146  H    0.005633
   147  H    0.005450
   148  H    0.004670
   149  H    0.009990
   150  H    0.019919
   151  H    0.030755
   152  H    0.044911
   153  H    0.013694
   154  H    0.044941
   155  H    0.034219
   156  H    0.041175
   157  H    0.050806
   158  H    0.052221
 Sum of Mulliken charges =  -0.00000

 Dipole moment (field-independent basis, Debye):
    X=              1.8841    Y=              3.1458    Z=             -3.4952  Tot=              5.0658
 Quadrupole moment (field-independent basis, Debye-Ang):
   XX=           -474.8775   YY=           -465.5868   ZZ=           -533.8558
   XY=             19.4748   XZ=             10.2719   YZ=            -21.1749

 Normal termination of Gaussian 16 at Thu Sep  9 20:05:19 2021.
