 Gaussian 16, Revision A.03,
 Gaussian 16:  ES64L-G16RevA.03 25-Dec-2016

 -----------------------------------
 #p cam-b3lyp/Def2SVP td=(nstates=5)
 -----------------------------------

 --------------------------------
 TDDFT excited states in gaussian
 --------------------------------
 Symbolic Z-matrix:
 Charge =  0 Multiplicity = 1

                         Standard orientation:
 ---------------------------------------------------------------------
 Center     Atomic      Atomic             Coordinates (Angstroms)
 Number     Number       Type             X           Y           Z
 ---------------------------------------------------------------------
      1         12           0       15.776528    0.701451    0.383320
      2          6           0       16.139136   -2.620582   -0.899190
      3          6           0       16.612573    1.833047   -2.725311
      4          6           0       15.907043    3.626258    1.601962
      5          6           0       16.088274   -0.656246    3.577868
      6          7           0       16.287104   -0.357520   -1.492457
      7          6           0       16.331637   -1.632225   -1.867043
      8          6           0       16.527436   -1.818802   -3.401392
      9          6           0       17.217459   -0.421663   -3.738838
     10          6           0       16.644994    0.411873   -2.605955
     11          6           0       18.737203   -0.446150   -3.611249
     12          6           0       15.166881   -1.983518   -4.158684
     13          6           0       15.278082   -2.492898   -5.598657
     14          1           0       14.244678   -3.381122   -6.109033
     15          7           0       15.717941    2.464099   -0.506898
     16          6           0       16.080037    2.739315   -1.782997
     17          6           0       15.853497    4.188929   -1.967330
     18          6           0       15.510357    4.768382   -0.638954
     19          6           0       15.726476    3.632864    0.220855
     20          6           0       15.921789    4.869495   -3.299965
     21          6           0       15.069363    6.132339   -0.210844
     22          8           0       15.048507    6.486057    1.017579
     23          6           0       14.742474    7.085034   -1.287207
     24          7           0       16.188754    1.425185    2.297455
     25          6           0       16.121356    2.732902    2.570069
     26          6           0       16.175202    2.986136    4.047537
     27          6           0       16.048709    1.555833    4.746096
     28          6           0       16.024917    0.673130    3.473877
     29          6           0       17.437022    3.694376    4.559609
     30          6           0       14.915102    1.379610    5.787393
     31          6           0       13.570456    1.447609    5.098625
     32          7           0       15.885808   -1.292288    1.234265
     33          6           0       16.036537   -1.623909    2.588511
     34          6           0       16.168810   -3.090597    2.661977
     35          6           0       16.102025   -3.511624    1.335282
     36          6           0       15.964753   -2.377541    0.484808
     37          6           0       16.384876   -3.849594    3.845900
     38          6           0       16.139437   -4.653826    0.436487
     39          8           0       16.146329   -5.876361    0.587657
     40          6           0       16.287403   -4.113740   -1.054231
     41          6           0       15.276316   -4.836492   -1.901959
     42          8           0       14.053294   -4.652485   -1.735451
     43          8           0       15.903095   -5.441715   -2.922446
     44          6           0       14.953376   -6.152992   -3.819259
     45          1           0       17.089565    2.301243   -3.588567
     46          1           0       15.847276    4.609150    2.073967
     47          1           0       16.103962   -1.157644    4.547304
     48          1           0       17.190845   -2.638236   -3.678594
     49          1           0       16.890717   -0.028347   -4.701264
     50          1           0       19.086011   -1.386038   -3.183620
     51          1           0       18.987601    0.387103   -2.954375
     52          1           0       19.209904   -0.225476   -4.568659
     53          1           0       14.736559   -0.999150   -4.342815
     54          1           0       14.489586   -2.629565   -3.599023
     55          1           0       16.268061   -2.902575   -5.801179
     56          1           0       15.195868   -1.638456   -6.270497
     57          1           0       16.356325    4.220526   -4.059283
     58          1           0       16.633909    5.688754   -3.202973
     59          1           0       14.952787    5.259650   -3.611648
     60          1           0       15.616097    7.220996   -1.925052
     61          1           0       14.361656    7.978077   -0.792938
     62          1           0       13.966328    6.651649   -1.918652
     63          1           0       15.344824    3.614439    4.367122
     64          1           0       16.953889    1.284821    5.290041
     65          1           0       17.231402    4.617647    5.101823
     66          1           0       18.089584    3.878794    3.706705
     67          1           0       18.078034    3.083653    5.194856
     68          1           0       14.942447    2.187322    6.518008
     69          1           0       14.973937    0.437358    6.332325
     70          1           0       13.383852    2.518992    5.034205
     71          1           0       12.808286    0.954195    5.702653
     72          1           0       13.625413    1.064566    4.079437
     73          1           0       15.726224   -4.715326    3.777674
     74          1           0       16.173602   -3.260454    4.738021
     75          1           0       17.443662   -4.086850    3.743245
     76          1           0       17.309655   -4.327215   -1.364958
     77          1           0       15.282418   -7.190595   -3.877101
     78          1           0       14.916065   -5.581555   -4.746875
     79          1           0       13.937810   -6.279848   -3.442601
     80         12           0      -15.946941   -0.770138    0.260264
     81          6           0      -15.881329    2.399179   -1.422042
     82          6           0      -15.158381    0.903220    3.126039
     83          6           0      -15.554310   -3.582195    1.676464
     84          6           0      -15.596529   -2.278081   -2.862076
     85          7           0      -15.592123    1.373916    0.671811
     86          6           0      -15.655296    2.493554   -0.032997
     87          6           0      -15.545431    3.791819    0.810807
     88          6           0      -14.761967    3.190121    2.076906
     89          6           0      -15.222117    1.736932    1.981066
     90          6           0      -13.250696    3.223845    1.921087
     91          6           0      -16.949838    4.358879    1.220783
     92          6           0      -16.930198    5.783798    1.778417
     93          1           0      -18.052827    6.666323    1.472894
     94          7           0      -15.916487   -1.244583    2.187058
     95          6           0      -15.595102   -0.436538    3.219080
     96          6           0      -15.706199   -1.265821    4.429088
     97          6           0      -15.959186   -2.671932    4.012473
     98          6           0      -15.795537   -2.555150    2.577318
     99          6           0      -15.652634   -0.693243    5.815709
    100          6           0      -16.280904   -3.918347    4.780025
    101          8           0      -16.225639   -5.077447    4.235715
    102          6           0      -16.571635   -3.750191    6.211347
    103          7           0      -15.410860   -2.646861   -0.455884
    104          6           0      -15.364835   -3.712149    0.363255
    105          6           0      -15.227424   -4.996385   -0.419209
    106          6           0      -15.434774   -4.589868   -1.951967
    107          6           0      -15.573614   -3.060043   -1.791487
    108          6           0      -13.896135   -5.731084   -0.263423
    109          6           0      -16.534309   -5.353222   -2.739982
    110          6           0      -17.899592   -4.997147   -2.197210
    111          7           0      -15.953980   -0.108057   -1.796342
    112          6           0      -15.764526   -0.901977   -2.948683
    113          6           0      -15.738158    0.012972   -4.108242
    114          6           0      -15.892286    1.287992   -3.543396
    115          6           0      -15.986370    1.177344   -2.129748
    116          6           0      -15.539558   -0.369034   -5.464980
    117          6           0      -15.986110    2.703271   -3.820701
    118          8           0      -16.055754    3.385591   -4.842138
    119          6           0      -15.856299    3.496595   -2.449504
    120          6           0      -16.952537    4.525463   -2.402572
    121          8           0      -18.145035    4.176502   -2.349871
    122          8           0      -16.408332    5.740640   -2.208756
    123          6           0      -17.456901    6.793321   -2.144039
    124          1           0      -14.691311    1.296974    4.029191
    125          1           0      -15.521259   -4.586762    2.104513
    126          1           0      -15.589341   -2.678859   -3.877947
    127          1           0      -14.962273    4.582454    0.354082
    128          1           0      -15.107034    3.638941    3.004726
    129          1           0      -12.954626    3.539458    0.931715
    130          1           0      -12.912567    2.213970    2.113070
    131          1           0      -12.804842    3.844789    2.703385
    132          1           0      -17.311074    3.816445    2.103975
    133          1           0      -17.638263    4.301431    0.400175
    134          1           0      -15.977939    6.290757    1.580604
    135          1           0      -16.984146    5.730615    2.868504
    136          1           0      -15.292316    0.342866    5.809426
    137          1           0      -14.879769   -1.246290    6.360383
    138          1           0      -16.600385   -0.792290    6.349216
    139          1           0      -15.719456   -3.284562    6.700669
    140          1           0      -16.865189   -4.739349    6.568103
    141          1           0      -17.413411   -3.056947    6.318277
    142          1           0      -15.995831   -5.705477   -0.136668
    143          1           0      -14.525154   -4.762273   -2.545863
    144          1           0      -14.011288   -6.772404    0.092171
    145          1           0      -13.271020   -5.164810    0.414152
    146          1           0      -13.283691   -5.772748   -1.162523
    147          1           0      -16.417950   -6.431308   -2.604485
    148          1           0      -16.514666   -5.158789   -3.807126
    149          1           0      -18.003700   -5.662740   -1.335098
    150          1           0      -18.669964   -5.191024   -2.940844
    151          1           0      -17.917787   -3.967126   -1.822528
    152          1           0      -16.255142    0.189464   -6.053630
    153          1           0      -15.664633   -1.441572   -5.598425
    154          1           0      -14.501492   -0.056180   -5.605738
    155          1           0      -14.865726    3.952505   -2.427314
    156          1           0      -17.204630    7.542504   -2.900856
    157          1           0      -17.478340    7.129250   -1.090263
    158          1           0      -18.461452    6.519242   -2.444376
 ---------------------------------------------------------------------

 SCF Done:  E(RCAM-B3LYP) =  -4069.81177626     A.U. after   19 cycles

 Excitation energies and oscillator strengths:

 Excited State   1:      Singlet-A      1.6755 eV  740.00 nm  f=0.3056  <S**2>=0.000
     310 -> 316        0.17123
     311 -> 314        0.11296
     312 -> 313        0.67669
     310 <- 316        0.10322
 This state for optimization and/or second-order correction.
 Total Energy, E(TD-HF/TD-DFT) =  -4069.75020439
 Copying the excited state density for this state as the 1-particle RhoCI density.

 Excited State   2:      Singlet-A      1.6800 eV  738.00 nm  f=0.4712  <S**2>=0.000
     309 -> 315        0.17317
     311 -> 314        0.67633
     312 -> 313       -0.11292
     309 <- 315        0.10369

 Excited State   3:      Singlet-A      2.1861 eV  567.14 nm  f=0.0988  <S**2>=0.000
     310 -> 313        0.64228
     312 -> 316       -0.27304

 Excited State   4:      Singlet-A      2.1925 eV  565.48 nm  f=0.1017  <S**2>=0.000
     309 -> 314        0.64050
     311 -> 315       -0.27820

 Excited State   5:      Singlet-A      3.0657 eV  404.43 nm  f=0.0000  <S**2>=0.000
     311 -> 313        0.70711

 The electronic state is 1-A.
 Alpha  occ. eigenvalues --  -46.87796 -46.87661 -19.26354 -19.26280 -19.19165
 Alpha  occ. eigenvalues --  -19.19017 -19.18815 -19.18712 -19.18168 -19.18054
 Alpha  occ. eigenvalues --  -14.42498 -14.42449 -14.41450 -14.41359 -14.39402
 Alpha  occ. eigenvalues --  -14.39352 -14.38601 -14.38586 -10.39095 -10.39076
 Alpha  occ. eigenvalues --  -10.35448 -10.35389 -10.34388 -10.34232 -10.31762
 Alpha  occ. eigenvalues --  -10.31674 -10.31404 -10.31310 -10.31023 -10.30907
 Alpha  occ. eigenvalues --  -10.30569 -10.30507 -10.30398 -10.30362 -10.30207
 Alpha  occ. eigenvalues --  -10.30140 -10.29921 -10.29895 -10.29630 -10.29436
 Alpha  occ. eigenvalues --  -10.29401 -10.29254 -10.28745 -10.28720 -10.28656
 Alpha  occ. eigenvalues --  -10.28531 -10.28405 -10.28364 -10.28141 -10.28113
 Alpha  occ. eigenvalues --  -10.28002 -10.27792 -10.27726 -10.27669 -10.27583
 Alpha  occ. eigenvalues --  -10.27517 -10.27504 -10.27484 -10.27478 -10.27467
 Alpha  occ. eigenvalues --  -10.27463 -10.27452 -10.27402 -10.27374 -10.27156
 Alpha  occ. eigenvalues --  -10.27053 -10.26699 -10.26694 -10.26410 -10.26409
 Alpha  occ. eigenvalues --  -10.26231 -10.26189 -10.26137 -10.26024 -10.26020
 Alpha  occ. eigenvalues --  -10.25935 -10.25855 -10.25845 -10.25439 -10.25393
 Alpha  occ. eigenvalues --  -10.24874 -10.24832 -10.24788 -10.24731 -10.24693
 Alpha  occ. eigenvalues --  -10.24690  -3.16539  -3.16411  -1.91420  -1.91293
 Alpha  occ. eigenvalues --   -1.91007  -1.90882  -1.90849  -1.90718  -1.16648
 Alpha  occ. eigenvalues --   -1.16629  -1.08661  -1.08626  -1.07216  -1.06964
 Alpha  occ. eigenvalues --   -1.06950  -1.06639  -1.04580  -1.04496  -1.03760
 Alpha  occ. eigenvalues --   -1.03663  -1.03233  -1.03039  -1.02411  -1.02112
 Alpha  occ. eigenvalues --   -0.91988  -0.91971  -0.89521  -0.89495  -0.89184
 Alpha  occ. eigenvalues --   -0.89152  -0.88289  -0.88220  -0.87870  -0.87796
 Alpha  occ. eigenvalues --   -0.87684  -0.87672  -0.87273  -0.87119  -0.85000
 Alpha  occ. eigenvalues --   -0.84979  -0.83939  -0.83876  -0.82967  -0.82930
 Alpha  occ. eigenvalues --   -0.82653  -0.82646  -0.81599  -0.81584  -0.80595
 Alpha  occ. eigenvalues --   -0.80444  -0.78796  -0.78635  -0.77218  -0.77145
 Alpha  occ. eigenvalues --   -0.76932  -0.76899  -0.75921  -0.75840  -0.74899
 Alpha  occ. eigenvalues --   -0.74802  -0.72774  -0.72700  -0.71671  -0.71581
 Alpha  occ. eigenvalues --   -0.69910  -0.69757  -0.68871  -0.68828  -0.67640
 Alpha  occ. eigenvalues --   -0.67602  -0.67216  -0.67200  -0.65284  -0.65273
 Alpha  occ. eigenvalues --   -0.64853  -0.64771  -0.64655  -0.64619  -0.64270
 Alpha  occ. eigenvalues --   -0.64204  -0.62296  -0.62281  -0.60442  -0.60339
 Alpha  occ. eigenvalues --   -0.59802  -0.59797  -0.58993  -0.58987  -0.58503
 Alpha  occ. eigenvalues --   -0.58426  -0.57583  -0.57557  -0.57309  -0.57237
 Alpha  occ. eigenvalues --   -0.56309  -0.56205  -0.55975  -0.55889  -0.55519
 Alpha  occ. eigenvalues --   -0.55452  -0.55340  -0.55248  -0.54523  -0.54489
 Alpha  occ. eigenvalues --   -0.53913  -0.53892  -0.53298  -0.53228  -0.53220
 Alpha  occ. eigenvalues --   -0.53142  -0.52913  -0.52904  -0.52754  -0.52666
 Alpha  occ. eigenvalues --   -0.52442  -0.52401  -0.51915  -0.51888  -0.51659
 Alpha  occ. eigenvalues --   -0.51614  -0.51203  -0.51195  -0.50571  -0.50473
 Alpha  occ. eigenvalues --   -0.50033  -0.49979  -0.49917  -0.49866  -0.49512
 Alpha  occ. eigenvalues --   -0.49487  -0.49213  -0.49203  -0.49106  -0.49093
 Alpha  occ. eigenvalues --   -0.48591  -0.48560  -0.48462  -0.48444  -0.48376
 Alpha  occ. eigenvalues --   -0.48338  -0.47693  -0.47595  -0.47296  -0.47118
 Alpha  occ. eigenvalues --   -0.46797  -0.46710  -0.46554  -0.46552  -0.46359
 Alpha  occ. eigenvalues --   -0.46271  -0.46162  -0.46087  -0.45825  -0.45821
 Alpha  occ. eigenvalues --   -0.45208  -0.45203  -0.44577  -0.44516  -0.44506
 Alpha  occ. eigenvalues --   -0.44477  -0.44145  -0.44128  -0.44086  -0.44078
 Alpha  occ. eigenvalues --   -0.44018  -0.43939  -0.43556  -0.43493  -0.43386
 Alpha  occ. eigenvalues --   -0.43384  -0.43026  -0.42933  -0.42903  -0.42698
 Alpha  occ. eigenvalues --   -0.42655  -0.42553  -0.42010  -0.41965  -0.41703
 Alpha  occ. eigenvalues --   -0.41670  -0.41531  -0.41459  -0.41140  -0.40990
 Alpha  occ. eigenvalues --   -0.40868  -0.40822  -0.40722  -0.40698  -0.40572
 Alpha  occ. eigenvalues --   -0.40493  -0.40229  -0.40227  -0.39444  -0.39425
 Alpha  occ. eigenvalues --   -0.38470  -0.38350  -0.37744  -0.37655  -0.37321
 Alpha  occ. eigenvalues --   -0.37266  -0.37261  -0.37200  -0.36774  -0.36711
 Alpha  occ. eigenvalues --   -0.36218  -0.36192  -0.34285  -0.34254  -0.33866
 Alpha  occ. eigenvalues --   -0.33768  -0.33186  -0.33176  -0.31344  -0.31271
 Alpha  occ. eigenvalues --   -0.31035  -0.30973  -0.30028  -0.29959  -0.29448
 Alpha  occ. eigenvalues --   -0.29327  -0.29321  -0.29213  -0.24080  -0.24037
 Alpha  occ. eigenvalues --   -0.21127  -0.21117
 Alpha virt. eigenvalues --   -0.08792  -0.08773  -0.01749  -0.01684  -0.00057
 Alpha virt. eigenvalues --   -0.00028   0.02201   0.02205   0.03124   0.03227
 Alpha virt. eigenvalues --    0.04721   0.04729   0.05101   0.05161   0.06181

 Mulliken charges:
               1
     1  Mg   0.838782
     2  C   -0.002960
     3  C   -0.094082
     4  C   -0.045889
     5  C   -0.064000
     6  N   -0.256784
     7  C   -0.052449
     8  C   -0.014015
     9  C   -0.087009
    10  C    0.046309
    11  C    0.104812
    12  C    0.053453
    13  C   -0.071830
    14  H    0.036184
    15  N   -0.433147
    16  C    0.168420
    17  C   -0.177132
    18  C   -0.004018
    19  C    0.148712
    20  C    0.110178
    21  C    0.012287
    22  O   -0.249661
    23  C    0.062476
    24  N   -0.341137
    25  C    0.041235
    26  C   -0.028164
    27  C   -0.023985
    28  C    0.074870
    29  C    0.076176
    30  C    0.035136
    31  C   -0.004486
    32  N   -0.310464
    33  C    0.080404
    34  C   -0.169741
    35  C    0.008358
    36  C    0.082960
    37  C    0.127319
    38  C    0.046110
    39  O   -0.188446
    40  C   -0.005313
    41  C    0.212857
    42  O   -0.257098
    43  O   -0.304792
    44  C    0.157689
    45  H   -0.017568
    46  H   -0.016862
    47  H   -0.041530
    48  H    0.000948
    49  H   -0.003990
    50  H    0.025471
    51  H    0.016432
    52  H    0.016690
    53  H    0.011223
    54  H    0.044119
    55  H    0.017870
    56  H    0.017986
    57  H    0.005909
    58  H    0.026834
    59  H    0.039596
    60  H    0.037367
    61  H    0.035637
    62  H    0.031532
    63  H    0.016521
    64  H    0.009448
    65  H    0.023181
    66  H    0.012567
    67  H    0.004740
    68  H    0.006320
    69  H    0.004708
    70  H    0.008756
    71  H    0.018084
    72  H    0.029019
    73  H    0.047552
    74  H    0.009073
    75  H    0.046004
    76  H    0.035159
    77  H    0.042950
    78  H    0.046432
    79  H    0.053691
    80  Mg   0.837906
    81  C   -0.016849
    82  C   -0.087791
    83  C   -0.045499
    84  C   -0.064856
    85  N   -0.254564
    86  C   -0.049851
    87  C   -0.015088
    88  C   -0.090502
    89  C    0.045760
    90  C    0.114364
    91  C    0.062532
    92  C   -0.077904
    93  H    0.034876
    94  N   -0.423537
    95  C    0.162952
    96  C   -0.174581
    97  C   -0.007773
    98  C    0.152132
    99  C    0.099348
   100  C    0.015597
   101  O   -0.253136
   102  C    0.061186
   103  N   -0.350085
   104  C    0.037563
   105  C   -0.019856
   106  C   -0.034814
   107  C    0.088905
   108  C    0.073629
   109  C    0.034742
   110  C   -0.007690
   111  N   -0.324112
   112  C    0.078435
   113  C   -0.163159
   114  C    0.002230
   115  C    0.096184
   116  C    0.131488
   117  C    0.042359
   118  O   -0.187946
   119  C    0.000921
   120  C    0.211271
   121  O   -0.251022
   122  O   -0.305638
   123  C    0.152034
   124  H   -0.019608
   125  H   -0.015515
   126  H   -0.040472
   127  H   -0.000663
   128  H   -0.004309
   129  H    0.022447
   130  H    0.014470
   131  H    0.016323
   132  H    0.013929
   133  H    0.037660
   134  H    0.020787
   135  H    0.019617
   136  H    0.008781
   137  H    0.026224
   138  H    0.039819
   139  H    0.038298
   140  H    0.036447
   141  H    0.033886
   142  H    0.014416
   143  H    0.012441
   144  H    0.025198
   145  H    0.011692
   146  H    0.005714
   147  H    0.006296
   148  H    0.003627
   149  H    0.010956
   150  H    0.017917
   151  H    0.030088
   152  H    0.045967
   153  H    0.008511
   154  H    0.046923
   155  H    0.035014
   156  H    0.043878
   157  H    0.049508
   158  H    0.053572
 Sum of Mulliken charges =  -0.00000

 Dipole moment (field-independent basis, Debye):
    X=              3.8368    Y=              3.5389    Z=              0.9416  Tot=              5.3040
 Quadrupole moment (field-independent basis, Debye-Ang):
   XX=           -518.6289   YY=           -533.5519   ZZ=           -465.1639
   XY=             36.5845   XZ=           -116.1764   YZ=             31.6680

 Normal termination of Gaussian 16 at Sun Sep 12 14:56:10 2021.
