 Gaussian 16, Revision A.03,
 Gaussian 16:  ES64L-G16RevA.03 25-Dec-2016

 -----------------------------------
 #p cam-b3lyp/Def2SVP td=(nstates=5)
 -----------------------------------

 --------------------------------
 TDDFT excited states in gaussian
 --------------------------------
 Symbolic Z-matrix:
 Charge =  0 Multiplicity = 1

                         Standard orientation:
 ---------------------------------------------------------------------
 Center     Atomic      Atomic             Coordinates (Angstroms)
 Number     Number       Type             X           Y           Z
 ---------------------------------------------------------------------
      1         12           0        4.786608    0.169106    0.392168
      2          6           0        4.779752   -3.014593   -1.243750
      3          6           0        5.863208    1.513612   -2.553388
      4          6           0        5.235590    2.905496    1.930742
      5          6           0        4.817362   -1.553047    3.421839
      6          7           0        5.226884   -0.737923   -1.578644
      7          6           0        5.126368   -1.960210   -2.091559
      8          6           0        5.350548   -2.003850   -3.632731
      9          6           0        6.219312   -0.677274   -3.798398
     10          6           0        5.715479    0.095263   -2.592056
     11          6           0        7.719032   -0.907734   -3.642738
     12          6           0        4.007085   -1.912353   -4.431772
     13          6           0        4.104184   -2.273741   -5.916805
     14          1           0        2.987147   -2.963715   -6.544111
     15          7           0        4.977283    2.010465   -0.297680
     16          6           0        5.414560    2.373321   -1.527481
     17          6           0        5.375543    3.851306   -1.554250
     18          6           0        5.060950    4.323195   -0.177134
     19          6           0        5.105110    3.083549    0.555468
     20          6           0        5.573532    4.657186   -2.801290
     21          6           0        4.777476    5.677969    0.390633
     22          8           0        4.758042    5.897184    1.650054
     23          6           0        4.608344    6.774683   -0.579756
     24          7           0        5.218708    0.624500    2.383033
     25          6           0        5.304160    1.893213    2.797822
     26          6           0        5.337768    1.977070    4.295078
     27          6           0        5.011275    0.507513    4.827579
     28          6           0        4.922528   -0.222952    3.464929
     29          6           0        6.659013    2.460439    4.908819
     30          6           0        3.829239    0.365311    5.819037
     31          6           0        2.527961    0.676892    5.114274
     32          7           0        4.618986   -1.902323    1.018369
     33          6           0        4.680609   -2.394194    2.330215
     34          6           0        4.627865   -3.865138    2.242970
     35          6           0        4.555459   -4.129041    0.876603
     36          6           0        4.588992   -2.901806    0.154757
     37          6           0        4.707324   -4.768383    3.339449
     38          6           0        4.482400   -5.163343   -0.142582
     39          8           0        4.332817   -6.386007   -0.128097
     40          6           0        4.747500   -4.489069   -1.560646
     41          6           0        3.684728   -4.982391   -2.504287
     42          8           0        2.488828   -4.663887   -2.343837
     43          8           0        4.266773   -5.548773   -3.572452
     44          6           0        3.267978   -6.033274   -4.562312
     45          1           0        6.424014    2.007765   -3.349158
     46          1           0        5.281541    3.831476    2.507705
     47          1           0        4.737378   -2.153800    4.329666
     48          1           0        5.916717   -2.866107   -3.985419
     49          1           0        5.977209   -0.144436   -4.717741
     50          1           0        7.933926   -1.924768   -3.315044
     51          1           0        8.047680   -0.188512   -2.892269
     52          1           0        8.248229   -0.646979   -4.559653
     53          1           0        3.708430   -0.867337   -4.514282
     54          1           0        3.236143   -2.523822   -3.961582
     55          1           0        5.042309   -2.781366   -6.142965
     56          1           0        4.151558   -1.348459   -6.491096
     57          1           0        5.950481    4.043916   -3.618819
     58          1           0        6.377717    5.364364   -2.599063
     59          1           0        4.671584    5.198250   -3.087772
     60          1           0        5.513613    6.866704   -1.180231
     61          1           0        4.324021    7.650352    0.002665
     62          1           0        3.806872    6.513649   -1.271458
     63          1           0        4.580910    2.667453    4.665165
     64          1           0        5.856629    0.067022    5.356747
     65          1           0        6.550517    3.338553    5.545882
     66          1           0        7.358482    2.651401    4.095451
     67          1           0        7.197215    1.708612    5.485457
     68          1           0        3.930971    1.079675    6.635297
     69          1           0        3.752210   -0.629937    6.256988
     70          1           0        2.477626    1.763943    5.165446
     71          1           0        1.690187    0.221911    5.643744
     72          1           0        2.570350    0.401918    4.060197
     73          1           0        3.949422   -5.531258    3.161753
     74          1           0        4.539795   -4.256696    4.286926
     75          1           0        5.731554   -5.125456    3.233109
     76          1           0        5.745637   -4.795666   -1.871840
     77          1           0        3.467979   -7.091904   -4.728247
     78          1           0        3.333733   -5.365216   -5.421254
     79          1           0        2.232102   -6.070215   -4.223291
     80         12           0       -4.183347    0.905067    0.126873
     81          6           0       -6.886648   -1.453123    0.227667
     82          6           0       -6.148017    2.845212   -1.875737
     83          6           0       -1.670803    2.783113   -0.350083
     84          6           0       -2.077161   -1.676200    1.150007
     85          7           0       -6.234133    0.624850   -0.652859
     86          6           0       -7.187504   -0.281435   -0.497639
     87          6           0       -8.563988    0.125331   -1.088727
     88          6           0       -8.052403    1.182143   -2.184315
     89          6           0       -6.745316    1.609618   -1.519887
     90          6           0       -7.721483    0.546978   -3.524604
     91          6           0       -9.493962    0.806344   -0.024114
     92          6           0      -10.957957    0.948754   -0.446246
     93          1           0      -11.993398    0.806519    0.573601
     94          7           0       -4.083863    2.774177   -0.532732
     95          6           0       -4.979721    3.408921   -1.317476
     96          6           0       -4.437512    4.758802   -1.536495
     97          6           0       -3.069532    4.815160   -0.953245
     98          6           0       -2.876012    3.423075   -0.600049
     99          6           0       -5.233696    5.862636   -2.169789
    100          6           0       -2.091656    5.934138   -0.758719
    101          8           0       -0.868023    5.712647   -0.448074
    102          6           0       -2.585250    7.291396   -1.033826
    103          7           0       -2.134406    0.554070    0.158607
    104          6           0       -1.258293    1.556464   -0.029970
    105          6           0        0.147919    1.122891    0.309111
    106          6           0        0.000468   -0.312642    0.998384
    107          6           0       -1.524469   -0.508496    0.851401
    108          6           0        1.116078    1.024176   -0.869574
    109          6           0        0.635835   -0.486530    2.405056
    110          6           0       -0.108461    0.356516    3.415349
    111          7           0       -4.432894   -1.137508    0.785425
    112          6           0       -3.415089   -2.049388    1.141255
    113          6           0       -4.067488   -3.347728    1.407908
    114          6           0       -5.427765   -3.105123    1.164444
    115          6           0       -5.607762   -1.756518    0.754114
    116          6           0       -3.403562   -4.553303    1.771097
    117          6           0       -6.751019   -3.686084    1.150988
    118          8           0       -7.227898   -4.768729    1.488913
    119          6           0       -7.738742   -2.676590    0.421781
    120          6           0       -8.974510   -2.542545    1.268784
    121          8           0       -8.913957   -2.023980    2.397510
    122          8           0      -10.053610   -2.847345    0.525129
    123          6           0      -11.304977   -2.718379    1.318402
    124          1           0       -6.591020    3.420388   -2.689256
    125          1           0       -0.782314    3.417300   -0.393485
    126          1           0       -1.501493   -2.504510    1.568559
    127          1           0       -9.106164   -0.678450   -1.572217
    128          1           0       -8.732219    2.026217   -2.266506
    129          1           0       -7.772585   -0.530901   -3.483210
    130          1           0       -6.716223    0.869211   -3.762649
    131          1           0       -8.363945    0.961170   -4.306922
    132          1           0       -9.220273    1.865520    0.065155
    133          1           0       -9.437237    0.292419    0.915726
    134          1           0      -11.195610    0.334756   -1.323439
    135          1           0      -11.123399    1.974590   -0.784345
    136          1           0       -6.144526    5.479406   -2.646148
    137          1           0       -4.635723    6.251987   -3.000880
    138          1           0       -5.448392    6.678485   -1.476273
    139          1           0       -2.934331    7.347188   -2.062166
    140          1           0       -1.770332    7.961289   -0.752705
    141          1           0       -3.454821    7.483512   -0.395429
    142          1           0        0.603782    1.806424    1.014860
    143          1           0        0.477858   -1.102744    0.400332
    144          1           0        2.020577    1.649030   -0.744984
    145          1           0        0.585205    1.299149   -1.771304
    146          1           0        1.459906    0.017660   -1.101736
    147          1           0        1.667944   -0.127510    2.401429
    148          1           0        0.654221   -1.516145    2.746424
    149          1           0        0.343885    1.345186    3.292861
    150          1           0        0.046294   -0.026369    4.422072
    151          1           0       -1.168547    0.443912    3.150345
    152          1           0       -3.985840   -5.002525    2.564600
    153          1           0       -2.379682   -4.363801    2.086609
    154          1           0       -3.447181   -5.093635    0.821676
    155          1           0       -7.960331   -3.089117   -0.563247
    156          1           0      -11.824326   -3.679547    1.254394
    157          1           0      -11.828822   -1.834492    0.908418
    158          1           0      -11.208341   -2.601238    2.391435
 ---------------------------------------------------------------------

 SCF Done:  E(RCAM-B3LYP) =  -4069.81038684     A.U. after   19 cycles

 Excitation energies and oscillator strengths:

 Excited State   1:      Singlet-A      1.6405 eV  755.75 nm  f=0.0011  <S**2>=0.000
     309 -> 315       -0.11524
     310 -> 316        0.11750
     311 -> 313       -0.47922
     312 -> 314        0.49353
 This state for optimization and/or second-order correction.
 Total Energy, E(TD-HF/TD-DFT) =  -4069.75009790
 Copying the excited state density for this state as the 1-particle RhoCI density.

 Excited State   2:      Singlet-A      1.7051 eV  727.13 nm  f=0.6846  <S**2>=0.000
     309 -> 315        0.13073
     310 -> 316        0.12467
     311 -> 313        0.49060
     312 -> 314        0.47630

 Excited State   3:      Singlet-A      2.1825 eV  568.09 nm  f=0.1098  <S**2>=0.000
     310 -> 314        0.63641
     312 -> 316       -0.26629

 Excited State   4:      Singlet-A      2.1958 eV  564.64 nm  f=0.0927  <S**2>=0.000
     309 -> 313        0.63182
     311 -> 315       -0.27551

 Excited State   5:      Singlet-A      2.3283 eV  532.52 nm  f=0.0004  <S**2>=0.000
     312 -> 313        0.70373

 The electronic state is 1-A.
 Alpha  occ. eigenvalues --  -46.87926 -46.87439 -19.26386 -19.26195 -19.19153
 Alpha  occ. eigenvalues --  -19.18998 -19.18654 -19.18576 -19.18247 -19.17846
 Alpha  occ. eigenvalues --  -14.42542 -14.42280 -14.41562 -14.41130 -14.39490
 Alpha  occ. eigenvalues --  -14.39140 -14.38710 -14.38367 -10.39205 -10.38923
 Alpha  occ. eigenvalues --  -10.35278 -10.35261 -10.34474 -10.34022 -10.31755
 Alpha  occ. eigenvalues --  -10.31622 -10.31524 -10.31079 -10.30977 -10.30847
 Alpha  occ. eigenvalues --  -10.30688 -10.30603 -10.30280 -10.30158 -10.30114
 Alpha  occ. eigenvalues --  -10.30039 -10.29902 -10.29684 -10.29664 -10.29317
 Alpha  occ. eigenvalues --  -10.29219 -10.29165 -10.28829 -10.28609 -10.28556
 Alpha  occ. eigenvalues --  -10.28532 -10.28447 -10.28208 -10.28197 -10.27967
 Alpha  occ. eigenvalues --  -10.27859 -10.27818 -10.27781 -10.27612 -10.27564
 Alpha  occ. eigenvalues --  -10.27514 -10.27499 -10.27452 -10.27410 -10.27323
 Alpha  occ. eigenvalues --  -10.27269 -10.27253 -10.27251 -10.27225 -10.27191
 Alpha  occ. eigenvalues --  -10.26856 -10.26799 -10.26549 -10.26338 -10.26301
 Alpha  occ. eigenvalues --  -10.26205 -10.26122 -10.26055 -10.25939 -10.25871
 Alpha  occ. eigenvalues --  -10.25867 -10.25636 -10.25468 -10.25445 -10.25411
 Alpha  occ. eigenvalues --  -10.24913 -10.24869 -10.24754 -10.24648 -10.24486
 Alpha  occ. eigenvalues --  -10.24290  -3.16635  -3.16189  -1.91519  -1.91104
 Alpha  occ. eigenvalues --   -1.91071  -1.90946  -1.90660  -1.90497  -1.16739
 Alpha  occ. eigenvalues --   -1.16486  -1.08713  -1.08453  -1.07040  -1.06836
 Alpha  occ. eigenvalues --   -1.06781  -1.06769  -1.04671  -1.04285  -1.03854
 Alpha  occ. eigenvalues --   -1.03442  -1.03327  -1.02809  -1.02506  -1.01889
 Alpha  occ. eigenvalues --   -0.92064  -0.91772  -0.89616  -0.89276  -0.89245
 Alpha  occ. eigenvalues --   -0.88973  -0.88371  -0.88033  -0.87956  -0.87756
 Alpha  occ. eigenvalues --   -0.87528  -0.87460  -0.87228  -0.86944  -0.85048
 Alpha  occ. eigenvalues --   -0.84821  -0.84077  -0.83679  -0.82921  -0.82775
 Alpha  occ. eigenvalues --   -0.82621  -0.82481  -0.81667  -0.81396  -0.80645
 Alpha  occ. eigenvalues --   -0.80248  -0.78810  -0.78425  -0.77308  -0.77049
 Alpha  occ. eigenvalues --   -0.76918  -0.76706  -0.75998  -0.75647  -0.74990
 Alpha  occ. eigenvalues --   -0.74648  -0.72857  -0.72463  -0.71748  -0.71403
 Alpha  occ. eigenvalues --   -0.70062  -0.69512  -0.68922  -0.68644  -0.67691
 Alpha  occ. eigenvalues --   -0.67404  -0.67235  -0.67039  -0.65372  -0.65089
 Alpha  occ. eigenvalues --   -0.64945  -0.64705  -0.64552  -0.64460  -0.64375
 Alpha  occ. eigenvalues --   -0.64004  -0.62393  -0.62088  -0.60445  -0.60157
 Alpha  occ. eigenvalues --   -0.59880  -0.59603  -0.59070  -0.58782  -0.58579
 Alpha  occ. eigenvalues --   -0.58223  -0.57679  -0.57369  -0.57349  -0.57047
 Alpha  occ. eigenvalues --   -0.56365  -0.56059  -0.55982  -0.55714  -0.55516
 Alpha  occ. eigenvalues --   -0.55454  -0.55272  -0.55083  -0.54649  -0.54361
 Alpha  occ. eigenvalues --   -0.53975  -0.53738  -0.53362  -0.53204  -0.53051
 Alpha  occ. eigenvalues --   -0.52996  -0.52936  -0.52738  -0.52712  -0.52663
 Alpha  occ. eigenvalues --   -0.52519  -0.52227  -0.52006  -0.51634  -0.51575
 Alpha  occ. eigenvalues --   -0.51487  -0.51284  -0.50959  -0.50446  -0.50354
 Alpha  occ. eigenvalues --   -0.50126  -0.49929  -0.49804  -0.49722  -0.49472
 Alpha  occ. eigenvalues --   -0.49324  -0.49248  -0.49144  -0.49013  -0.48905
 Alpha  occ. eigenvalues --   -0.48664  -0.48519  -0.48417  -0.48352  -0.48205
 Alpha  occ. eigenvalues --   -0.48181  -0.47684  -0.47408  -0.47324  -0.46943
 Alpha  occ. eigenvalues --   -0.46881  -0.46630  -0.46503  -0.46464  -0.46372
 Alpha  occ. eigenvalues --   -0.46276  -0.46026  -0.45929  -0.45838  -0.45601
 Alpha  occ. eigenvalues --   -0.45343  -0.45052  -0.44649  -0.44527  -0.44350
 Alpha  occ. eigenvalues --   -0.44292  -0.44236  -0.44159  -0.43988  -0.43945
 Alpha  occ. eigenvalues --   -0.43890  -0.43762  -0.43570  -0.43481  -0.43322
 Alpha  occ. eigenvalues --   -0.43175  -0.43079  -0.42865  -0.42781  -0.42718
 Alpha  occ. eigenvalues --   -0.42616  -0.42315  -0.41948  -0.41786  -0.41689
 Alpha  occ. eigenvalues --   -0.41553  -0.41473  -0.41300  -0.41187  -0.40937
 Alpha  occ. eigenvalues --   -0.40811  -0.40714  -0.40642  -0.40583  -0.40477
 Alpha  occ. eigenvalues --   -0.40290  -0.40248  -0.40079  -0.39748  -0.38859
 Alpha  occ. eigenvalues --   -0.38541  -0.38157  -0.37811  -0.37489  -0.37395
 Alpha  occ. eigenvalues --   -0.37336  -0.37012  -0.36962  -0.36807  -0.36595
 Alpha  occ. eigenvalues --   -0.36267  -0.35993  -0.34379  -0.34032  -0.33896
 Alpha  occ. eigenvalues --   -0.33688  -0.33276  -0.32947  -0.31236  -0.31136
 Alpha  occ. eigenvalues --   -0.31072  -0.30760  -0.30114  -0.29747  -0.29491
 Alpha  occ. eigenvalues --   -0.29390  -0.29125  -0.28977  -0.24179  -0.23804
 Alpha  occ. eigenvalues --   -0.21215  -0.20893
 Alpha virt. eigenvalues --   -0.08837  -0.08572  -0.01837  -0.01486  -0.00027
 Alpha virt. eigenvalues --    0.00145   0.02122   0.02433   0.03370   0.03763
 Alpha virt. eigenvalues --    0.04601   0.04930   0.04973   0.05339   0.06020

 Mulliken charges:
               1
     1  Mg   0.801328
     2  C   -0.000690
     3  C   -0.090185
     4  C   -0.043627
     5  C   -0.063820
     6  N   -0.253579
     7  C   -0.056292
     8  C   -0.013000
     9  C   -0.087215
    10  C    0.044519
    11  C    0.104722
    12  C    0.052334
    13  C   -0.071950
    14  H    0.036322
    15  N   -0.436621
    16  C    0.168488
    17  C   -0.175829
    18  C   -0.002627
    19  C    0.147862
    20  C    0.110479
    21  C    0.018502
    22  O   -0.248678
    23  C    0.060498
    24  N   -0.335796
    25  C    0.035496
    26  C   -0.028103
    27  C   -0.026129
    28  C    0.071528
    29  C    0.076854
    30  C    0.059797
    31  C   -0.022944
    32  N   -0.308151
    33  C    0.078478
    34  C   -0.172771
    35  C    0.008747
    36  C    0.077319
    37  C    0.127778
    38  C    0.045101
    39  O   -0.188281
    40  C   -0.006437
    41  C    0.213128
    42  O   -0.258943
    43  O   -0.304454
    44  C    0.157470
    45  H   -0.017819
    46  H   -0.016206
    47  H   -0.042622
    48  H    0.001047
    49  H   -0.003603
    50  H    0.025685
    51  H    0.016988
    52  H    0.016960
    53  H    0.011961
    54  H    0.043235
    55  H    0.018137
    56  H    0.018306
    57  H    0.005267
    58  H    0.027027
    59  H    0.042882
    60  H    0.034665
    61  H    0.037042
    62  H    0.039061
    63  H    0.017334
    64  H    0.009855
    65  H    0.023763
    66  H    0.012930
    67  H    0.004939
    68  H    0.004827
    69  H    0.002784
    70  H    0.011061
    71  H    0.024775
    72  H    0.013444
    73  H    0.046589
    74  H    0.008775
    75  H    0.046550
    76  H    0.035708
    77  H    0.043482
    78  H    0.046609
    79  H    0.053706
    80  Mg   0.838129
    81  C   -0.017410
    82  C   -0.088366
    83  C   -0.045716
    84  C   -0.062276
    85  N   -0.254632
    86  C   -0.049496
    87  C   -0.015156
    88  C   -0.090420
    89  C    0.045607
    90  C    0.114589
    91  C    0.062621
    92  C   -0.077604
    93  H    0.034431
    94  N   -0.423162
    95  C    0.162427
    96  C   -0.175670
    97  C   -0.008888
    98  C    0.151531
    99  C    0.099822
   100  C    0.014844
   101  O   -0.254607
   102  C    0.061260
   103  N   -0.350262
   104  C    0.038562
   105  C   -0.026514
   106  C   -0.034328
   107  C    0.088795
   108  C    0.036834
   109  C    0.000986
   110  C    0.002347
   111  N   -0.324420
   112  C    0.078111
   113  C   -0.161633
   114  C    0.001992
   115  C    0.096768
   116  C    0.132200
   117  C    0.042794
   118  O   -0.187701
   119  C    0.000871
   120  C    0.211161
   121  O   -0.251249
   122  O   -0.305625
   123  C    0.152161
   124  H   -0.020725
   125  H   -0.016465
   126  H   -0.034778
   127  H   -0.000857
   128  H   -0.004897
   129  H    0.022474
   130  H    0.014286
   131  H    0.015461
   132  H    0.013864
   133  H    0.037623
   134  H    0.020625
   135  H    0.019300
   136  H    0.008306
   137  H    0.024537
   138  H    0.039096
   139  H    0.037177
   140  H    0.035248
   141  H    0.034408
   142  H    0.017173
   143  H    0.025829
   144  H    0.058841
   145  H    0.009090
   146  H    0.027922
   147  H    0.035711
   148  H    0.008857
   149  H    0.012032
   150  H    0.016771
   151  H    0.026280
   152  H    0.044840
   153  H    0.011315
   154  H    0.049898
   155  H    0.034952
   156  H    0.043708
   157  H    0.049227
   158  H    0.053394
 Sum of Mulliken charges =  -0.00000

 Dipole moment (field-independent basis, Debye):
    X=              1.5426    Y=              5.8443    Z=             -5.9962  Tot=              8.5141
 Quadrupole moment (field-independent basis, Debye-Ang):
   XX=           -465.7744   YY=           -547.6593   ZZ=           -471.6800
   XY=            -30.1831   XZ=             14.4771   YZ=            -11.9505

 Normal termination of Gaussian 16 at Fri Sep 10 07:42:41 2021.
