 Gaussian 16, Revision A.03,
 Gaussian 16:  ES64L-G16RevA.03 25-Dec-2016

 -----------------------------------
 #p cam-b3lyp/Def2SVP td=(nstates=5)
 -----------------------------------

 --------------------------------
 TDDFT excited states in gaussian
 --------------------------------
 Symbolic Z-matrix:
 Charge =  0 Multiplicity = 1

                         Standard orientation:
 ---------------------------------------------------------------------
 Center     Atomic      Atomic             Coordinates (Angstroms)
 Number     Number       Type             X           Y           Z
 ---------------------------------------------------------------------
      1         12           0        7.669878   -1.070126    0.284483
      2          6           0        8.054890    2.368382   -0.632384
      3          6           0        8.469398   -0.155075    3.472981
      4          6           0        7.781358   -4.151656    1.025001
      5          6           0        8.020989   -1.856817   -3.092423
      6          7           0        8.175641    0.889197    1.182206
      7          6           0        8.229735    2.139637    0.734273
      8          6           0        8.414893    3.193952    1.866311
      9          6           0        9.088298    2.261853    2.970717
     10          6           0        8.516843    0.922651    2.539553
     11          6           0       10.609197    2.201580    2.872050
     12          6           0        7.049924    3.777661    2.364182
     13          6           0        7.154451    5.037423    3.228721
     14          1           0        6.125770    6.059098    3.104855
     15          7           0        7.586627   -1.969369    2.041549
     16          6           0        7.935601   -1.440858    3.239122
     17          6           0        7.693244   -2.502649    4.239394
     18          6           0        7.355195   -3.752516    3.503424
     19          6           0        7.589515   -3.342515    2.142405
     20          6           0        7.743968   -2.267363    5.717845
     21          6           0        6.904227   -5.105335    3.955794
     22          8           0        6.889858   -6.114959    3.171558
     23          6           0        6.559194   -5.239661    5.382662
     24          7           0        8.090467   -2.784169   -0.830323
     25          6           0        8.012357   -4.001113   -0.280841
     26          6           0        8.075701   -5.076560   -1.324556
     27          6           0        7.969042   -4.332279   -2.733251
     28          6           0        7.943644   -2.869336   -2.225883
     29          6           0        9.334574   -5.954557   -1.305282
     30          6           0        6.845734   -4.799925   -3.692367
     31          6           0        5.494927   -4.444659   -3.112534
     32          7           0        7.805784    0.038798   -1.576394
     33          6           0        7.970786   -0.491839   -2.863978
     34          6           0        8.118152    0.649382   -3.785913
     35          6           0        8.044755    1.771579   -2.963032
     36          6           0        7.889365    1.356984   -1.609423
     37          6           0        8.351329    0.564188   -5.186915
     38          6           0        8.086157    3.223913   -2.909488
     39          8           0        8.106368    4.122493   -3.751889
     40          6           0        8.216654    3.665599   -1.385116
     41          6           0        7.205909    4.752321   -1.138668
     42          8           0        5.982520    4.509453   -1.179919
     43          8           0        7.830329    5.840658   -0.663100
     44          6           0        6.880434    6.946840   -0.369476
     45          1           0        8.934704   -0.026132    4.452166
     46          1           0        7.715710   -5.223701    1.222098
     47          1           0        8.049513   -2.023086   -4.170845
     48          1           0        9.084100    4.017207    1.615636
     49          1           0        8.749872    2.512305    3.975935
     50          1           0       10.970748    2.707794    1.977092
     51          1           0       10.856672    1.140491    2.835470
     52          1           0       11.071896    2.585995    3.781398
     53          1           0        6.608405    3.092278    3.087626
     54          1           0        6.383623    3.971958    1.522982
     55          1           0        8.146755    5.484581    3.163206
     56          1           0        7.058333    4.743305    4.273927
     57          1           0        8.178716   -1.296979    5.954263
     58          1           0        8.448715   -2.988682    6.131051
     59          1           0        6.768654   -2.395790    6.187526
     60          1           0        7.426217   -4.976413    5.988897
     61          1           0        6.173591   -6.251210    5.504851
     62          1           0        5.782266   -4.514927    5.627799
     63          1           0        7.241774   -5.769842   -1.222812
     64          1           0        8.881249   -4.436779   -3.321156
     65          1           0        9.124246   -7.019342   -1.201844
     66          1           0        9.978327   -5.603013   -0.499497
     67          1           0        9.986736   -5.837563   -2.170391
     68          1           0        6.871025   -5.883123   -3.806335
     69          1           0        6.918312   -4.360001   -4.687078
     70          1           0        5.297219   -5.271670   -2.431507
     71          1           0        4.742609   -4.399549   -3.900692
     72          1           0        5.545386   -3.534758   -2.514187
     73          1           0        7.700739    1.305929   -5.650080
     74          1           0        8.141496   -0.436838   -5.563106
     75          1           0        9.411541    0.812973   -5.230659
     76          1           0        9.238408    4.017907   -1.247206
     77          1           0        7.219241    7.818154   -0.930061
     78          1           0        6.829936    7.031948    0.716163
     79          1           0        5.869267    6.830611   -0.761101
     80         12           0       -8.187491   -0.377508   -0.294401
     81          6           0       -6.193263    2.603158   -0.427697
     82          6           0       -9.220315    0.630890    2.796072
     83          6           0       -9.598272   -3.199123    0.045601
     84          6           0       -6.163740   -1.677691   -2.816229
     85          7           0       -7.699913    1.405866    0.919728
     86          6           0       -6.977514    2.501433    0.740225
     87          6           0       -7.164821    3.582456    1.838339
     88          6           0       -7.658595    2.629094    3.032554
     89          6           0       -8.264706    1.496470    2.206437
     90          6           0       -6.517533    2.059694    3.859063
     91          6           0       -8.260258    4.638936    1.456393
     92          6           0       -8.279371    5.891819    2.334841
     93          1           0       -8.610502    7.171733    1.714652
     94          7           0       -9.617457   -0.956244    0.954130
     95          6           0       -9.913071   -0.420872    2.157157
     96          6           0      -11.031146   -1.216252    2.687695
     97          6           0      -11.263183   -2.367429    1.773544
     98          6           0      -10.130392   -2.227466    0.880631
     99          6           0      -11.812106   -0.811959    3.904276
    100          6           0      -12.321439   -3.427376    1.720496
    101          8           0      -12.194826   -4.469030    0.984462
    102          6           0      -13.467087   -3.255827    2.625783
    103          7           0       -7.793879   -2.256090   -1.093350
    104          6           0       -8.593513   -3.303094   -0.824439
    105          6           0       -8.277479   -4.475549   -1.722124
    106          6           0       -7.256916   -3.914599   -2.818206
    107          6           0       -7.082747   -2.474408   -2.288198
    108          6           0       -7.664581   -5.694624   -1.033190
    109          6           0       -7.646742   -4.111567   -4.308817
    110          6           0       -8.859830   -3.272541   -4.640243
    111          7           0       -6.605313    0.371913   -1.560552
    112          6           0       -5.876525   -0.348759   -2.531934
    113          6           0       -4.829567    0.555510   -3.050226
    114          6           0       -5.008675    1.741430   -2.322207
    115          6           0       -6.077892    1.580439   -1.400052
    116          6           0       -3.851015    0.221001   -4.028306
    117          6           0       -4.529515    3.089338   -2.116655
    118          8           0       -3.700918    3.810665   -2.670597
    119          6           0       -5.193357    3.665194   -0.792231
    120          6           0       -5.714133    5.043442   -1.095083
    121          8           0       -6.645845    5.203639   -1.903088
    122          8           0       -5.177813    5.918226   -0.224739
    123          6           0       -5.672664    7.297689   -0.477776
    124          1           0       -9.430729    0.738475    3.860519
    125          1           0      -10.121089   -4.158365    0.045301
    126          1           0       -5.555457   -1.975593   -3.672926
    127          1           0       -6.257315    4.099458    2.126303
    128          1           0       -8.423184    3.113526    3.634297
    129          1           0       -5.554035    2.296511    3.432784
    130          1           0       -6.671461    0.988665    3.874585
    131          1           0       -6.602383    2.391451    4.897853
    132          1           0       -9.250742    4.228979    1.692245
    133          1           0       -8.173679    4.921813    0.425319
    134          1           0       -7.371013    5.982908    2.942727
    135          1           0       -9.083261    5.789459    3.067842
    136          1           0      -11.306464   -0.012265    4.459444
    137          1           0      -11.801917   -1.666600    4.589371
    138          1           0      -12.848486   -0.556170    3.673728
    139          1           0      -13.112216   -3.209648    3.652615
    140          1           0      -14.158261   -4.064021    2.378821
    141          1           0      -13.940032   -2.290695    2.412551
    142          1           0       -9.169885   -4.831212   -2.222335
    143          1           0       -6.271938   -4.398344   -2.743157
    144          1           0       -8.246906   -6.622431   -1.188538
    145          1           0       -7.568976   -5.477941    0.022478
    146          1           0       -6.637577   -5.917813   -1.317166
    147          1           0       -7.928895   -5.151214   -4.492286
    148          1           0       -6.846947   -3.868120   -5.000228
    149          1           0       -9.691894   -3.897309   -4.301978
    150          1           0       -8.915905   -3.086302   -5.710851
    151          1           0       -8.875949   -2.351821   -4.045543
    152          1           0       -3.790579    1.060509   -4.708056
    153          1           0       -4.109480   -0.697320   -4.551424
    154          1           0       -2.972069    0.096431   -3.390176
    155          1           0       -4.423881    3.678979   -0.019388
    156          1           0       -4.792238    7.931494   -0.622113
    157          1           0       -6.332909    7.539573    0.376220
    158          1           0       -6.214114    7.474700   -1.399697
 ---------------------------------------------------------------------

 SCF Done:  E(RCAM-B3LYP) =  -4069.81139333     A.U. after   19 cycles

 Excitation energies and oscillator strengths:

 Excited State   1:      Singlet-A      1.6705 eV  742.22 nm  f=0.1250  <S**2>=0.000
     309 -> 315       -0.10444
     310 -> 316       -0.13746
     311 -> 314       -0.41393
     312 -> 313        0.54742
 This state for optimization and/or second-order correction.
 Total Energy, E(TD-HF/TD-DFT) =  -4069.75000532
 Copying the excited state density for this state as the 1-particle RhoCI density.

 Excited State   2:      Singlet-A      1.6850 eV  735.82 nm  f=0.6423  <S**2>=0.000
     309 -> 315        0.14091
     310 -> 316       -0.10602
     311 -> 314        0.54665
     312 -> 313        0.41349

 Excited State   3:      Singlet-A      2.1858 eV  567.23 nm  f=0.0462  <S**2>=0.000
     309 -> 314        0.18016
     310 -> 313        0.61685
     312 -> 316        0.26215

 Excited State   4:      Singlet-A      2.1925 eV  565.48 nm  f=0.1461  <S**2>=0.000
     309 -> 314        0.61498
     310 -> 313       -0.17902
     311 -> 315       -0.26735

 Excited State   5:      Singlet-A      2.7844 eV  445.28 nm  f=0.0000  <S**2>=0.000
     312 -> 314        0.70705

 The electronic state is 1-A.
 Alpha  occ. eigenvalues --  -46.87711 -46.87573 -19.26236 -19.26133 -19.19049
 Alpha  occ. eigenvalues --  -19.18861 -19.18752 -19.18639 -19.18057 -19.17914
 Alpha  occ. eigenvalues --  -14.42414 -14.42365 -14.41368 -14.41272 -14.39320
 Alpha  occ. eigenvalues --  -14.39265 -14.38506 -14.38497 -10.38979 -10.38927
 Alpha  occ. eigenvalues --  -10.35387 -10.35318 -10.34276 -10.34093 -10.31649
 Alpha  occ. eigenvalues --  -10.31520 -10.31314 -10.31218 -10.30943 -10.30825
 Alpha  occ. eigenvalues --  -10.30479 -10.30421 -10.30303 -10.30263 -10.30135
 Alpha  occ. eigenvalues --  -10.30063 -10.29837 -10.29802 -10.29545 -10.29352
 Alpha  occ. eigenvalues --  -10.29306 -10.29176 -10.28659 -10.28645 -10.28595
 Alpha  occ. eigenvalues --  -10.28445 -10.28313 -10.28277 -10.28070 -10.28033
 Alpha  occ. eigenvalues --  -10.27900 -10.27705 -10.27645 -10.27586 -10.27503
 Alpha  occ. eigenvalues --  -10.27441 -10.27437 -10.27421 -10.27399 -10.27393
 Alpha  occ. eigenvalues --  -10.27385 -10.27376 -10.27313 -10.27299 -10.27043
 Alpha  occ. eigenvalues --  -10.26933 -10.26623 -10.26605 -10.26366 -10.26356
 Alpha  occ. eigenvalues --  -10.26158 -10.26127 -10.26066 -10.25966 -10.25939
 Alpha  occ. eigenvalues --  -10.25847 -10.25741 -10.25704 -10.25378 -10.25326
 Alpha  occ. eigenvalues --  -10.24769 -10.24740 -10.24707 -10.24660 -10.24634
 Alpha  occ. eigenvalues --  -10.24602  -3.16454  -3.16323  -1.91336  -1.91205
 Alpha  occ. eigenvalues --   -1.90922  -1.90794  -1.90764  -1.90631  -1.16530
 Alpha  occ. eigenvalues --   -1.16481  -1.08518  -1.08510  -1.07155  -1.06893
 Alpha  occ. eigenvalues --   -1.06831  -1.06486  -1.04495  -1.04409  -1.03679
 Alpha  occ. eigenvalues --   -1.03576  -1.03149  -1.02949  -1.02326  -1.02021
 Alpha  occ. eigenvalues --   -0.91888  -0.91876  -0.89444  -0.89409  -0.89101
 Alpha  occ. eigenvalues --   -0.89077  -0.88214  -0.88139  -0.87777  -0.87682
 Alpha  occ. eigenvalues --   -0.87599  -0.87589  -0.87202  -0.87040  -0.84922
 Alpha  occ. eigenvalues --   -0.84895  -0.83863  -0.83794  -0.82905  -0.82858
 Alpha  occ. eigenvalues --   -0.82574  -0.82562  -0.81496  -0.81474  -0.80502
 Alpha  occ. eigenvalues --   -0.80351  -0.78719  -0.78546  -0.77138  -0.77062
 Alpha  occ. eigenvalues --   -0.76841  -0.76814  -0.75827  -0.75751  -0.74821
 Alpha  occ. eigenvalues --   -0.74720  -0.72689  -0.72604  -0.71588  -0.71496
 Alpha  occ. eigenvalues --   -0.69841  -0.69681  -0.68788  -0.68747  -0.67555
 Alpha  occ. eigenvalues --   -0.67511  -0.67135  -0.67125  -0.65195  -0.65188
 Alpha  occ. eigenvalues --   -0.64760  -0.64681  -0.64565  -0.64529  -0.64192
 Alpha  occ. eigenvalues --   -0.64120  -0.62179  -0.62178  -0.60369  -0.60257
 Alpha  occ. eigenvalues --   -0.59717  -0.59715  -0.58902  -0.58900  -0.58414
 Alpha  occ. eigenvalues --   -0.58332  -0.57471  -0.57442  -0.57221  -0.57146
 Alpha  occ. eigenvalues --   -0.56223  -0.56110  -0.55857  -0.55790  -0.55439
 Alpha  occ. eigenvalues --   -0.55363  -0.55249  -0.55156  -0.54420  -0.54396
 Alpha  occ. eigenvalues --   -0.53837  -0.53806  -0.53219  -0.53139  -0.53136
 Alpha  occ. eigenvalues --   -0.53055  -0.52813  -0.52812  -0.52683  -0.52596
 Alpha  occ. eigenvalues --   -0.52368  -0.52322  -0.51815  -0.51758  -0.51580
 Alpha  occ. eigenvalues --   -0.51528  -0.51102  -0.51100  -0.50513  -0.50405
 Alpha  occ. eigenvalues --   -0.49964  -0.49904  -0.49846  -0.49787  -0.49432
 Alpha  occ. eigenvalues --   -0.49408  -0.49122  -0.49111  -0.49010  -0.49007
 Alpha  occ. eigenvalues --   -0.48493  -0.48463  -0.48390  -0.48355  -0.48288
 Alpha  occ. eigenvalues --   -0.48250  -0.47612  -0.47512  -0.47216  -0.47036
 Alpha  occ. eigenvalues --   -0.46714  -0.46624  -0.46478  -0.46466  -0.46274
 Alpha  occ. eigenvalues --   -0.46182  -0.46068  -0.45988  -0.45715  -0.45714
 Alpha  occ. eigenvalues --   -0.45128  -0.45127  -0.44476  -0.44433  -0.44423
 Alpha  occ. eigenvalues --   -0.44388  -0.44067  -0.44040  -0.44005  -0.43993
 Alpha  occ. eigenvalues --   -0.43925  -0.43847  -0.43457  -0.43385  -0.43304
 Alpha  occ. eigenvalues --   -0.43298  -0.42938  -0.42834  -0.42796  -0.42610
 Alpha  occ. eigenvalues --   -0.42536  -0.42474  -0.41928  -0.41883  -0.41612
 Alpha  occ. eigenvalues --   -0.41567  -0.41448  -0.41382  -0.41057  -0.40905
 Alpha  occ. eigenvalues --   -0.40790  -0.40756  -0.40649  -0.40625  -0.40495
 Alpha  occ. eigenvalues --   -0.40412  -0.40158  -0.40145  -0.39377  -0.39350
 Alpha  occ. eigenvalues --   -0.38396  -0.38273  -0.37657  -0.37579  -0.37244
 Alpha  occ. eigenvalues --   -0.37184  -0.37172  -0.37116  -0.36667  -0.36590
 Alpha  occ. eigenvalues --   -0.36129  -0.36087  -0.34199  -0.34162  -0.33754
 Alpha  occ. eigenvalues --   -0.33624  -0.33095  -0.33085  -0.31281  -0.31198
 Alpha  occ. eigenvalues --   -0.30949  -0.30885  -0.29914  -0.29818  -0.29368
 Alpha  occ. eigenvalues --   -0.29237  -0.29229  -0.29106  -0.23994  -0.23947
 Alpha  occ. eigenvalues --   -0.21044  -0.21028
 Alpha virt. eigenvalues --   -0.08699  -0.08690  -0.01669  -0.01599   0.00020
 Alpha virt. eigenvalues --    0.00056   0.02297   0.02319   0.03215   0.03309
 Alpha virt. eigenvalues --    0.04803   0.04808   0.05242   0.05278   0.06252

 Mulliken charges:
               1
     1  Mg   0.838878
     2  C   -0.002650
     3  C   -0.094200
     4  C   -0.046005
     5  C   -0.064066
     6  N   -0.256710
     7  C   -0.052384
     8  C   -0.014010
     9  C   -0.086976
    10  C    0.046278
    11  C    0.104871
    12  C    0.053500
    13  C   -0.071760
    14  H    0.036446
    15  N   -0.433047
    16  C    0.168303
    17  C   -0.177346
    18  C   -0.004199
    19  C    0.148630
    20  C    0.110257
    21  C    0.012107
    22  O   -0.249902
    23  C    0.062567
    24  N   -0.341132
    25  C    0.041151
    26  C   -0.028080
    27  C   -0.024009
    28  C    0.074940
    29  C    0.076230
    30  C    0.035173
    31  C   -0.004470
    32  N   -0.310612
    33  C    0.080665
    34  C   -0.169381
    35  C    0.008624
    36  C    0.083303
    37  C    0.127176
    38  C    0.046640
    39  O   -0.187789
    40  C   -0.005531
    41  C    0.212848
    42  O   -0.255984
    43  O   -0.305143
    44  C    0.157395
    45  H   -0.017849
    46  H   -0.017111
    47  H   -0.041488
    48  H    0.000961
    49  H   -0.004236
    50  H    0.025475
    51  H    0.016337
    52  H    0.016428
    53  H    0.011022
    54  H    0.044810
    55  H    0.017712
    56  H    0.017531
    57  H    0.005736
    58  H    0.026584
    59  H    0.039171
    60  H    0.037266
    61  H    0.035347
    62  H    0.031307
    63  H    0.016309
    64  H    0.009409
    65  H    0.022983
    66  H    0.012526
    67  H    0.004661
    68  H    0.006102
    69  H    0.004828
    70  H    0.008472
    71  H    0.017946
    72  H    0.029341
    73  H    0.048257
    74  H    0.009032
    75  H    0.045889
    76  H    0.034963
    77  H    0.042891
    78  H    0.045980
    79  H    0.054813
    80  Mg   0.837678
    81  C   -0.016792
    82  C   -0.087895
    83  C   -0.045602
    84  C   -0.064888
    85  N   -0.254491
    86  C   -0.049837
    87  C   -0.015014
    88  C   -0.090509
    89  C    0.045625
    90  C    0.114423
    91  C    0.062570
    92  C   -0.077732
    93  H    0.034835
    94  N   -0.423437
    95  C    0.162757
    96  C   -0.174883
    97  C   -0.007990
    98  C    0.151985
    99  C    0.099470
   100  C    0.015421
   101  O   -0.253396
   102  C    0.061262
   103  N   -0.350066
   104  C    0.037403
   105  C   -0.019771
   106  C   -0.034843
   107  C    0.089032
   108  C    0.073713
   109  C    0.034748
   110  C   -0.007649
   111  N   -0.324229
   112  C    0.078561
   113  C   -0.162965
   114  C    0.002725
   115  C    0.096129
   116  C    0.131595
   117  C    0.042870
   118  O   -0.186147
   119  C    0.000750
   120  C    0.211439
   121  O   -0.251164
   122  O   -0.305529
   123  C    0.152022
   124  H   -0.020036
   125  H   -0.015777
   126  H   -0.040285
   127  H   -0.000605
   128  H   -0.004577
   129  H    0.022575
   130  H    0.014336
   131  H    0.015779
   132  H    0.013832
   133  H    0.037814
   134  H    0.020626
   135  H    0.019356
   136  H    0.008517
   137  H    0.025817
   138  H    0.039555
   139  H    0.038090
   140  H    0.036179
   141  H    0.033820
   142  H    0.014250
   143  H    0.012478
   144  H    0.024937
   145  H    0.011568
   146  H    0.005677
   147  H    0.006098
   148  H    0.003725
   149  H    0.010818
   150  H    0.017895
   151  H    0.030183
   152  H    0.046574
   153  H    0.008193
   154  H    0.048043
   155  H    0.035503
   156  H    0.044221
   157  H    0.049041
   158  H    0.053596
 Sum of Mulliken charges =  -0.00000

 Dipole moment (field-independent basis, Debye):
    X=              0.6875    Y=             -0.8430    Z=              8.2175  Tot=              8.2892
 Quadrupole moment (field-independent basis, Debye-Ang):
   XX=           -475.7424   YY=           -520.6891   ZZ=           -474.5564
   XY=            -19.7805   XZ=             -4.4667   YZ=             59.7818

 Normal termination of Gaussian 16 at Sun Sep 12 04:20:56 2021.
