 Gaussian 16, Revision A.03,
 Gaussian 16:  ES64L-G16RevA.03 25-Dec-2016

 -----------------------------------
 #p cam-b3lyp/Def2SVP td=(nstates=5)
 -----------------------------------

 --------------------------------
 TDDFT excited states in gaussian
 --------------------------------
 Symbolic Z-matrix:
 Charge =  0 Multiplicity = 1

                         Standard orientation:
 ---------------------------------------------------------------------
 Center     Atomic      Atomic             Coordinates (Angstroms)
 Number     Number       Type             X           Y           Z
 ---------------------------------------------------------------------
      1         12           0        5.512267    0.368707    0.856677
      2          6           0        5.894849   -2.637717   -1.047860
      3          6           0        6.780332    2.053099   -1.826214
      4          6           0        5.609917    2.967157    2.671929
      5          6           0        5.361538   -1.631110    3.706882
      6          7           0        6.210792   -0.316320   -1.129135
      7          6           0        6.249000   -1.487595   -1.756691
      8          6           0        6.628865   -1.369316   -3.263040
      9          6           0        7.413644    0.017754   -3.216584
     10          6           0        6.738103    0.638634   -2.006594
     11          6           0        8.902789   -0.134270   -2.923606
     12          6           0        5.369052   -1.284035   -4.188961
     13          6           0        5.639691   -1.494612   -5.681531
     14          1           0        4.642783   -2.188330   -6.482953
     15          7           0        5.640071    2.275976    0.357837
     16          6           0        6.171445    2.781280   -0.781284
     17          6           0        6.030662    4.249834   -0.680238
     18          6           0        5.547144    4.567225    0.692193
     19          6           0        5.605480    3.268039    1.311945
     20          6           0        6.294885    5.182277   -1.822379
     21          6           0        5.112963    5.841338    1.345076
     22          8           0        4.952062    5.937074    2.609797
     23          6           0        4.964532    7.013684    0.463819
     24          7           0        5.709531    0.656555    2.914799
     25          6           0        5.662905    1.882447    3.447714
     26          6           0        5.540428    1.824131    4.941547
     27          6           0        5.267236    0.293026    5.303259
     28          6           0        5.367337   -0.307357    3.879254
     29          6           0        6.756002    2.326399    5.732823
     30          6           0        4.004949   -0.015812    6.146865
     31          6           0        2.761968    0.281659    5.338405
     32          7           0        5.430018   -1.759616    1.274432
     33          6           0        5.394708   -2.370407    2.536320
     34          6           0        5.455336   -3.826644    2.313239
     35          6           0        5.538963   -3.962141    0.928865
     36          6           0        5.557536   -2.671559    0.326914
     37          6           0        5.488438   -4.824374    3.327080
     38          6           0        5.641782   -4.896386   -0.180401
     39          8           0        5.578525   -6.121654   -0.290902
     40          6           0        5.999056   -4.074170   -1.496510
     41          6           0        5.073735   -4.538833   -2.587921
     42          8           0        3.848231   -4.311061   -2.527714
     43          8           0        5.798455   -4.963367   -3.634389
     44          6           0        4.940629   -5.410911   -4.763988
     45          1           0        7.381547    2.654763   -2.510672
     46          1           0        5.532141    3.834563    3.330713
     47          1           0        5.233851   -2.319979    4.543906
     48          1           0        7.287171   -2.157436   -3.628996
     49          1           0        7.227642    0.620522   -4.105288
     50          1           0        9.155329   -1.162974   -2.666872
     51          1           0        9.102859    0.528389   -2.081378
     52          1           0        9.501302    0.245202   -3.752195
     53          1           0        5.006854   -0.256192   -4.209287
     54          1           0        4.600193   -1.983880   -3.859720
     55          1           0        6.629347   -1.919761   -5.851056
     56          1           0        5.678627   -0.517331   -6.162787
     57          1           0        6.794289    4.674543   -2.646604
     58          1           0        7.022638    5.914715   -1.473640
     59          1           0        5.390084    5.692061   -2.153719
     60          1           0        5.916557    7.218189   -0.026462
     61          1           0        4.561995    7.810348    1.088431
     62          1           0        4.256855    6.771628   -0.329623
     63          1           0        4.703312    2.428143    5.289155
     64          1           0        6.084449   -0.143595    5.877888
     65          1           0        6.522322    3.131020    6.430450
     66          1           0        7.518082    2.637027    5.018655
     67          1           0        7.285695    1.557095    6.294083
     68          1           0        3.973574    0.621806    7.029704
     69          1           0        3.955189   -1.051335    6.483714
     70          1           0        2.629855    1.353647    5.480601
     71          1           0        1.909759   -0.272498    5.733196
     72          1           0        2.929045    0.112226    4.274514
     73          1           0        4.808110   -5.611666    3.002588
     74          1           0        5.191063   -4.417203    4.293197
     75          1           0        6.540885   -5.106174    3.298781
     76          1           0        7.042538   -4.287761   -1.725959
     77          1           0        5.230753   -6.434482   -5.001402
     78          1           0        5.044532   -4.660740   -5.548113
     79          1           0        3.881253   -5.543606   -4.541604
     80         12           0       -4.986061    0.612109   -0.493748
     81          6           0       -7.668303   -1.613137    0.362356
     82          6           0       -7.361259    2.894296   -1.379573
     83          6           0       -2.663801    2.422203   -1.676170
     84          6           0       -2.901280   -2.177192   -0.632091
     85          7           0       -7.196357    0.533951   -0.466096
     86          6           0       -8.105071   -0.341010   -0.062335
     87          6           0       -9.558205    0.204434   -0.040862
     88          6           0       -9.391075    1.376711   -1.125624
     89          6           0       -7.897343    1.649954   -0.962043
     90          6           0       -9.638943    0.916168   -2.552437
     91          6           0       -9.961760    0.775054    1.363965
     92          6           0      -11.458073    1.039799    1.544874
     93          1           0      -12.052376    0.806600    2.858231
     94          7           0       -4.963423    2.547353   -0.932949
     95          6           0       -6.022353    3.323118   -1.246201
     96          6           0       -5.476059    4.664367   -1.504608
     97          6           0       -3.990553    4.578678   -1.479316
     98          6           0       -3.810917    3.144103   -1.380297
     99          6           0       -6.343223    5.879181   -1.664910
    100          6           0       -2.910264    5.615274   -1.547518
    101          8           0       -1.684733    5.298376   -1.748720
    102          6           0       -3.341806    7.018292   -1.465151
    103          7           0       -3.112381    0.167834   -1.277499
    104          6           0       -2.278461    1.145948   -1.672194
    105          6           0       -0.893362    0.607039   -1.939505
    106          6           0       -0.909022   -0.901010   -1.407408
    107          6           0       -2.391635   -1.005845   -0.987577
    108          6           0       -0.442351    0.626506   -3.399848
    109          6           0        0.181526   -1.293851   -0.373447
    110          6           0       -0.055303   -0.563865    0.929016
    111          7           0       -5.164030   -1.487848   -0.017800
    112          6           0       -4.176454   -2.484839   -0.175299
    113          6           0       -4.802263   -3.776602    0.174182
    114          6           0       -6.127387   -3.441796    0.491107
    115          6           0       -6.319654   -2.043056    0.329678
    116          6           0       -4.166570   -5.049234    0.125027
    117          6           0       -7.410095   -3.955069    0.915257
    118          8           0       -7.827191   -5.051048    1.287560
    119          6           0       -8.498559   -2.811877    0.728847
    120          6           0       -9.316169   -2.739005    1.989294
    121          8           0       -8.795241   -2.382662    3.060858
    122          8           0      -10.616897   -2.890337    1.680137
    123          6           0      -11.469232   -2.814447    2.896524
    124          1           0       -8.017591    3.594579   -1.896987
    125          1           0       -1.799153    3.015557   -1.982419
    126          1           0       -2.291630   -3.080054   -0.555652
    127          1           0      -10.312892   -0.500475   -0.368464
    128          1           0       -9.971404    2.253964   -0.851752
    129          1           0       -9.771335   -0.153842   -2.613170
    130          1           0       -8.767228    1.222129   -3.115944
    131          1           0      -10.483202    1.461907   -2.983411
    132          1           0       -9.577057    1.798667    1.458628
    133          1           0       -9.610282    0.135609    2.150222
    134          1           0      -12.058806    0.562674    0.761026
    135          1           0      -11.640292    2.108603    1.408980
    136          1           0       -7.397002    5.606121   -1.800531
    137          1           0       -6.060774    6.350907   -2.612299
    138          1           0       -6.209776    6.601563   -0.856820
    139          1           0       -4.038974    7.229672   -2.272445
    140          1           0       -2.422081    7.606005   -1.441350
    141          1           0       -3.892377    7.160564   -0.528534
    142          1           0       -0.147655    1.166501   -1.388131
    143          1           0       -0.761914   -1.622839   -2.224206
    144          1           0        0.498232    1.186974   -3.558735
    145          1           0       -1.240469    1.045710   -3.998019
    146          1           0       -0.303860   -0.353399   -3.853519
    147          1           0        1.168027   -0.984721   -0.727567
    148          1           0        0.228601   -2.360207   -0.179384
    149          1           0        0.409877    0.410815    0.753759
    150          1           0        0.423730   -1.087196    1.754063
    151          1           0       -1.125243   -0.393281    1.095670
    152          1           0       -4.453979   -5.575804    1.025375
    153          1           0       -3.085676   -4.951055    0.048826
    154          1           0       -4.607683   -5.452360   -0.790493
    155          1           0       -9.105474   -3.075628   -0.138135
    156          1           0      -12.062643   -3.733422    2.928675
    157          1           0      -12.022627   -1.860107    2.814466
    158          1           0      -10.972899   -2.849399    3.859271
 ---------------------------------------------------------------------

 SCF Done:  E(RCAM-B3LYP) =  -4069.81274897     A.U. after   19 cycles

 Excitation energies and oscillator strengths:

 Excited State   1:      Singlet-A      1.6536 eV  749.78 nm  f=0.0052  <S**2>=0.000
     309 -> 315       -0.11150
     310 -> 316        0.12619
     311 -> 313       -0.45289
     312 -> 314        0.51693
 This state for optimization and/or second-order correction.
 Total Energy, E(TD-HF/TD-DFT) =  -4069.75197978
 Copying the excited state density for this state as the 1-particle RhoCI density.

 Excited State   2:      Singlet-A      1.6971 eV  730.57 nm  f=0.7091  <S**2>=0.000
     309 -> 315        0.13572
     310 -> 316        0.11773
     311 -> 313        0.51505
     312 -> 314        0.45119

 Excited State   3:      Singlet-A      2.1837 eV  567.78 nm  f=0.1034  <S**2>=0.000
     310 -> 314        0.63967
     312 -> 316       -0.26993

 Excited State   4:      Singlet-A      2.1966 eV  564.44 nm  f=0.0975  <S**2>=0.000
     309 -> 313        0.63693
     311 -> 315       -0.27860

 Excited State   5:      Singlet-A      2.4875 eV  498.43 nm  f=0.0000  <S**2>=0.000
     312 -> 313        0.70650

 The electronic state is 1-A.
 Alpha  occ. eigenvalues --  -46.87849 -46.87451 -19.26423 -19.26213 -19.19191
 Alpha  occ. eigenvalues --  -19.19015 -19.18726 -19.18590 -19.18218 -19.17872
 Alpha  occ. eigenvalues --  -14.42492 -14.42297 -14.41472 -14.41126 -14.39426
 Alpha  occ. eigenvalues --  -14.39153 -14.38639 -14.38388 -10.39235 -10.38941
 Alpha  occ. eigenvalues --  -10.35353 -10.35272 -10.34445 -10.34049 -10.31811
 Alpha  occ. eigenvalues --  -10.31637 -10.31461 -10.31104 -10.30940 -10.30851
 Alpha  occ. eigenvalues --  -10.30611 -10.30529 -10.30193 -10.30182 -10.30144
 Alpha  occ. eigenvalues --  -10.29945 -10.29883 -10.29647 -10.29639 -10.29254
 Alpha  occ. eigenvalues --  -10.29232 -10.29196 -10.28818 -10.28638 -10.28567
 Alpha  occ. eigenvalues --  -10.28540 -10.28398 -10.28220 -10.28169 -10.27982
 Alpha  occ. eigenvalues --  -10.27806 -10.27800 -10.27752 -10.27576 -10.27471
 Alpha  occ. eigenvalues --  -10.27470 -10.27446 -10.27426 -10.27398 -10.27325
 Alpha  occ. eigenvalues --  -10.27286 -10.27274 -10.27234 -10.27091 -10.27075
 Alpha  occ. eigenvalues --  -10.26880 -10.26826 -10.26558 -10.26336 -10.26271
 Alpha  occ. eigenvalues --  -10.26220 -10.26128 -10.26031 -10.25883 -10.25858
 Alpha  occ. eigenvalues --  -10.25656 -10.25551 -10.25547 -10.25408 -10.25146
 Alpha  occ. eigenvalues --  -10.24861 -10.24802 -10.24674 -10.24619 -10.24480
 Alpha  occ. eigenvalues --  -10.24363  -3.16589  -3.16201  -1.91471  -1.91084
 Alpha  occ. eigenvalues --   -1.91056  -1.90898  -1.90672  -1.90509  -1.16775
 Alpha  occ. eigenvalues --   -1.16505  -1.08687  -1.08481  -1.07122  -1.06847
 Alpha  occ. eigenvalues --   -1.06803  -1.06800  -1.04621  -1.04300  -1.03782
 Alpha  occ. eigenvalues --   -1.03452  -1.03259  -1.02813  -1.02439  -1.01896
 Alpha  occ. eigenvalues --   -0.92018  -0.91790  -0.89516  -0.89247  -0.89200
 Alpha  occ. eigenvalues --   -0.88978  -0.88279  -0.87909  -0.87894  -0.87704
 Alpha  occ. eigenvalues --   -0.87563  -0.87473  -0.87226  -0.86956  -0.85025
 Alpha  occ. eigenvalues --   -0.84825  -0.83926  -0.83573  -0.82894  -0.82760
 Alpha  occ. eigenvalues --   -0.82655  -0.82471  -0.81650  -0.81410  -0.80624
 Alpha  occ. eigenvalues --   -0.80257  -0.78779  -0.78443  -0.77231  -0.76981
 Alpha  occ. eigenvalues --   -0.76944  -0.76684  -0.75968  -0.75658  -0.74900
 Alpha  occ. eigenvalues --   -0.74556  -0.72791  -0.72473  -0.71698  -0.71374
 Alpha  occ. eigenvalues --   -0.69879  -0.69387  -0.68902  -0.68645  -0.67659
 Alpha  occ. eigenvalues --   -0.67403  -0.67247  -0.67049  -0.65342  -0.65095
 Alpha  occ. eigenvalues --   -0.64895  -0.64652  -0.64550  -0.64449  -0.64269
 Alpha  occ. eigenvalues --   -0.63895  -0.62373  -0.62078  -0.60413  -0.60144
 Alpha  occ. eigenvalues --   -0.59851  -0.59618  -0.59015  -0.58772  -0.58531
 Alpha  occ. eigenvalues --   -0.58209  -0.57662  -0.57373  -0.57313  -0.56999
 Alpha  occ. eigenvalues --   -0.56326  -0.56060  -0.55995  -0.55717  -0.55502
 Alpha  occ. eigenvalues --   -0.55364  -0.55290  -0.54995  -0.54567  -0.54230
 Alpha  occ. eigenvalues --   -0.53954  -0.53748  -0.53304  -0.53220  -0.53033
 Alpha  occ. eigenvalues --   -0.52969  -0.52951  -0.52713  -0.52706  -0.52531
 Alpha  occ. eigenvalues --   -0.52406  -0.52007  -0.51942  -0.51642  -0.51630
 Alpha  occ. eigenvalues --   -0.51503  -0.51228  -0.50977  -0.50475  -0.50324
 Alpha  occ. eigenvalues --   -0.50007  -0.49892  -0.49810  -0.49598  -0.49518
 Alpha  occ. eigenvalues --   -0.49329  -0.49232  -0.49133  -0.49031  -0.48916
 Alpha  occ. eigenvalues --   -0.48644  -0.48472  -0.48398  -0.48382  -0.48197
 Alpha  occ. eigenvalues --   -0.48126  -0.47698  -0.47396  -0.47292  -0.46925
 Alpha  occ. eigenvalues --   -0.46816  -0.46605  -0.46476  -0.46378  -0.46370
 Alpha  occ. eigenvalues --   -0.46191  -0.46041  -0.45877  -0.45849  -0.45612
 Alpha  occ. eigenvalues --   -0.45194  -0.44972  -0.44622  -0.44491  -0.44350
 Alpha  occ. eigenvalues --   -0.44259  -0.44149  -0.44111  -0.44009  -0.43958
 Alpha  occ. eigenvalues --   -0.43826  -0.43780  -0.43549  -0.43414  -0.43352
 Alpha  occ. eigenvalues --   -0.43190  -0.43050  -0.42798  -0.42760  -0.42689
 Alpha  occ. eigenvalues --   -0.42643  -0.42279  -0.42024  -0.41735  -0.41696
 Alpha  occ. eigenvalues --   -0.41571  -0.41465  -0.41248  -0.41167  -0.40899
 Alpha  occ. eigenvalues --   -0.40795  -0.40766  -0.40588  -0.40568  -0.40491
 Alpha  occ. eigenvalues --   -0.40293  -0.40161  -0.40089  -0.39407  -0.39065
 Alpha  occ. eigenvalues --   -0.38473  -0.38068  -0.37815  -0.37488  -0.37326
 Alpha  occ. eigenvalues --   -0.37316  -0.37030  -0.36973  -0.36819  -0.36591
 Alpha  occ. eigenvalues --   -0.36243  -0.35966  -0.34323  -0.34039  -0.33918
 Alpha  occ. eigenvalues --   -0.33704  -0.33220  -0.32962  -0.31268  -0.31149
 Alpha  occ. eigenvalues --   -0.31055  -0.30768  -0.30085  -0.29775  -0.29451
 Alpha  occ. eigenvalues --   -0.29346  -0.29143  -0.29008  -0.24117  -0.23824
 Alpha  occ. eigenvalues --   -0.21148  -0.20904
 Alpha virt. eigenvalues --   -0.08785  -0.08592  -0.01765  -0.01476  -0.00037
 Alpha virt. eigenvalues --    0.00131   0.02150   0.02304   0.02560   0.03459
 Alpha virt. eigenvalues --    0.04666   0.04921   0.04956   0.05319   0.06066

 Mulliken charges:
               1
     1  Mg   0.832407
     2  C   -0.003327
     3  C   -0.093694
     4  C   -0.044991
     5  C   -0.063602
     6  N   -0.256793
     7  C   -0.054503
     8  C   -0.013343
     9  C   -0.087048
    10  C    0.046009
    11  C    0.104720
    12  C    0.053104
    13  C   -0.071851
    14  H    0.035493
    15  N   -0.433737
    16  C    0.168602
    17  C   -0.175928
    18  C   -0.002620
    19  C    0.149121
    20  C    0.109770
    21  C    0.014290
    22  O   -0.249297
    23  C    0.061182
    24  N   -0.340748
    25  C    0.041506
    26  C   -0.028368
    27  C   -0.023962
    28  C    0.074430
    29  C    0.076108
    30  C    0.034991
    31  C   -0.005320
    32  N   -0.310452
    33  C    0.079167
    34  C   -0.170708
    35  C    0.008051
    36  C    0.080741
    37  C    0.127527
    38  C    0.045036
    39  O   -0.188767
    40  C   -0.005241
    41  C    0.213431
    42  O   -0.260086
    43  O   -0.304168
    44  C    0.157721
    45  H   -0.017222
    46  H   -0.016192
    47  H   -0.041379
    48  H    0.001012
    49  H   -0.003707
    50  H    0.025561
    51  H    0.016764
    52  H    0.016946
    53  H    0.010979
    54  H    0.042025
    55  H    0.018427
    56  H    0.018674
    57  H    0.005582
    58  H    0.026856
    59  H    0.042590
    60  H    0.036395
    61  H    0.035962
    62  H    0.035849
    63  H    0.017294
    64  H    0.009517
    65  H    0.023562
    66  H    0.012476
    67  H    0.004882
    68  H    0.006787
    69  H    0.004782
    70  H    0.009649
    71  H    0.019084
    72  H    0.028535
    73  H    0.046961
    74  H    0.009472
    75  H    0.046191
    76  H    0.035565
    77  H    0.043593
    78  H    0.046687
    79  H    0.052652
    80  Mg   0.837414
    81  C   -0.017318
    82  C   -0.088314
    83  C   -0.045490
    84  C   -0.064943
    85  N   -0.254614
    86  C   -0.049846
    87  C   -0.015075
    88  C   -0.090431
    89  C    0.045603
    90  C    0.114546
    91  C    0.062604
    92  C   -0.077642
    93  H    0.034451
    94  N   -0.423285
    95  C    0.162625
    96  C   -0.175230
    97  C   -0.008486
    98  C    0.152073
    99  C    0.099583
   100  C    0.015457
   101  O   -0.254976
   102  C    0.061487
   103  N   -0.350075
   104  C    0.037496
   105  C   -0.020141
   106  C   -0.037601
   107  C    0.087914
   108  C    0.074446
   109  C    0.034418
   110  C   -0.011855
   111  N   -0.324215
   112  C    0.078680
   113  C   -0.162436
   114  C    0.002039
   115  C    0.096442
   116  C    0.130904
   117  C    0.042466
   118  O   -0.187999
   119  C    0.000943
   120  C    0.211174
   121  O   -0.251148
   122  O   -0.305661
   123  C    0.152155
   124  H   -0.020455
   125  H   -0.016810
   126  H   -0.035969
   127  H   -0.000927
   128  H   -0.004771
   129  H    0.022288
   130  H    0.014317
   131  H    0.015697
   132  H    0.013890
   133  H    0.037620
   134  H    0.020623
   135  H    0.019369
   136  H    0.008429
   137  H    0.025180
   138  H    0.039232
   139  H    0.037833
   140  H    0.034788
   141  H    0.034324
   142  H    0.012753
   143  H    0.017970
   144  H    0.022365
   145  H    0.009858
   146  H    0.008153
   147  H    0.011845
   148  H    0.013356
   149  H    0.007770
   150  H    0.021447
   151  H    0.028159
   152  H    0.045769
   153  H    0.012079
   154  H    0.046921
   155  H    0.034694
   156  H    0.043686
   157  H    0.049292
   158  H    0.053422
 Sum of Mulliken charges =  -0.00000

 Dipole moment (field-independent basis, Debye):
    X=              0.8807    Y=              6.5912    Z=             -4.3975  Tot=              7.9724
 Quadrupole moment (field-independent basis, Debye-Ang):
   XX=           -445.3647   YY=           -542.8417   ZZ=           -482.1597
   XY=            -29.0103   XZ=             -1.2778   YZ=             -7.6924

 Normal termination of Gaussian 16 at Fri Sep 10 09:28:40 2021.
