 Gaussian 16, Revision A.03,
 Gaussian 16:  ES64L-G16RevA.03 25-Dec-2016

 -----------------------------------
 #p cam-b3lyp/Def2SVP td=(nstates=5)
 -----------------------------------

 --------------------------------
 TDDFT excited states in gaussian
 --------------------------------
 Symbolic Z-matrix:
 Charge =  0 Multiplicity = 1

                         Standard orientation:
 ---------------------------------------------------------------------
 Center     Atomic      Atomic             Coordinates (Angstroms)
 Number     Number       Type             X           Y           Z
 ---------------------------------------------------------------------
      1         12           0        5.443109    0.101960   -0.037902
      2          6           0        5.213935   -3.452444   -0.392732
      3          6           0        6.207777    0.235024   -3.360648
      4          6           0        6.095002    3.181535    0.346644
      5          6           0        5.783164   -0.410487    3.392465
      6          7           0        5.652133   -1.476647   -1.575743
      7          6           0        5.479506   -2.794589   -1.595788
      8          6           0        5.532525   -3.402899   -3.029148
      9          6           0        6.395587   -2.272896   -3.750408
     10          6           0        6.037660   -1.091949   -2.865435
     11          6           0        7.900099   -2.509981   -3.668347
     12          6           0        4.110809   -3.535484   -3.671703
     13          6           0        4.039422   -4.412770   -4.924950
     14          1           0        2.851102   -5.222987   -5.145842
     15          7           0        5.581608    1.557804   -1.366129
     16          6           0        5.886059    1.429166   -2.679920
     17          6           0        5.864192    2.797860   -3.239277
     18          6           0        5.709056    3.750519   -2.105052
     19          6           0        5.816727    2.858101   -0.979274
     20          6           0        5.934880    3.088094   -4.707104
     21          6           0        5.507849    5.231752   -2.045066
     22          8           0        5.629746    5.891192   -0.956556
     23          6           0        5.247949    5.911851   -3.326845
     24          7           0        6.097245    1.221498    1.598061
     25          6           0        6.244750    2.548065    1.511779
     26          6           0        6.443657    3.164470    2.864709
     27          6           0        6.157893    2.005212    3.924998
     28          6           0        5.910279    0.838130    2.937640
     29          6           0        7.830668    3.766696    3.128406
     30          6           0        5.090049    2.292397    5.010195
     31          6           0        3.723566    2.396551    4.370684
     32          7           0        5.317445   -1.592294    1.312934
     33          6           0        5.516108   -1.580357    2.701121
     34          6           0        5.434354   -2.978808    3.161251
     35          6           0        5.208839   -3.713624    1.998911
     36          6           0        5.179399   -2.832957    0.880050
     37          6           0        5.621574   -3.428565    4.498076
     38          6           0        5.010444   -5.040571    1.438814
     39          8           0        4.846949   -6.166052    1.912159
     40          6           0        5.127288   -4.938098   -0.146012
     41          6           0        3.960812   -5.682143   -0.736809
     42          8           0        2.794142   -5.264975   -0.587750
     43          8           0        4.414408   -6.625375   -1.576514
     44          6           0        3.306561   -7.381232   -2.219561
     45          1           0        6.684413    0.378734   -4.332300
     46          1           0        6.216450    4.249519    0.539255
     47          1           0        5.795271   -0.638252    4.459906
     48          1           0        6.044919   -4.362738   -3.096863
     49          1           0        6.061193   -2.095640   -4.772407
     50          1           0        8.135992   -3.350109   -3.015308
     51          1           0        8.318782   -1.586767   -3.267256
     52          1           0        8.328886   -2.625653   -4.664108
     53          1           0        3.818963   -2.576466   -4.099689
     54          1           0        3.388006   -3.894862   -2.938403
     55          1           0        4.940143   -5.016235   -5.040875
     56          1           0        4.035882   -3.760782   -5.798505
     57          1           0        6.211526    2.202359   -5.277619
     58          1           0        6.765830    3.777402   -4.855716
     59          1           0        5.014281    3.535885   -5.081688
     60          1           0        6.082974    5.733479   -4.004684
     61          1           0        5.041073    6.952269   -3.078687
     62          1           0        4.371948    5.461290   -3.794357
     63          1           0        5.741346    3.980532    3.029715
     64          1           0        7.050240    1.741582    4.493232
     65          1           0        7.804572    4.819882    3.409159
     66          1           0        8.439113    3.614456    2.237391
     67          1           0        8.418779    3.246376    3.883926
     68          1           0        5.290366    3.246716    5.496091
     69          1           0        5.048208    1.527634    5.785848
     70          1           0        3.693757    3.429913    4.027018
     71          1           0        2.942951    2.207782    5.108395
     72          1           0        3.646278    1.758054    3.490438
     73          1           0        4.838568   -4.163317    4.685187
     74          1           0        5.565966   -2.601531    5.205553
     75          1           0        6.623049   -3.853130    4.429900
     76          1           0        6.081018   -5.388184   -0.419768
     77          1           0        3.472900   -8.437372   -2.007115
     78          1           0        3.286584   -7.072413   -3.264854
     79          1           0        2.313765   -7.239032   -1.791222
     80         12           0       -5.069020    1.342840    0.379071
     81          6           0       -6.677536   -1.864367    0.304560
     82          6           0       -5.718577    1.579697   -2.961072
     83          6           0       -3.270158    3.955788    0.315567
     84          6           0       -3.569856    0.366653    3.369932
     85          7           0       -6.075374   -0.029740   -1.033563
     86          6           0       -6.701205   -1.192965   -0.935637
     87          6           0       -7.459783   -1.625255   -2.219080
     88          6           0       -6.615793   -0.780915   -3.293151
     89          6           0       -6.130652    0.349916   -2.388416
     90          6           0       -5.400443   -1.524131   -3.822197
     91          6           0       -8.966229   -1.186771   -2.199317
     92          6           0       -9.840141   -1.839539   -3.272593
     93          1           0      -11.225280   -2.161940   -2.941058
     94          7           0       -4.977780    2.807026   -0.957495
     95          6           0       -5.301076    2.735821   -2.265812
     96          6           0       -5.039551    4.073946   -2.818254
     97          6           0       -4.379988    4.894868   -1.766701
     98          6           0       -4.160094    3.889346   -0.746579
     99          6           0       -5.480230    4.487318   -4.192426
    100          6           0       -3.997413    6.342257   -1.696613
    101          8           0       -3.219250    6.789496   -0.781578
    102          6           0       -4.485115    7.202684   -2.784404
    103          7           0       -3.467088    1.980368    1.540843
    104          6           0       -2.899134    3.181711    1.335601
    105          6           0       -1.956079    3.538450    2.459780
    106          6           0       -2.193182    2.429702    3.587627
    107          6           0       -3.212718    1.533410    2.851017
    108          6           0       -0.472506    3.583377    2.094578
    109          6           0       -2.549573    2.938861    5.011156
    110          6           0       -3.916135    3.585222    5.000994
    111          7           0       -5.236480   -0.337386    1.726975
    112          6           0       -4.496591   -0.559697    2.909022
    113          6           0       -4.881744   -1.891314    3.419780
    114          6           0       -5.809264   -2.364822    2.479566
    115          6           0       -5.974316   -1.405213    1.444476
    116          6           0       -4.351955   -2.522219    4.580555
    117          6           0       -6.678281   -3.462760    2.121754
    118          8           0       -7.020451   -4.512379    2.664838
    119          6           0       -7.184279   -3.241718    0.631278
    120          6           0       -8.671605   -3.464905    0.607780
    121          8           0       -9.435404   -2.699229    1.221754
    122          8           0       -8.961159   -4.408742   -0.306393
    123          6           0      -10.425855   -4.657418   -0.374541
    124          1           0       -5.669392    1.655356   -4.047694
    125          1           0       -2.705485    4.887178    0.400019
    126          1           0       -3.220475    0.031708    4.348920
    127          1           0       -7.400210   -2.682623   -2.447564
    128          1           0       -7.255893   -0.391367   -4.080478
    129          1           0       -5.237957   -2.454680   -3.298930
    130          1           0       -4.561140   -0.856706   -3.676692
    131          1           0       -5.487420   -1.667785   -4.903000
    132          1           0       -9.037709   -0.136987   -2.511701
    133          1           0       -9.398487   -1.352066   -1.231608
    134          1           0       -9.346133   -2.700673   -3.738800
    135          1           0       -9.971116   -1.129351   -4.092655
    136          1           0       -5.792048    3.623085   -4.791832
    137          1           0       -4.594688    4.871623   -4.710107
    138          1           0       -6.244432    5.267244   -4.172878
    139          1           0       -4.122393    6.821982   -3.736234
    140          1           0       -4.184906    8.216405   -2.512132
    141          1           0       -5.578576    7.140085   -2.816523
    142          1           0       -2.193477    4.512644    2.869268
    143          1           0       -1.295206    1.815790    3.750644
    144          1           0        0.001983    4.558192    2.315209
    145          1           0       -0.371801    3.340306    1.045135
    146          1           0        0.143056    2.820681    2.568477
    147          1           0       -1.843190    3.711331    5.324942
    148          1           0       -2.530914    2.159669    5.765822
    149          1           0       -3.706422    4.600253    4.650541
    150          1           0       -4.343408    3.593554    6.001695
    151          1           0       -4.570863    3.109828    4.261408
    152          1           0       -5.189729   -2.960310    5.106592
    153          1           0       -3.814180   -1.814064    5.207531
    154          1           0       -3.682057   -3.251665    4.117514
    155          1           0       -6.653600   -3.952267   -0.003611
    156          1           0      -10.576233   -5.728373   -0.206796
    157          1           0      -10.753107   -4.249411   -1.349316
    158          1           0      -11.043375   -4.232039    0.407866
 ---------------------------------------------------------------------

 SCF Done:  E(RCAM-B3LYP) =  -4069.81157165     A.U. after   19 cycles

 Excitation energies and oscillator strengths:

 Excited State   1:      Singlet-A      1.6567 eV  748.37 nm  f=0.0034  <S**2>=0.000
     309 -> 315       -0.11209
     310 -> 316        0.12661
     311 -> 313       -0.45400
     312 -> 314        0.51582
 This state for optimization and/or second-order correction.
 Total Energy, E(TD-HF/TD-DFT) =  -4069.75068815
 Copying the excited state density for this state as the 1-particle RhoCI density.

 Excited State   2:      Singlet-A      1.6972 eV  730.51 nm  f=0.7157  <S**2>=0.000
     309 -> 315        0.13523
     310 -> 316        0.11827
     311 -> 313        0.51392
     312 -> 314        0.45234

 Excited State   3:      Singlet-A      2.1832 eV  567.91 nm  f=0.0435  <S**2>=0.000
     309 -> 313       -0.24345
     310 -> 314        0.59614
     311 -> 315        0.10133
     312 -> 316       -0.25055

 Excited State   4:      Singlet-A      2.1950 eV  564.84 nm  f=0.1427  <S**2>=0.000
     309 -> 313        0.59265
     310 -> 314        0.24030
     311 -> 315       -0.25958
     312 -> 316       -0.10708

 Excited State   5:      Singlet-A      2.4907 eV  497.79 nm  f=0.0000  <S**2>=0.000
     312 -> 313        0.70694

 The electronic state is 1-A.
 Alpha  occ. eigenvalues --  -46.87850 -46.87489 -19.26305 -19.26208 -19.19043
 Alpha  occ. eigenvalues --  -19.19015 -19.18815 -19.18577 -19.18197 -19.17866
 Alpha  occ. eigenvalues --  -14.42501 -14.42330 -14.41509 -14.41186 -14.39449
 Alpha  occ. eigenvalues --  -14.39186 -14.38639 -14.38421 -10.39104 -10.38940
 Alpha  occ. eigenvalues --  -10.35447 -10.35258 -10.34419 -10.34043 -10.31694
 Alpha  occ. eigenvalues --  -10.31633 -10.31460 -10.31137 -10.30953 -10.30872
 Alpha  occ. eigenvalues --  -10.30623 -10.30555 -10.30266 -10.30219 -10.30184
 Alpha  occ. eigenvalues --  -10.29981 -10.29978 -10.29708 -10.29674 -10.29299
 Alpha  occ. eigenvalues --  -10.29272 -10.29230 -10.28800 -10.28607 -10.28580
 Alpha  occ. eigenvalues --  -10.28556 -10.28407 -10.28238 -10.28169 -10.27999
 Alpha  occ. eigenvalues --  -10.27833 -10.27826 -10.27779 -10.27623 -10.27595
 Alpha  occ. eigenvalues --  -10.27525 -10.27520 -10.27509 -10.27450 -10.27367
 Alpha  occ. eigenvalues --  -10.27349 -10.27315 -10.27305 -10.27193 -10.27190
 Alpha  occ. eigenvalues --  -10.26873 -10.26765 -10.26574 -10.26383 -10.26339
 Alpha  occ. eigenvalues --  -10.26324 -10.26281 -10.26083 -10.26009 -10.25889
 Alpha  occ. eigenvalues --  -10.25881 -10.25759 -10.25600 -10.25491 -10.25181
 Alpha  occ. eigenvalues --  -10.24919 -10.24873 -10.24837 -10.24690 -10.24608
 Alpha  occ. eigenvalues --  -10.24516  -3.16593  -3.16239  -1.91475  -1.91121
 Alpha  occ. eigenvalues --   -1.91061  -1.90903  -1.90710  -1.90546  -1.16654
 Alpha  occ. eigenvalues --   -1.16501  -1.08654  -1.08472  -1.07212  -1.06831
 Alpha  occ. eigenvalues --   -1.06798  -1.06665  -1.04631  -1.04330  -1.03815
 Alpha  occ. eigenvalues --   -1.03494  -1.03284  -1.02865  -1.02463  -1.01937
 Alpha  occ. eigenvalues --   -0.92016  -0.91814  -0.89605  -0.89331  -0.89242
 Alpha  occ. eigenvalues --   -0.89007  -0.88366  -0.88052  -0.87916  -0.87727
 Alpha  occ. eigenvalues --   -0.87596  -0.87520  -0.87303  -0.86982  -0.85033
 Alpha  occ. eigenvalues --   -0.84853  -0.84031  -0.83711  -0.82998  -0.82802
 Alpha  occ. eigenvalues --   -0.82691  -0.82511  -0.81626  -0.81439  -0.80637
 Alpha  occ. eigenvalues --   -0.80286  -0.78836  -0.78478  -0.77285  -0.76993
 Alpha  occ. eigenvalues --   -0.76991  -0.76746  -0.75970  -0.75686  -0.74965
 Alpha  occ. eigenvalues --   -0.74627  -0.72828  -0.72524  -0.71723  -0.71411
 Alpha  occ. eigenvalues --   -0.70026  -0.69604  -0.68922  -0.68681  -0.67683
 Alpha  occ. eigenvalues --   -0.67438  -0.67263  -0.67068  -0.65340  -0.65122
 Alpha  occ. eigenvalues --   -0.64906  -0.64678  -0.64607  -0.64500  -0.64346
 Alpha  occ. eigenvalues --   -0.64041  -0.62338  -0.62124  -0.60483  -0.60188
 Alpha  occ. eigenvalues --   -0.59854  -0.59642  -0.59040  -0.58824  -0.58553
 Alpha  occ. eigenvalues --   -0.58260  -0.57621  -0.57383  -0.57361  -0.57074
 Alpha  occ. eigenvalues --   -0.56352  -0.56040  -0.56013  -0.55742  -0.55553
 Alpha  occ. eigenvalues --   -0.55409  -0.55305  -0.55080  -0.54586  -0.54330
 Alpha  occ. eigenvalues --   -0.53946  -0.53771  -0.53346  -0.53256  -0.53071
 Alpha  occ. eigenvalues --   -0.52993  -0.52966  -0.52787  -0.52753  -0.52559
 Alpha  occ. eigenvalues --   -0.52546  -0.52259  -0.51960  -0.51662  -0.51656
 Alpha  occ. eigenvalues --   -0.51521  -0.51253  -0.51036  -0.50597  -0.50356
 Alpha  occ. eigenvalues --   -0.50119  -0.49950  -0.49837  -0.49704  -0.49549
 Alpha  occ. eigenvalues --   -0.49346  -0.49252  -0.49142  -0.49048  -0.48942
 Alpha  occ. eigenvalues --   -0.48637  -0.48517  -0.48463  -0.48397  -0.48198
 Alpha  occ. eigenvalues --   -0.48194  -0.47745  -0.47450  -0.47340  -0.46965
 Alpha  occ. eigenvalues --   -0.46865  -0.46604  -0.46548  -0.46416  -0.46412
 Alpha  occ. eigenvalues --   -0.46216  -0.46107  -0.45903  -0.45865  -0.45644
 Alpha  occ. eigenvalues --   -0.45273  -0.45033  -0.44623  -0.44558  -0.44362
 Alpha  occ. eigenvalues --   -0.44317  -0.44218  -0.44135  -0.44050  -0.43976
 Alpha  occ. eigenvalues --   -0.43926  -0.43790  -0.43538  -0.43442  -0.43399
 Alpha  occ. eigenvalues --   -0.43226  -0.43081  -0.42785  -0.42775  -0.42730
 Alpha  occ. eigenvalues --   -0.42708  -0.42398  -0.42095  -0.41815  -0.41752
 Alpha  occ. eigenvalues --   -0.41590  -0.41500  -0.41315  -0.41191  -0.40942
 Alpha  occ. eigenvalues --   -0.40839  -0.40825  -0.40648  -0.40591  -0.40560
 Alpha  occ. eigenvalues --   -0.40332  -0.40285  -0.40103  -0.39574  -0.39275
 Alpha  occ. eigenvalues --   -0.38548  -0.38183  -0.37806  -0.37519  -0.37392
 Alpha  occ. eigenvalues --   -0.37314  -0.37103  -0.37046  -0.36755  -0.36621
 Alpha  occ. eigenvalues --   -0.36246  -0.36056  -0.34338  -0.34082  -0.33798
 Alpha  occ. eigenvalues --   -0.33711  -0.33236  -0.33005  -0.31348  -0.31134
 Alpha  occ. eigenvalues --   -0.31082  -0.30806  -0.30058  -0.29770  -0.29485
 Alpha  occ. eigenvalues --   -0.29364  -0.29167  -0.29025  -0.24132  -0.23862
 Alpha  occ. eigenvalues --   -0.21179  -0.20947
 Alpha virt. eigenvalues --   -0.08818  -0.08622  -0.01799  -0.01518  -0.00084
 Alpha virt. eigenvalues --    0.00122   0.02160   0.02390   0.02965   0.03387
 Alpha virt. eigenvalues --    0.04661   0.04888   0.05072   0.05317   0.06115

 Mulliken charges:
               1
     1  Mg   0.838278
     2  C   -0.002815
     3  C   -0.094195
     4  C   -0.045785
     5  C   -0.064375
     6  N   -0.256720
     7  C   -0.052572
     8  C   -0.013983
     9  C   -0.087001
    10  C    0.046348
    11  C    0.104791
    12  C    0.053552
    13  C   -0.071638
    14  H    0.035781
    15  N   -0.433280
    16  C    0.168575
    17  C   -0.177072
    18  C   -0.003610
    19  C    0.148862
    20  C    0.110241
    21  C    0.013167
    22  O   -0.249035
    23  C    0.062244
    24  N   -0.341004
    25  C    0.041021
    26  C   -0.028367
    27  C   -0.024079
    28  C    0.074350
    29  C    0.076069
    30  C    0.036217
    31  C   -0.007288
    32  N   -0.310421
    33  C    0.079963
    34  C   -0.170052
    35  C    0.008503
    36  C    0.082788
    37  C    0.127342
    38  C    0.046190
    39  O   -0.188013
    40  C   -0.005395
    41  C    0.212983
    42  O   -0.257028
    43  O   -0.304833
    44  C    0.157535
    45  H   -0.017562
    46  H   -0.016522
    47  H   -0.041789
    48  H    0.001083
    49  H   -0.004206
    50  H    0.025618
    51  H    0.016520
    52  H    0.016679
    53  H    0.010902
    54  H    0.044216
    55  H    0.018093
    56  H    0.017629
    57  H    0.005632
    58  H    0.027004
    59  H    0.039578
    60  H    0.036879
    61  H    0.036644
    62  H    0.031872
    63  H    0.016540
    64  H    0.009808
    65  H    0.023522
    66  H    0.012817
    67  H    0.004840
    68  H    0.006709
    69  H    0.004660
    70  H    0.009792
    71  H    0.016294
    72  H    0.029504
    73  H    0.047660
    74  H    0.008684
    75  H    0.046238
    76  H    0.035259
    77  H    0.043285
    78  H    0.046082
    79  H    0.054036
    80  Mg   0.838257
    81  C   -0.016714
    82  C   -0.088176
    83  C   -0.045822
    84  C   -0.063461
    85  N   -0.254513
    86  C   -0.049379
    87  C   -0.015120
    88  C   -0.090613
    89  C    0.045901
    90  C    0.114495
    91  C    0.062621
    92  C   -0.077619
    93  H    0.034512
    94  N   -0.423335
    95  C    0.162796
    96  C   -0.175458
    97  C   -0.008167
    98  C    0.151862
    99  C    0.099777
   100  C    0.015030
   101  O   -0.253033
   102  C    0.061364
   103  N   -0.349846
   104  C    0.037448
   105  C   -0.020208
   106  C   -0.034874
   107  C    0.089073
   108  C    0.072801
   109  C    0.034605
   110  C   -0.007504
   111  N   -0.324416
   112  C    0.078831
   113  C   -0.161896
   114  C    0.002794
   115  C    0.096455
   116  C    0.131213
   117  C    0.043085
   118  O   -0.187469
   119  C    0.000653
   120  C    0.211117
   121  O   -0.251308
   122  O   -0.305507
   123  C    0.152148
   124  H   -0.020638
   125  H   -0.015406
   126  H   -0.040135
   127  H   -0.000614
   128  H   -0.004973
   129  H    0.023360
   130  H    0.014543
   131  H    0.015151
   132  H    0.013746
   133  H    0.037665
   134  H    0.020659
   135  H    0.019223
   136  H    0.008240
   137  H    0.024872
   138  H    0.039316
   139  H    0.037400
   140  H    0.036115
   141  H    0.033744
   142  H    0.014060
   143  H    0.013110
   144  H    0.026259
   145  H    0.011389
   146  H    0.006785
   147  H    0.005581
   148  H    0.003341
   149  H    0.010852
   150  H    0.017478
   151  H    0.030250
   152  H    0.045502
   153  H    0.008038
   154  H    0.050204
   155  H    0.035856
   156  H    0.043823
   157  H    0.049174
   158  H    0.053389
 Sum of Mulliken charges =  -0.00000

 Dipole moment (field-independent basis, Debye):
    X=              2.9731    Y=              2.6424    Z=             -7.8877  Tot=              8.8339
 Quadrupole moment (field-independent basis, Debye-Ang):
   XX=           -497.9832   YY=           -559.4609   ZZ=           -446.8300
   XY=             -9.9752   XZ=             27.5172   YZ=             24.5315

 Normal termination of Gaussian 16 at Fri Sep 10 21:43:20 2021.
