 Gaussian 16, Revision A.03,
 Gaussian 16:  ES64L-G16RevA.03 25-Dec-2016

 -----------------------------------
 #p cam-b3lyp/Def2SVP td=(nstates=5)
 -----------------------------------

 --------------------------------
 TDDFT excited states in gaussian
 --------------------------------
 Symbolic Z-matrix:
 Charge =  0 Multiplicity = 1

                         Standard orientation:
 ---------------------------------------------------------------------
 Center     Atomic      Atomic             Coordinates (Angstroms)
 Number     Number       Type             X           Y           Z
 ---------------------------------------------------------------------
      1         12           0       15.633509   -0.904891    0.194060
      2          6           0       15.885772    2.526266   -0.793735
      3          6           0       16.482059    0.094369    3.344378
      4          6           0       15.861576   -3.966991    0.986620
      5          6           0       15.925893   -1.743205   -3.176015
      6          7           0       16.098533    1.085829    1.043431
      7          6           0       16.101588    2.328750    0.571935
      8          6           0       16.280952    3.409369    1.679846
      9          6           0       17.010884    2.519747    2.783373
     10          6           0       16.471971    1.155397    2.390885
     11          6           0       18.530025    2.505515    2.647320
     12          6           0       14.910784    3.959063    2.201582
     13          6           0       14.996407    5.237449    3.040482
     14          1           0       13.932890    6.223759    2.924416
     15          7           0       15.622501   -1.773269    1.968503
     16          6           0       15.983951   -1.211723    3.147191
     17          6           0       15.800430   -2.261707    4.172146
     18          6           0       15.484342   -3.535144    3.467489
     19          6           0       15.671710   -3.143516    2.093845
     20          6           0       15.880182   -1.997315    5.644385
     21          6           0       15.088113   -4.892778    3.955304
     22          8           0       15.086577   -5.916854    3.189902
     23          6           0       14.782952   -5.011166    5.392629
     24          7           0       16.080882   -2.625417   -0.900144
     25          6           0       16.055273   -3.833720   -0.327140
     26          6           0       16.127069   -4.925985   -1.352684
     27          6           0       15.961887   -4.211921   -2.771339
     28          6           0       15.902368   -2.741262   -2.289788
     29          6           0       17.413416   -5.763429   -1.349564
     30          6           0       14.830691   -4.732541   -3.693168
     31          6           0       13.483994   -4.409158   -3.085774
     32          7           0       15.687868    0.172740   -1.689235
     33          6           0       15.837816   -0.376446   -2.970869
     34          6           0       15.925826    0.751393   -3.916544
     35          6           0       15.837029    1.885928   -3.112310
     36          6           0       15.728490    1.492054   -1.747988
     37          6           0       16.126869    0.647373   -5.321249
     38          6           0       15.833367    3.339594   -3.085867
     39          8           0       15.804038    4.222443   -3.944477
     40          6           0       15.987375    3.813616   -1.573448
     41          6           0       14.948866    4.872425   -1.320998
     42          8           0       13.733206    4.590460   -1.326898
     43          8           0       15.549805    5.988576   -0.880975
     44          6           0       14.572643    7.069628   -0.583262
     45          1           0       16.967097    0.256188    4.309000
     46          1           0       15.835076   -5.036694    1.204496
     47          1           0       15.933019   -1.928647   -4.251660
     48          1           0       16.917134    4.248434    1.397593
     49          1           0       16.689610    2.778196    3.792188
     50          1           0       18.852980    3.006016    1.734566
     51          1           0       18.810260    1.452238    2.623506
     52          1           0       19.002575    2.921246    3.537625
     53          1           0       14.509400    3.273788    2.948140
     54          1           0       14.218012    4.116527    1.374177
     55          1           0       15.972008    5.714298    2.941858
     56          1           0       14.935615    4.960063    4.092889
     57          1           0       16.289452   -1.009479    5.852291
     58          1           0       16.617601   -2.688247    6.052472
     59          1           0       14.921384   -2.147548    6.140839
     60          1           0       15.655865   -4.709473    5.971900
     61          1           0       14.432974   -6.031881    5.542652
     62          1           0       13.989591   -4.306771    5.644335
     63          1           0       15.318467   -5.643133   -1.217449
     64          1           0       16.862140   -4.298655   -3.380187
     65          1           0       17.239804   -6.832182   -1.221768
     66          1           0       18.065359   -5.376790   -0.566767
     67          1           0       18.039907   -5.642187   -2.232867
     68          1           0       14.887716   -5.816350   -3.788310
     69          1           0       14.864558   -4.309243   -4.697122
     70          1           0       13.329693   -5.229089   -2.385248
     71          1           0       12.711349   -4.402495   -3.855311
     72          1           0       13.520172   -3.487081   -2.505299
     73          1           0       15.441675    1.359482   -5.781009
     74          1           0       15.939850   -0.366623   -5.674007
     75          1           0       17.177192    0.928527   -5.396278
     76          1           0       17.000463    4.200412   -1.467792
     77          1           0       14.869493    7.940526   -1.167771
     78          1           0       14.546330    7.173407    0.501608
     79          1           0       13.556321    6.914338   -0.947010
     80         12           0      -16.120350   -0.546981   -0.186286
     81          6           0      -14.127243    2.434634   -0.314925
     82          6           0      -17.249664    0.518081    2.850978
     83          6           0      -17.536918   -3.364453    0.163901
     84          6           0      -14.017746   -1.890924   -2.619098
     85          7           0      -15.673090    1.260203    1.007994
     86          6           0      -14.947074    2.353615    0.829957
     87          6           0      -15.169784    3.455004    1.900893
     88          6           0      -15.698861    2.523588    3.097306
     89          6           0      -16.277520    1.374194    2.274679
     90          6           0      -14.583087    1.972369    3.969397
     91          6           0      -16.254405    4.501776    1.465166
     92          6           0      -16.302463    5.771150    2.318475
     93          1           0      -16.616095    7.038332    1.663996
     94          7           0      -17.587393   -1.104697    1.028349
     95          6           0      -17.920833   -0.547083    2.211208
     96          6           0      -19.053619   -1.334453    2.722072
     97          6           0      -19.255637   -2.503321    1.823390
     98          6           0      -18.095994   -2.378128    0.963361
     99          6           0      -19.872391   -0.908617    3.906017
    100          6           0      -20.310227   -3.566229    1.757970
    101          8           0      -20.159427   -4.621475    1.046254
    102          6           0      -21.483561   -3.379771    2.623998
    103          7           0      -15.699545   -2.439665   -0.936626
    104          6           0      -16.505605   -3.482953   -0.672556
    105          6           0      -16.160278   -4.671682   -1.537468
    106          6           0      -15.107140   -4.129673   -2.612035
    107          6           0      -14.951493   -2.679284   -2.104546
    108          6           0      -15.567231   -5.876146   -0.806749
    109          6           0      -15.450408   -4.355817   -4.109934
    110          6           0      -16.653875   -3.525728   -4.494645
    111          7           0      -14.500870    0.181358   -1.417073
    112          6           0      -13.741368   -0.556224   -2.351526
    113          6           0      -12.680189    0.340108   -2.854445
    114          6           0      -12.883422    1.539335   -2.155125
    115          6           0      -13.980400    1.393782   -1.263512
    116          6           0      -11.671385   -0.011019   -3.795267
    117          6           0      -12.412777    2.891882   -1.960690
    118          8           0      -11.568495    3.604191   -2.502477
    119          6           0      -13.118064    3.491546   -0.668656
    120          6           0      -13.631207    4.862713   -1.013744
    121          8           0      -14.537724    5.005579   -1.853048
    122          8           0      -13.123314    5.755026   -0.144151
    123          6           0      -13.612078    7.128399   -0.438681
    124          1           0      -17.493033    0.645525    3.906156
    125          1           0      -18.058092   -4.324585    0.165797
    126          1           0      -13.382856   -2.203876   -3.450749
    127          1           0      -14.272357    3.979238    2.206803
    128          1           0      -16.482382    3.017864    3.665781
    129          1           0      -13.607208    2.202969    3.568621
    130          1           0      -14.735883    0.901520    4.000633
    131          1           0      -14.700482    2.323703    4.998529
    132          1           0      -17.251123    4.094393    1.678122
    133          1           0      -16.136401    4.765125    0.432040
    134          1           0      -15.413459    5.875662    2.952274
    135          1           0      -17.128483    5.681157    3.028141
    136          1           0      -19.385307   -0.097451    4.461133
    137          1           0      -19.882159   -1.750019    4.607315
    138          1           0      -20.901520   -0.659376    3.638715
    139          1           0      -21.160664   -3.313295    3.660233
    140          1           0      -22.165611   -4.193921    2.371315
    141          1           0      -21.951064   -2.419841    2.377839
    142          1           0      -17.036289   -5.038626   -2.058098
    143          1           0      -14.124243   -4.609900   -2.497374
    144          1           0      -16.143141   -6.807930   -0.962226
    145          1           0      -15.504611   -5.639177    0.247041
    146          1           0      -14.531619   -6.102627   -1.054550
    147          1           0      -15.725275   -5.399350   -4.282112
    148          1           0      -14.629976   -4.123982   -4.780854
    149          1           0      -17.495099   -4.145621   -4.170349
    150          1           0      -16.677103   -3.360059   -5.569846
    151          1           0      -16.689702   -2.593871   -3.918445
    152          1           0      -11.591175    0.815497   -4.488765
    153          1           0      -11.912253   -0.939665   -4.308463
    154          1           0      -10.812411   -0.121617   -3.128030
    155          1           0      -12.372866    3.521623    0.127175
    156          1           0      -12.728517    7.761112   -0.567857
    157          1           0      -14.298748    7.385191    0.389742
    158          1           0      -14.125023    7.286701   -1.380102
 ---------------------------------------------------------------------

 SCF Done:  E(RCAM-B3LYP) =  -4069.81175452     A.U. after   19 cycles

 Excitation energies and oscillator strengths:

 Excited State   1:      Singlet-A      1.6754 eV  740.02 nm  f=0.2918  <S**2>=0.000
     310 -> 316        0.17021
     311 -> 313        0.67281
     312 -> 314        0.13414
     310 <- 316        0.10260
 This state for optimization and/or second-order correction.
 Total Energy, E(TD-HF/TD-DFT) =  -4069.75018378
 Copying the excited state density for this state as the 1-particle RhoCI density.

 Excited State   2:      Singlet-A      1.6800 eV  738.00 nm  f=0.4878  <S**2>=0.000
     309 -> 315        0.17218
     311 -> 313       -0.13410
     312 -> 314        0.67245
     309 <- 315        0.10310

 Excited State   3:      Singlet-A      2.1861 eV  567.15 nm  f=0.0945  <S**2>=0.000
     310 -> 313        0.64202
     311 -> 316       -0.27296

 Excited State   4:      Singlet-A      2.1925 eV  565.50 nm  f=0.1055  <S**2>=0.000
     309 -> 314        0.64026
     312 -> 315       -0.27809

 Excited State   5:      Singlet-A      3.0544 eV  405.92 nm  f=0.0000  <S**2>=0.000
     312 -> 313        0.70709

 The electronic state is 1-A.
 Alpha  occ. eigenvalues --  -46.87758 -46.87659 -19.26344 -19.26240 -19.19156
 Alpha  occ. eigenvalues --  -19.18976 -19.18779 -19.18714 -19.18129 -19.18046
 Alpha  occ. eigenvalues --  -14.42497 -14.42412 -14.41412 -14.41358 -14.39365
 Alpha  occ. eigenvalues --  -14.39351 -14.38598 -14.38548 -10.39085 -10.39036
 Alpha  occ. eigenvalues --  -10.35413 -10.35392 -10.34349 -10.34224 -10.31750
 Alpha  occ. eigenvalues --  -10.31634 -10.31367 -10.31307 -10.31023 -10.30871
 Alpha  occ. eigenvalues --  -10.30531 -10.30469 -10.30396 -10.30358 -10.30170
 Alpha  occ. eigenvalues --  -10.30140 -10.29893 -10.29883 -10.29593 -10.29436
 Alpha  occ. eigenvalues --  -10.29399 -10.29217 -10.28718 -10.28710 -10.28653
 Alpha  occ. eigenvalues --  -10.28498 -10.28403 -10.28327 -10.28140 -10.28079
 Alpha  occ. eigenvalues --  -10.27999 -10.27755 -10.27689 -10.27668 -10.27547
 Alpha  occ. eigenvalues --  -10.27517 -10.27482 -10.27468 -10.27464 -10.27464
 Alpha  occ. eigenvalues --  -10.27446 -10.27413 -10.27375 -10.27365 -10.27118
 Alpha  occ. eigenvalues --  -10.27046 -10.26692 -10.26664 -10.26416 -10.26377
 Alpha  occ. eigenvalues --  -10.26199 -10.26146 -10.26135 -10.26026 -10.25981
 Alpha  occ. eigenvalues --  -10.25933 -10.25844 -10.25804 -10.25401 -10.25398
 Alpha  occ. eigenvalues --  -10.24870 -10.24794 -10.24750 -10.24729 -10.24689
 Alpha  occ. eigenvalues --  -10.24647  -3.16501  -3.16409  -1.91383  -1.91291
 Alpha  occ. eigenvalues --   -1.90969  -1.90880  -1.90811  -1.90717  -1.16638
 Alpha  occ. eigenvalues --   -1.16589  -1.08653  -1.08587  -1.07181  -1.06967
 Alpha  occ. eigenvalues --   -1.06940  -1.06598  -1.04543  -1.04494  -1.03723
 Alpha  occ. eigenvalues --   -1.03662  -1.03196  -1.03037  -1.02373  -1.02110
 Alpha  occ. eigenvalues --   -0.91985  -0.91933  -0.89493  -0.89482  -0.89151
 Alpha  occ. eigenvalues --   -0.89150  -0.88249  -0.88219  -0.87831  -0.87790
 Alpha  occ. eigenvalues --   -0.87683  -0.87635  -0.87237  -0.87120  -0.84999
 Alpha  occ. eigenvalues --   -0.84944  -0.83899  -0.83875  -0.82931  -0.82931
 Alpha  occ. eigenvalues --   -0.82652  -0.82610  -0.81593  -0.81545  -0.80557
 Alpha  occ. eigenvalues --   -0.80440  -0.78760  -0.78634  -0.77180  -0.77143
 Alpha  occ. eigenvalues --   -0.76897  -0.76895  -0.75884  -0.75837  -0.74861
 Alpha  occ. eigenvalues --   -0.74802  -0.72736  -0.72697  -0.71634  -0.71580
 Alpha  occ. eigenvalues --   -0.69869  -0.69756  -0.68835  -0.68826  -0.67603
 Alpha  occ. eigenvalues --   -0.67600  -0.67199  -0.67181  -0.65270  -0.65247
 Alpha  occ. eigenvalues --   -0.64815  -0.64768  -0.64652  -0.64582  -0.64231
 Alpha  occ. eigenvalues --   -0.64202  -0.62275  -0.62256  -0.60405  -0.60339
 Alpha  occ. eigenvalues --   -0.59796  -0.59766  -0.58991  -0.58949  -0.58465
 Alpha  occ. eigenvalues --   -0.58424  -0.57551  -0.57544  -0.57270  -0.57235
 Alpha  occ. eigenvalues --   -0.56272  -0.56202  -0.55937  -0.55883  -0.55483
 Alpha  occ. eigenvalues --   -0.55450  -0.55300  -0.55245  -0.54485  -0.54483
 Alpha  occ. eigenvalues --   -0.53912  -0.53856  -0.53261  -0.53226  -0.53184
 Alpha  occ. eigenvalues --   -0.53140  -0.52900  -0.52875  -0.52719  -0.52668
 Alpha  occ. eigenvalues --   -0.52400  -0.52399  -0.51880  -0.51875  -0.51658
 Alpha  occ. eigenvalues --   -0.51578  -0.51198  -0.51157  -0.50537  -0.50475
 Alpha  occ. eigenvalues --   -0.49994  -0.49979  -0.49882  -0.49866  -0.49487
 Alpha  occ. eigenvalues --   -0.49477  -0.49200  -0.49176  -0.49102  -0.49058
 Alpha  occ. eigenvalues --   -0.48556  -0.48554  -0.48425  -0.48407  -0.48374
 Alpha  occ. eigenvalues --   -0.48338  -0.47657  -0.47593  -0.47259  -0.47117
 Alpha  occ. eigenvalues --   -0.46759  -0.46708  -0.46553  -0.46517  -0.46321
 Alpha  occ. eigenvalues --   -0.46269  -0.46124  -0.46083  -0.45818  -0.45782
 Alpha  occ. eigenvalues --   -0.45208  -0.45164  -0.44538  -0.44511  -0.44475
 Alpha  occ. eigenvalues --   -0.44470  -0.44126  -0.44106  -0.44076  -0.44050
 Alpha  occ. eigenvalues --   -0.43981  -0.43937  -0.43550  -0.43454  -0.43384
 Alpha  occ. eigenvalues --   -0.43348  -0.42989  -0.42927  -0.42898  -0.42658
 Alpha  occ. eigenvalues --   -0.42615  -0.42552  -0.41971  -0.41963  -0.41667
 Alpha  occ. eigenvalues --   -0.41665  -0.41495  -0.41458  -0.41103  -0.40989
 Alpha  occ. eigenvalues --   -0.40831  -0.40787  -0.40722  -0.40698  -0.40533
 Alpha  occ. eigenvalues --   -0.40492  -0.40226  -0.40195  -0.39424  -0.39403
 Alpha  occ. eigenvalues --   -0.38431  -0.38350  -0.37709  -0.37653  -0.37283
 Alpha  occ. eigenvalues --   -0.37265  -0.37224  -0.37198  -0.36767  -0.36671
 Alpha  occ. eigenvalues --   -0.36215  -0.36153  -0.34252  -0.34248  -0.33857
 Alpha  occ. eigenvalues --   -0.33727  -0.33174  -0.33148  -0.31309  -0.31273
 Alpha  occ. eigenvalues --   -0.30997  -0.30972  -0.29989  -0.29950  -0.29411
 Alpha  occ. eigenvalues --   -0.29326  -0.29283  -0.29209  -0.24042  -0.24035
 Alpha  occ. eigenvalues --   -0.21116  -0.21090
 Alpha virt. eigenvalues --   -0.08790  -0.08736  -0.01712  -0.01683  -0.00028
 Alpha virt. eigenvalues --   -0.00021   0.02210   0.02239   0.03162   0.03228
 Alpha virt. eigenvalues --    0.04731   0.04756   0.05141   0.05170   0.06184

 Mulliken charges:
               1
     1  Mg   0.838717
     2  C   -0.002937
     3  C   -0.094113
     4  C   -0.045864
     5  C   -0.063962
     6  N   -0.256745
     7  C   -0.052474
     8  C   -0.014010
     9  C   -0.087004
    10  C    0.046306
    11  C    0.104826
    12  C    0.053471
    13  C   -0.071821
    14  H    0.036214
    15  N   -0.433109
    16  C    0.168424
    17  C   -0.177168
    18  C   -0.004020
    19  C    0.148703
    20  C    0.110191
    21  C    0.012278
    22  O   -0.249658
    23  C    0.062479
    24  N   -0.341134
    25  C    0.041224
    26  C   -0.028140
    27  C   -0.023996
    28  C    0.074873
    29  C    0.076180
    30  C    0.035127
    31  C   -0.004508
    32  N   -0.310475
    33  C    0.080440
    34  C   -0.169685
    35  C    0.008367
    36  C    0.083025
    37  C    0.127301
    38  C    0.046155
    39  O   -0.188386
    40  C   -0.005358
    41  C    0.212893
    42  O   -0.257024
    43  O   -0.304833
    44  C    0.157662
    45  H   -0.017647
    46  H   -0.016874
    47  H   -0.041486
    48  H    0.000926
    49  H   -0.004042
    50  H    0.025463
    51  H    0.016422
    52  H    0.016616
    53  H    0.011219
    54  H    0.044184
    55  H    0.017830
    56  H    0.017924
    57  H    0.005855
    58  H    0.026766
    59  H    0.039544
    60  H    0.037309
    61  H    0.035606
    62  H    0.031524
    63  H    0.016548
    64  H    0.009432
    65  H    0.023174
    66  H    0.012519
    67  H    0.004725
    68  H    0.006329
    69  H    0.004745
    70  H    0.008761
    71  H    0.018204
    72  H    0.029019
    73  H    0.047639
    74  H    0.009121
    75  H    0.045977
    76  H    0.035119
    77  H    0.042949
    78  H    0.046382
    79  H    0.053781
    80  Mg   0.837844
    81  C   -0.016837
    82  C   -0.087787
    83  C   -0.045512
    84  C   -0.064874
    85  N   -0.254555
    86  C   -0.049840
    87  C   -0.015089
    88  C   -0.090505
    89  C    0.045720
    90  C    0.114384
    91  C    0.062528
    92  C   -0.077901
    93  H    0.034934
    94  N   -0.423504
    95  C    0.162922
    96  C   -0.174657
    97  C   -0.007814
    98  C    0.152106
    99  C    0.099371
   100  C    0.015563
   101  O   -0.253189
   102  C    0.061203
   103  N   -0.350063
   104  C    0.037507
   105  C   -0.019832
   106  C   -0.034840
   107  C    0.088943
   108  C    0.073659
   109  C    0.034732
   110  C   -0.007687
   111  N   -0.324092
   112  C    0.078457
   113  C   -0.163094
   114  C    0.002259
   115  C    0.096187
   116  C    0.131489
   117  C    0.042426
   118  O   -0.187739
   119  C    0.000929
   120  C    0.211260
   121  O   -0.251012
   122  O   -0.305623
   123  C    0.152007
   124  H   -0.019692
   125  H   -0.015582
   126  H   -0.040402
   127  H   -0.000633
   128  H   -0.004333
   129  H    0.022472
   130  H    0.014411
   131  H    0.016249
   132  H    0.013913
   133  H    0.037702
   134  H    0.020779
   135  H    0.019574
   136  H    0.008746
   137  H    0.026117
   138  H    0.039792
   139  H    0.038235
   140  H    0.036391
   141  H    0.033901
   142  H    0.014402
   143  H    0.012447
   144  H    0.025134
   145  H    0.011617
   146  H    0.005688
   147  H    0.006269
   148  H    0.003699
   149  H    0.010921
   150  H    0.017968
   151  H    0.030099
   152  H    0.046087
   153  H    0.008542
   154  H    0.047016
   155  H    0.035048
   156  H    0.043971
   157  H    0.049461
   158  H    0.053606
 Sum of Mulliken charges =  -0.00000

 Dipole moment (field-independent basis, Debye):
    X=              0.5629    Y=             -0.8060    Z=              8.3433  Tot=              8.4011
 Quadrupole moment (field-independent basis, Debye-Ang):
   XX=           -415.8619   YY=           -518.1957   ZZ=           -476.8576
   XY=            -19.3643   XZ=             -6.0832   YZ=             60.0896

 Normal termination of Gaussian 16 at Sun Sep 12 18:10:18 2021.
