 Gaussian 16, Revision A.03,
 Gaussian 16:  ES64L-G16RevA.03 25-Dec-2016

 -----------------------------------
 #p cam-b3lyp/Def2SVP td=(nstates=5)
 -----------------------------------

 --------------------------------
 TDDFT excited states in gaussian
 --------------------------------
 Symbolic Z-matrix:
 Charge =  0 Multiplicity = 1

                         Standard orientation:
 ---------------------------------------------------------------------
 Center     Atomic      Atomic             Coordinates (Angstroms)
 Number     Number       Type             X           Y           Z
 ---------------------------------------------------------------------
      1         12           0        5.486328   -0.425058    0.352795
      2          6           0        5.622439    2.677470   -1.427094
      3          6           0        6.146200    1.346665    3.193328
      4          6           0        5.821078   -3.189890    1.869459
      5          6           0        5.967324   -2.029734   -2.703235
      6          7           0        5.819896    1.734090    0.709808
      7          6           0        5.786126    2.825757   -0.048014
      8          6           0        5.865452    4.148908    0.770736
      9          6           0        6.586075    3.592268    2.079496
     10          6           0        6.129262    2.145670    2.011662
     11          6           0        8.108786    3.630764    1.999665
     12          6           0        4.449299    4.730234    1.099828
     13          6           0        4.437867    6.175276    1.606854
     14          1           0        3.335840    7.043886    1.221627
     15          7           0        5.436658   -0.841569    2.283313
     16          6           0        5.718690    0.005669    3.302103
     17          6           0        5.538723   -0.776312    4.544198
     18          6           0        5.313954   -2.197235    4.158776
     19          6           0        5.543937   -2.136765    2.737921
     20          6           0        5.540385   -0.162392    5.910525
     21          6           0        4.959978   -3.418146    4.947579
     22          8           0        5.040213   -4.594382    4.453002
     23          6           0        4.596895   -3.205106    6.360316
     24          7           0        6.061601   -2.330069   -0.277783
     25          6           0        6.066728   -3.365092    0.569380
     26          6           0        6.234910   -4.665729   -0.158629
     27          6           0        6.100079   -4.323266   -1.712429
     28          6           0        5.950788   -2.785726   -1.603112
     29          6           0        7.557412   -5.404700    0.088193
     30          6           0        5.036547   -5.112248   -2.516684
     31          6           0        3.650527   -4.728396   -2.049024
     32          7           0        5.574373    0.170564   -1.732517
     33          6           0        5.806690   -0.660801   -2.837748
     34          6           0        5.884189    0.210316   -4.024852
     35          6           0        5.706938    1.497872   -3.522233
     36          6           0        5.556141    1.437395   -2.107350
     37          6           0        6.152265   -0.216273   -5.355488
     38          6           0        5.634464    2.912879   -3.848365
     39          8           0        5.602387    3.560884   -4.895530
     40          6           0        5.698683    3.743759   -2.491405
     41          6           0        4.601812    4.772445   -2.535995
     42          8           0        3.402062    4.429791   -2.512450
     43          8           0        5.129954    5.993365   -2.360032
     44          6           0        4.091250    7.057898   -2.364142
     45          1           0        6.579704    1.762045    4.105181
     46          1           0        5.834695   -4.175836    2.338674
     47          1           0        6.031009   -2.467129   -3.701275
     48          1           0        6.473850    4.929964    0.314417
     49          1           0        6.208478    4.066824    2.985000
     50          1           0        8.448465    3.914909    1.003773
     51          1           0        8.438511    2.619900    2.240349
     52          1           0        8.521327    4.273701    2.777623
     53          1           0        4.047360    4.222750    1.976735
     54          1           0        3.787519    4.645604    0.237151
     55          1           0        5.393648    6.668311    1.427110
     56          1           0        4.343200    6.155533    2.692602
     57          1           0        5.893573    0.867762    5.886288
     58          1           0        6.290232   -0.692896    6.497044
     59          1           0        4.568441   -0.242491    6.397599
     60          1           0        5.428135   -2.724931    6.877056
     61          1           0        4.288452   -4.177937    6.741514
     62          1           0        3.761187   -2.506385    6.408596
     63          1           0        5.455331   -5.373537    0.120101
     64          1           0        7.029634   -4.503071   -2.253050
     65          1           0        7.428195   -6.419561    0.465108
     66          1           0        8.155118   -4.805720    0.774678
     67          1           0        8.216331   -5.464089   -0.777668
     68          1           0        5.148124   -6.182294   -2.344937
     69          1           0        5.095395   -4.940969   -3.591604
     70          1           0        3.503475   -5.363616   -1.176268
     71          1           0        2.913478   -4.949760   -2.821661
     72          1           0        3.617852   -3.693446   -1.708000
     73          1           0        5.455853    0.325278   -5.995567
     74          1           0        6.028540   -1.294109   -5.458275
     75          1           0        7.190668    0.096935   -5.462616
     76          1           0        6.686958    4.200623   -2.450059
     77          1           0        4.373013    7.778318   -3.132152
     78          1           0        4.011807    7.417288   -1.338017
     79          1           0        3.100479    6.763304   -2.711886
     80         12           0       -5.070470   -0.928821   -0.128824
     81          6           0       -7.687273    1.504284    0.204934
     82          6           0       -2.880871    1.676701   -0.355776
     83          6           0       -2.807832   -3.024693   -0.873991
     84          6           0       -7.523187   -3.241293   -1.013324
     85          7           0       -5.366577    1.262284   -0.068695
     86          6           0       -6.398007    2.070585    0.124006
     87          6           0       -6.018182    3.563300    0.316645
     88          6           0       -4.603141    3.551259   -0.442570
     89          6           0       -4.235721    2.081175   -0.251462
     90          6           0       -4.717453    3.825171   -1.932945
     91          6           0       -5.855346    3.948267    1.829025
     92          6           0       -5.789794    5.451758    2.106457
     93          1           0       -6.397597    5.960362    3.332984
     94          7           0       -3.093936   -0.760798   -0.068251
     95          6           0       -2.370980    0.375756   -0.151099
     96          6           0       -0.961164   -0.037930   -0.077336
     97          6           0       -0.906270   -1.524758   -0.110016
     98          6           0       -2.296292   -1.834013   -0.378862
     99          6           0        0.165658    0.939054    0.093485
    100          6           0        0.214406   -2.505513    0.058467
    101          8           0        0.077404   -3.743191   -0.245221
    102          6           0        1.504682   -1.956977    0.500937
    103          7           0       -5.123170   -2.794969   -1.043746
    104          6           0       -4.001779   -3.520231   -1.199976
    105          6           0       -4.320967   -4.933020   -1.627220
    106          6           0       -5.908047   -5.074925   -1.490768
    107          6           0       -6.256635   -3.628808   -1.075304
    108          6           0       -3.896629   -5.310810   -3.046227
    109          6           0       -6.437437   -6.243530   -0.615098
    110          6           0       -6.079480   -6.005632    0.834266
    111          7           0       -7.229922   -0.958489   -0.191500
    112          6           0       -8.056361   -2.021113   -0.618026
    113          6           0       -9.448744   -1.528295   -0.589317
    114          6           0       -9.332798   -0.195440   -0.166772
    115          6           0       -7.963079    0.126200    0.032986
    116          6           0      -10.601802   -2.270098   -0.971798
    117          6           0      -10.056827    1.015754    0.145483
    118          8           0      -11.245933    1.316981    0.240448
    119          6           0       -9.013983    2.207887    0.278364
    120          6           0       -9.335251    2.968039    1.535937
    121          8           0       -9.206897    2.430139    2.649849
    122          8           0       -9.530391    4.263677    1.229962
    123          6           0       -9.841174    5.060724    2.446491
    124          1           0       -2.141109    2.415718   -0.664792
    125          1           0       -2.076281   -3.818457   -1.042024
    126          1           0       -8.353456   -3.930717   -1.180777
    127          1           0       -6.689527    4.267934   -0.159332
    128          1           0       -3.881547    4.192655    0.056720
    129          1           0       -5.746664    3.865932   -2.257314
    130          1           0       -4.198505    3.011349   -2.422267
    131          1           0       -4.166286    4.733528   -2.192647
    132          1           0       -4.854859    3.650768    2.168515
    133          1           0       -6.632595    3.505172    2.420779
    134          1           0       -6.113586    6.044828    1.242529
    135          1           0       -4.743462    5.733251    2.247800
    136          1           0       -0.165921    1.970070   -0.081068
    137          1           0        0.882525    0.744308   -0.711528
    138          1           0        0.674647    0.831302    1.053689
    139          1           0        1.841052   -1.206459   -0.210422
    140          1           0        2.154325   -2.821708    0.649548
    141          1           0        1.356419   -1.441092    1.456188
    142          1           0       -3.846152   -5.652090   -0.971037
    143          1           0       -6.387189   -5.245867   -2.465973
    144          1           0       -3.225964   -6.190029   -3.081749
    145          1           0       -3.421521   -4.451531   -3.500599
    146          1           0       -4.715376   -5.513039   -3.734684
    147          1           0       -5.956219   -7.181210   -0.903768
    148          1           0       -7.508897   -6.393104   -0.696294
    149          1           0       -5.051480   -6.374697    0.898354
    150          1           0       -6.742066   -6.567296    1.489667
    151          1           0       -6.059894   -4.933959    1.064029
    152          1           0      -11.360341   -2.073003   -0.225961
    153          1           0      -10.383674   -3.333385   -1.046791
    154          1           0      -10.806193   -1.823127   -1.948369
    155          1           0       -9.112093    2.829773   -0.612263
    156          1           0      -10.792426    5.569067    2.260995
    157          1           0       -8.954457    5.698957    2.620079
    158          1           0      -10.065441    4.518148    3.357404
 ---------------------------------------------------------------------

 SCF Done:  E(RCAM-B3LYP) =  -4069.81358471     A.U. after   19 cycles

 Excitation energies and oscillator strengths:

 Excited State   1:      Singlet-A      1.6706 eV  742.16 nm  f=0.4229  <S**2>=0.000
     310 -> 316       -0.16265
     311 -> 313        0.21033
     312 -> 314        0.65311
 This state for optimization and/or second-order correction.
 Total Energy, E(TD-HF/TD-DFT) =  -4069.75219151
 Copying the excited state density for this state as the 1-particle RhoCI density.

 Excited State   2:      Singlet-A      1.6756 eV  739.95 nm  f=0.3747  <S**2>=0.000
     309 -> 315       -0.16685
     311 -> 313        0.65291
     312 -> 314       -0.21055
     309 <- 315       -0.10052

 Excited State   3:      Singlet-A      2.1832 eV  567.91 nm  f=0.0252  <S**2>=0.000
     309 -> 313       -0.26423
     310 -> 314        0.58725
     311 -> 315       -0.10931
     312 -> 316        0.24627

 Excited State   4:      Singlet-A      2.1980 eV  564.09 nm  f=0.1528  <S**2>=0.000
     309 -> 313        0.58376
     310 -> 314        0.26070
     311 -> 315        0.25697
     312 -> 316        0.11350

 Excited State   5:      Singlet-A      2.4083 eV  514.81 nm  f=0.0000  <S**2>=0.000
     312 -> 313        0.70654

 The electronic state is 1-A.
 Alpha  occ. eigenvalues --  -46.88095 -46.87494 -19.26677 -19.26250 -19.19448
 Alpha  occ. eigenvalues --  -19.19054 -19.18959 -19.18676 -19.18438 -19.17902
 Alpha  occ. eigenvalues --  -14.42717 -14.42325 -14.41645 -14.41191 -14.39656
 Alpha  occ. eigenvalues --  -14.39187 -14.38867 -14.38435 -10.39488 -10.38980
 Alpha  occ. eigenvalues --  -10.35589 -10.35360 -10.34665 -10.34081 -10.32075
 Alpha  occ. eigenvalues --  -10.31678 -10.31670 -10.31184 -10.31120 -10.30839
 Alpha  occ. eigenvalues --  -10.30818 -10.30738 -10.30361 -10.30255 -10.30178
 Alpha  occ. eigenvalues --  -10.30104 -10.29970 -10.29847 -10.29752 -10.29482
 Alpha  occ. eigenvalues --  -10.29254 -10.29237 -10.29070 -10.28934 -10.28637
 Alpha  occ. eigenvalues --  -10.28564 -10.28549 -10.28399 -10.28227 -10.28031
 Alpha  occ. eigenvalues --  -10.27966 -10.27932 -10.27823 -10.27804 -10.27677
 Alpha  occ. eigenvalues --  -10.27666 -10.27470 -10.27463 -10.27450 -10.27449
 Alpha  occ. eigenvalues --  -10.27387 -10.27322 -10.27303 -10.27254 -10.27124
 Alpha  occ. eigenvalues --  -10.27053 -10.26909 -10.26569 -10.26524 -10.26500
 Alpha  occ. eigenvalues --  -10.26473 -10.26195 -10.26027 -10.26024 -10.25926
 Alpha  occ. eigenvalues --  -10.25767 -10.25759 -10.25712 -10.25449 -10.25293
 Alpha  occ. eigenvalues --  -10.25085 -10.25004 -10.24704 -10.24625 -10.24532
 Alpha  occ. eigenvalues --  -10.24155  -3.16810  -3.16244  -1.91695  -1.91278
 Alpha  occ. eigenvalues --   -1.91126  -1.91121  -1.90715  -1.90552  -1.17029
 Alpha  occ. eigenvalues --   -1.16541  -1.08906  -1.08515  -1.07354  -1.07058
 Alpha  occ. eigenvalues --   -1.06900  -1.06838  -1.04846  -1.04321  -1.03974
 Alpha  occ. eigenvalues --   -1.03499  -1.03470  -1.02874  -1.02641  -1.01944
 Alpha  occ. eigenvalues --   -0.92236  -0.91825  -0.89612  -0.89470  -0.89345
 Alpha  occ. eigenvalues --   -0.88968  -0.88332  -0.88096  -0.88080  -0.87908
 Alpha  occ. eigenvalues --   -0.87635  -0.87505  -0.87472  -0.86948  -0.85255
 Alpha  occ. eigenvalues --   -0.84839  -0.83955  -0.83749  -0.83065  -0.82870
 Alpha  occ. eigenvalues --   -0.82838  -0.82513  -0.81865  -0.81465  -0.80836
 Alpha  occ. eigenvalues --   -0.80306  -0.79006  -0.78445  -0.77416  -0.77134
 Alpha  occ. eigenvalues --   -0.76969  -0.76755  -0.76173  -0.75656  -0.74977
 Alpha  occ. eigenvalues --   -0.74656  -0.72976  -0.72525  -0.71881  -0.71414
 Alpha  occ. eigenvalues --   -0.69803  -0.69625  -0.69115  -0.68672  -0.67869
 Alpha  occ. eigenvalues --   -0.67502  -0.67460  -0.67081  -0.65568  -0.65112
 Alpha  occ. eigenvalues --   -0.65098  -0.64829  -0.64612  -0.64507  -0.64316
 Alpha  occ. eigenvalues --   -0.64060  -0.62571  -0.62146  -0.60617  -0.60195
 Alpha  occ. eigenvalues --   -0.60080  -0.59621  -0.59199  -0.58832  -0.58718
 Alpha  occ. eigenvalues --   -0.58263  -0.57889  -0.57456  -0.57415  -0.57107
 Alpha  occ. eigenvalues --   -0.56542  -0.56290  -0.56028  -0.55751  -0.55732
 Alpha  occ. eigenvalues --   -0.55477  -0.55346  -0.55116  -0.54656  -0.54368
 Alpha  occ. eigenvalues --   -0.54192  -0.53748  -0.53483  -0.53471  -0.53171
 Alpha  occ. eigenvalues --   -0.53092  -0.52999  -0.52967  -0.52756  -0.52553
 Alpha  occ. eigenvalues --   -0.52293  -0.52282  -0.52109  -0.51893  -0.51741
 Alpha  occ. eigenvalues --   -0.51523  -0.51379  -0.51056  -0.50727  -0.50314
 Alpha  occ. eigenvalues --   -0.50174  -0.49984  -0.49822  -0.49741  -0.49724
 Alpha  occ. eigenvalues --   -0.49459  -0.49371  -0.49338  -0.49031  -0.48946
 Alpha  occ. eigenvalues --   -0.48863  -0.48646  -0.48556  -0.48398  -0.48243
 Alpha  occ. eigenvalues --   -0.48204  -0.47881  -0.47497  -0.47410  -0.46984
 Alpha  occ. eigenvalues --   -0.46915  -0.46824  -0.46564  -0.46542  -0.46407
 Alpha  occ. eigenvalues --   -0.46318  -0.46093  -0.46075  -0.45937  -0.45683
 Alpha  occ. eigenvalues --   -0.45271  -0.45067  -0.44824  -0.44688  -0.44369
 Alpha  occ. eigenvalues --   -0.44361  -0.44345  -0.44265  -0.44160  -0.43962
 Alpha  occ. eigenvalues --   -0.43924  -0.43810  -0.43734  -0.43559  -0.43423
 Alpha  occ. eigenvalues --   -0.43234  -0.43223  -0.43029  -0.42803  -0.42743
 Alpha  occ. eigenvalues --   -0.42669  -0.42399  -0.42059  -0.41917  -0.41826
 Alpha  occ. eigenvalues --   -0.41721  -0.41520  -0.41358  -0.41311  -0.41084
 Alpha  occ. eigenvalues --   -0.41004  -0.40818  -0.40641  -0.40588  -0.40551
 Alpha  occ. eigenvalues --   -0.40537  -0.40351  -0.40111  -0.39301  -0.39270
 Alpha  occ. eigenvalues --   -0.38549  -0.38212  -0.38060  -0.37556  -0.37515
 Alpha  occ. eigenvalues --   -0.37413  -0.37116  -0.37033  -0.37031  -0.36659
 Alpha  occ. eigenvalues --   -0.36375  -0.36077  -0.34529  -0.34168  -0.34091
 Alpha  occ. eigenvalues --   -0.33744  -0.33422  -0.33009  -0.31493  -0.31261
 Alpha  occ. eigenvalues --   -0.31201  -0.30811  -0.30303  -0.29810  -0.29682
 Alpha  occ. eigenvalues --   -0.29574  -0.29153  -0.29045  -0.24329  -0.23866
 Alpha  occ. eigenvalues --   -0.21350  -0.20943
 Alpha virt. eigenvalues --   -0.09003  -0.08620  -0.01970  -0.01539  -0.00277
 Alpha virt. eigenvalues --    0.00073   0.01965   0.02280   0.02843   0.03361
 Alpha virt. eigenvalues --    0.04449   0.04707   0.04895   0.05280   0.05797

 Mulliken charges:
               1
     1  Mg   0.815943
     2  C   -0.003663
     3  C   -0.094322
     4  C   -0.048390
     5  C   -0.060771
     6  N   -0.256020
     7  C   -0.054513
     8  C   -0.013187
     9  C   -0.086643
    10  C    0.045856
    11  C    0.104654
    12  C    0.053259
    13  C   -0.071570
    14  H    0.034456
    15  N   -0.432395
    16  C    0.167738
    17  C   -0.178182
    18  C   -0.003717
    19  C    0.147950
    20  C    0.110269
    21  C    0.012477
    22  O   -0.247509
    23  C    0.062549
    24  N   -0.338580
    25  C    0.042560
    26  C   -0.027531
    27  C   -0.023960
    28  C    0.075059
    29  C    0.076000
    30  C    0.034412
    31  C   -0.000448
    32  N   -0.309702
    33  C    0.078145
    34  C   -0.169320
    35  C    0.008240
    36  C    0.080032
    37  C    0.127407
    38  C    0.045596
    39  O   -0.188259
    40  C   -0.005571
    41  C    0.213675
    42  O   -0.260796
    43  O   -0.303885
    44  C    0.157774
    45  H   -0.017311
    46  H   -0.015778
    47  H   -0.040795
    48  H    0.001361
    49  H   -0.004134
    50  H    0.025732
    51  H    0.017171
    52  H    0.017178
    53  H    0.009968
    54  H    0.041148
    55  H    0.019238
    56  H    0.018641
    57  H    0.005816
    58  H    0.027679
    59  H    0.039483
    60  H    0.037430
    61  H    0.037094
    62  H    0.030963
    63  H    0.019405
    64  H    0.009007
    65  H    0.024101
    66  H    0.012031
    67  H    0.004939
    68  H    0.006255
    69  H    0.002699
    70  H    0.015495
    71  H    0.021565
    72  H    0.022756
    73  H    0.047382
    74  H    0.010405
    75  H    0.046390
    76  H    0.035889
    77  H    0.044062
    78  H    0.046495
    79  H    0.052007
    80  Mg   0.837522
    81  C   -0.016840
    82  C   -0.088104
    83  C   -0.045319
    84  C   -0.065095
    85  N   -0.254443
    86  C   -0.050061
    87  C   -0.015150
    88  C   -0.090102
    89  C    0.044810
    90  C    0.114078
    91  C    0.062662
    92  C   -0.077388
    93  H    0.033615
    94  N   -0.423651
    95  C    0.162055
    96  C   -0.172772
    97  C   -0.007827
    98  C    0.152575
    99  C    0.093656
   100  C    0.020935
   101  O   -0.251830
   102  C    0.024679
   103  N   -0.350101
   104  C    0.037810
   105  C   -0.019890
   106  C   -0.034671
   107  C    0.088771
   108  C    0.073674
   109  C    0.034865
   110  C   -0.007600
   111  N   -0.323950
   112  C    0.078101
   113  C   -0.163591
   114  C    0.002121
   115  C    0.095842
   116  C    0.131577
   117  C    0.042035
   118  O   -0.188616
   119  C    0.000999
   120  C    0.211198
   121  O   -0.251386
   122  O   -0.305513
   123  C    0.152224
   124  H   -0.014529
   125  H   -0.016045
   126  H   -0.040982
   127  H   -0.000865
   128  H   -0.004129
   129  H    0.021735
   130  H    0.016153
   131  H    0.017549
   132  H    0.013508
   133  H    0.037219
   134  H    0.020975
   135  H    0.019254
   136  H    0.014811
   137  H    0.037570
   138  H    0.038057
   139  H    0.048857
   140  H    0.053601
   141  H    0.040790
   142  H    0.014111
   143  H    0.012181
   144  H    0.024207
   145  H    0.012124
   146  H    0.005576
   147  H    0.005811
   148  H    0.003422
   149  H    0.010890
   150  H    0.017541
   151  H    0.030242
   152  H    0.045499
   153  H    0.008145
   154  H    0.046696
   155  H    0.035032
   156  H    0.043650
   157  H    0.049336
   158  H    0.053219
 Sum of Mulliken charges =  -0.00000

 Dipole moment (field-independent basis, Debye):
    X=              5.6362    Y=              2.5605    Z=              2.6827  Tot=              6.7468
 Quadrupole moment (field-independent basis, Debye-Ang):
   XX=           -553.9780   YY=           -473.4039   ZZ=           -510.1472
   XY=             15.8041   XZ=             36.3878   YZ=             42.6281

 Normal termination of Gaussian 16 at Sat Sep 11 02:30:46 2021.
