 Gaussian 16, Revision A.03,
 Gaussian 16:  ES64L-G16RevA.03 25-Dec-2016

 -----------------------------------
 #p cam-b3lyp/Def2SVP td=(nstates=5)
 -----------------------------------

 --------------------------------
 TDDFT excited states in gaussian
 --------------------------------
 Symbolic Z-matrix:
 Charge =  0 Multiplicity = 1

                         Standard orientation:
 ---------------------------------------------------------------------
 Center     Atomic      Atomic             Coordinates (Angstroms)
 Number     Number       Type             X           Y           Z
 ---------------------------------------------------------------------
      1         12           0        6.690307   -0.597626    0.760139
      2          6           0        7.115442    2.275169   -1.332353
      3          6           0        7.245285    1.451039    3.431849
      4          6           0        6.770560   -3.186294    2.590160
      5          6           0        7.295704   -2.556633   -2.057919
      6          7           0        7.113343    1.570586    0.903461
      7          6           0        7.190715    2.570309    0.030685
      8          6           0        7.283707    3.972307    0.703833
      9          6           0        7.880934    3.534498    2.115796
     10          6           0        7.353182    2.111744    2.172143
     11          6           0        9.405386    3.494483    2.146555
     12          6           0        5.881266    4.650793    0.860511
     13          6           0        5.912007    6.142780    1.204580
     14          1           0        4.887435    7.011651    0.645417
     15          7           0        6.484548   -0.791262    2.715393
     16          6           0        6.740116    0.151672    3.653927
     17          6           0        6.432788   -0.476374    4.956919
     18          6           0        6.159606   -1.919979    4.713056
     19          6           0        6.490558   -2.030514    3.315333
     20          6           0        6.372460    0.286879    6.244380
     21          6           0        5.686914   -3.026868    5.601589
     22          8           0        5.738230   -4.253765    5.245690
     23          6           0        5.238572   -2.639712    6.951456
     24          7           0        7.205201   -2.585731    0.386026
     25          6           0        7.096127   -3.517859    1.339034
     26          6           0        7.244598   -4.898538    0.771916
     27          6           0        7.236456   -4.727564   -0.815678
     28          6           0        7.162422   -3.182310   -0.886240
     29          6           0        8.505339   -5.664350    1.196268
     30          6           0        6.190621   -5.552969   -1.606473
     31          6           0        4.798014   -5.056250   -1.288646
     32          7           0        6.954622   -0.245392   -1.365211
     33          6           0        7.218272   -1.205697   -2.352621
     34          6           0        7.424479   -0.478320   -3.618508
     35          6           0        7.281919    0.864390   -3.274050
     36          6           0        7.030261    0.970645   -1.876312
     37          6           0        7.761055   -1.063872   -4.870818
     38          6           0        7.308073    2.235459   -3.757107
     39          8           0        7.383474    2.762127   -4.868155
     40          6           0        7.322319    3.210165   -2.497912
     41          6           0        6.287806    4.276074   -2.736510
     42          8           0        5.072704    3.993158   -2.765681
     43          8           0        6.867031    5.483763   -2.655716
     44          6           0        5.889570    6.587170   -2.853743
     45          1           0        7.636058    1.946378    4.322846
     46          1           0        6.698803   -4.112684    3.163825
     47          1           0        7.405011   -3.106142   -2.994693
     48          1           0        7.963229    4.668497    0.211905
     49          1           0        7.467332    4.124737    2.933276
     50          1           0        9.828085    3.648862    1.153875
     51          1           0        9.663048    2.503238    2.520101
     52          1           0        9.796745    4.201560    2.878440
     53          1           0        5.392855    4.264153    1.754952
     54          1           0        5.277381    4.499672   -0.034928
     55          1           0        6.902968    6.568453    1.044242
     56          1           0        5.741289    6.249828    2.275839
     57          1           0        6.781092    1.290611    6.134438
     58          1           0        7.050326   -0.207698    6.939794
     59          1           0        5.366163    0.306447    6.663087
     60          1           0        6.056441   -2.142661    7.473548
     61          1           0        4.852803   -3.548358    7.412319
     62          1           0        4.440115   -1.902732    6.860474
     63          1           0        6.410799   -5.534250    1.067001
     64          1           0        8.190337   -5.009216   -1.262284
     65          1           0        8.296156   -6.623346    1.670897
     66          1           0        9.085148   -5.019630    1.856153
     67          1           0        9.218643   -5.850822    0.393869
     68          1           0        6.232593   -6.600808   -1.311145
     69          1           0        6.333016   -5.506757   -2.686213
     70          1           0        4.556962   -5.581735   -0.365287
     71          1           0        4.105584   -5.329524   -2.085560
     72          1           0        4.797173   -3.989056   -1.065972
     73          1           0        7.140726   -0.566795   -5.616522
     74          1           0        7.587268   -2.139679   -4.864389
     75          1           0        8.819656   -0.812267   -4.933371
     76          1           0        8.328368    3.623370   -2.432725
     77          1           0        6.262103    7.202904   -3.672478
     78          1           0        5.758442    7.063133   -1.881802
     79          1           0        4.910984    6.300621   -3.240522
     80         12           0       -6.442565   -0.691227   -0.764164
     81          6           0       -8.280711    1.625724    1.268565
     82          6           0       -5.635500    1.943391   -2.774639
     83          6           0       -5.195714   -2.766368   -2.815154
     84          6           0       -8.298116   -3.244850    0.712879
     85          7           0       -6.951718    1.458766   -0.661446
     86          6           0       -7.605538    2.234454    0.190134
     87          6           0       -7.464839    3.755334   -0.086802
     88          6           0       -7.119629    3.683549   -1.653505
     89          6           0       -6.496479    2.290020   -1.702887
     90          6           0       -8.352346    3.687289   -2.542163
     91          6           0       -6.293786    4.405827    0.730202
     92          6           0       -6.293748    5.936012    0.746891
     93          1           0       -5.852696    6.618841    1.960026
     94          7           0       -5.153325   -0.414333   -2.247320
     95          6           0       -4.938610    0.725845   -2.936642
     96          6           0       -3.907656    0.404014   -3.935510
     97          6           0       -3.650064   -1.060969   -3.888464
     98          6           0       -4.694103   -1.483032   -2.976363
     99          6           0       -3.217016    1.452159   -4.758813
    100          6           0       -2.640310   -1.938719   -4.563840
    101          8           0       -2.750041   -3.215746   -4.562434
    102          6           0       -1.570402   -1.256185   -5.306100
    103          7           0       -6.850541   -2.688491   -1.172646
    104          6           0       -6.125358   -3.371558   -2.075673
    105          6           0       -6.415613   -4.851632   -2.001416
    106          6           0       -7.311351   -5.048579   -0.691290
    107          6           0       -7.465139   -3.571923   -0.265549
    108          6           0       -7.140254   -5.448761   -3.207532
    109          6           0       -6.803748   -6.072188    0.360962
    110          6           0       -5.529820   -5.567322    0.999398
    111          7           0       -7.874043   -0.841785    0.847130
    112          6           0       -8.548252   -2.003341    1.283373
    113          6           0       -9.504544   -1.584930    2.328785
    114          6           0       -9.335326   -0.194674    2.412646
    115          6           0       -8.358031    0.226491    1.470840
    116          6           0      -10.409247   -2.440042    3.019010
    117          6           0       -9.768845    1.013757    3.076324
    118          8           0      -10.513032    1.265705    4.023129
    119          6           0       -9.196289    2.262564    2.276915
    120          6           0       -8.589404    3.212825    3.272513
    121          8           0       -7.585185    2.884587    3.928563
    122          8           0       -9.158590    4.423601    3.129555
    123          6           0       -8.581755    5.403523    4.088111
    124          1           0       -5.513022    2.654101   -3.592430
    125          1           0       -4.718831   -3.538807   -3.422942
    126          1           0       -8.843120   -3.994458    1.290581
    127          1           0       -8.369433    4.330948    0.068627
    128          1           0       -6.388611    4.438198   -1.931867
    129          1           0       -9.263770    3.618194   -1.967119
    130          1           0       -8.249038    2.828270   -3.192126
    131          1           0       -8.342457    4.563468   -3.196812
    132          1           0       -5.346941    4.223627    0.205779
    133          1           0       -6.278210    4.033477    1.736065
    134          1           0       -7.246080    6.352078    0.396337
    135          1           0       -5.561542    6.290985    0.017584
    136          1           0       -3.731892    2.418634   -4.693729
    137          1           0       -3.324982    1.157011   -5.808142
    138          1           0       -2.154095    1.539589   -4.523853
    139          1           0       -2.010059   -0.624942   -6.074653
    140          1           0       -0.897847   -2.047399   -5.643045
    141          1           0       -1.037585   -0.589981   -4.618440
    142          1           0       -5.500420   -5.420087   -1.890122
    143          1           0       -8.320048   -5.411155   -0.938071
    144          1           0       -6.589362   -6.285231   -3.677539
    145          1           0       -7.316641   -4.658666   -3.925300
    146          1           0       -8.148002   -5.809492   -3.008737
    147          1           0       -6.554231   -7.019972   -0.122359
    148          1           0       -7.529070   -6.288231    1.138283
    149          1           0       -4.759210   -5.866498    0.282649
    150          1           0       -5.373234   -6.039305    1.967266
    151          1           0       -5.523331   -4.472431    1.052548
    152          1           0      -10.372712   -2.155033    4.062052
    153          1           0      -10.148509   -3.487553    2.882935
    154          1           0      -11.344691   -2.181170    2.515823
    155          1           0      -10.028137    2.713853    1.734744
    156          1           0       -9.416819    5.822415    4.658093
    157          1           0       -7.987345    6.106751    3.475006
    158          1           0       -7.955335    5.017265    4.883638
 ---------------------------------------------------------------------

 SCF Done:  E(RCAM-B3LYP) =  -4069.81219731     A.U. after   19 cycles

 Excitation energies and oscillator strengths:

 Excited State   1:      Singlet-A      1.6656 eV  744.40 nm  f=0.0811  <S**2>=0.000
     309 -> 315        0.11236
     310 -> 316       -0.12998
     311 -> 313       -0.44785
     312 -> 314        0.52045
 This state for optimization and/or second-order correction.
 Total Energy, E(TD-HF/TD-DFT) =  -4069.75098887
 Copying the excited state density for this state as the 1-particle RhoCI density.

 Excited State   2:      Singlet-A      1.6896 eV  733.79 nm  f=0.6731  <S**2>=0.000
     309 -> 315       -0.13510
     310 -> 316       -0.11566
     311 -> 313        0.51929
     312 -> 314        0.44700

 Excited State   3:      Singlet-A      2.1871 eV  566.90 nm  f=0.0350  <S**2>=0.000
     309 -> 313        0.22560
     310 -> 314        0.60192
     312 -> 316        0.25598

 Excited State   4:      Singlet-A      2.1940 eV  565.09 nm  f=0.1541  <S**2>=0.000
     309 -> 313        0.59983
     310 -> 314       -0.22412
     311 -> 315        0.26150

 Excited State   5:      Singlet-A      2.6769 eV  463.17 nm  f=0.0000  <S**2>=0.000
     312 -> 313        0.70705

 The electronic state is 1-A.
 Alpha  occ. eigenvalues --  -46.87796 -46.87536 -19.26392 -19.26294 -19.19130
 Alpha  occ. eigenvalues --  -19.19097 -19.18782 -19.18530 -19.18211 -19.17946
 Alpha  occ. eigenvalues --  -14.42454 -14.42374 -14.41443 -14.41238 -14.39399
 Alpha  occ. eigenvalues --  -14.39219 -14.38594 -14.38478 -10.39181 -10.39023
 Alpha  occ. eigenvalues --  -10.35413 -10.35198 -10.34433 -10.34127 -10.31808
 Alpha  occ. eigenvalues --  -10.31721 -10.31419 -10.31196 -10.30915 -10.30891
 Alpha  occ. eigenvalues --  -10.30579 -10.30507 -10.30275 -10.30238 -10.30185
 Alpha  occ. eigenvalues --  -10.30007 -10.29917 -10.29786 -10.29630 -10.29295
 Alpha  occ. eigenvalues --  -10.29261 -10.29245 -10.28777 -10.28614 -10.28597
 Alpha  occ. eigenvalues --  -10.28581 -10.28372 -10.28274 -10.28135 -10.28030
 Alpha  occ. eigenvalues --  -10.27869 -10.27799 -10.27728 -10.27578 -10.27540
 Alpha  occ. eigenvalues --  -10.27460 -10.27451 -10.27415 -10.27415 -10.27412
 Alpha  occ. eigenvalues --  -10.27363 -10.27316 -10.27274 -10.27215 -10.27208
 Alpha  occ. eigenvalues --  -10.26956 -10.26752 -10.26598 -10.26348 -10.26250
 Alpha  occ. eigenvalues --  -10.26132 -10.26112 -10.26041 -10.26010 -10.25923
 Alpha  occ. eigenvalues --  -10.25864 -10.25812 -10.25755 -10.25403 -10.25306
 Alpha  occ. eigenvalues --  -10.24846 -10.24782 -10.24747 -10.24632 -10.24586
 Alpha  occ. eigenvalues --  -10.24569  -3.16539  -3.16286  -1.91421  -1.91168
 Alpha  occ. eigenvalues --   -1.91007  -1.90849  -1.90756  -1.90593  -1.16740
 Alpha  occ. eigenvalues --   -1.16585  -1.08676  -1.08560  -1.07181  -1.06881
 Alpha  occ. eigenvalues --   -1.06782  -1.06750  -1.04587  -1.04371  -1.03756
 Alpha  occ. eigenvalues --   -1.03538  -1.03233  -1.02914  -1.02411  -1.01987
 Alpha  occ. eigenvalues --   -0.91991  -0.91872  -0.89497  -0.89380  -0.89209
 Alpha  occ. eigenvalues --   -0.89044  -0.88262  -0.88111  -0.87882  -0.87678
 Alpha  occ. eigenvalues --   -0.87677  -0.87563  -0.87255  -0.86932  -0.84999
 Alpha  occ. eigenvalues --   -0.84886  -0.83910  -0.83772  -0.82932  -0.82751
 Alpha  occ. eigenvalues --   -0.82659  -0.82509  -0.81632  -0.81504  -0.80614
 Alpha  occ. eigenvalues --   -0.80326  -0.78789  -0.78477  -0.77216  -0.77021
 Alpha  occ. eigenvalues --   -0.76957  -0.76801  -0.75950  -0.75728  -0.74886
 Alpha  occ. eigenvalues --   -0.74695  -0.72775  -0.72576  -0.71678  -0.71468
 Alpha  occ. eigenvalues --   -0.69862  -0.69652  -0.68885  -0.68707  -0.67647
 Alpha  occ. eigenvalues --   -0.67477  -0.67234  -0.67066  -0.65309  -0.65164
 Alpha  occ. eigenvalues --   -0.64872  -0.64658  -0.64632  -0.64547  -0.64251
 Alpha  occ. eigenvalues --   -0.64094  -0.62350  -0.62191  -0.60424  -0.60179
 Alpha  occ. eigenvalues --   -0.59820  -0.59681  -0.58993  -0.58877  -0.58513
 Alpha  occ. eigenvalues --   -0.58310  -0.57634  -0.57460  -0.57306  -0.57108
 Alpha  occ. eigenvalues --   -0.56320  -0.56075  -0.56041  -0.55793  -0.55518
 Alpha  occ. eigenvalues --   -0.55345  -0.55308  -0.55148  -0.54544  -0.54396
 Alpha  occ. eigenvalues --   -0.53918  -0.53803  -0.53295  -0.53232  -0.53101
 Alpha  occ. eigenvalues --   -0.53008  -0.52944  -0.52792  -0.52743  -0.52474
 Alpha  occ. eigenvalues --   -0.52390  -0.52296  -0.51934  -0.51781  -0.51633
 Alpha  occ. eigenvalues --   -0.51525  -0.51210  -0.51093  -0.50535  -0.50264
 Alpha  occ. eigenvalues --   -0.50001  -0.49904  -0.49833  -0.49739  -0.49521
 Alpha  occ. eigenvalues --   -0.49337  -0.49230  -0.49118  -0.49067  -0.48997
 Alpha  occ. eigenvalues --   -0.48625  -0.48461  -0.48452  -0.48432  -0.48273
 Alpha  occ. eigenvalues --   -0.48168  -0.47696  -0.47461  -0.47295  -0.46974
 Alpha  occ. eigenvalues --   -0.46795  -0.46595  -0.46577  -0.46436  -0.46362
 Alpha  occ. eigenvalues --   -0.46173  -0.46143  -0.45980  -0.45860  -0.45730
 Alpha  occ. eigenvalues --   -0.45181  -0.45099  -0.44607  -0.44494  -0.44408
 Alpha  occ. eigenvalues --   -0.44356  -0.44142  -0.44094  -0.44027  -0.44012
 Alpha  occ. eigenvalues --   -0.43955  -0.43774  -0.43536  -0.43466  -0.43388
 Alpha  occ. eigenvalues --   -0.43274  -0.43036  -0.42845  -0.42793  -0.42773
 Alpha  occ. eigenvalues --   -0.42628  -0.42430  -0.41999  -0.41859  -0.41716
 Alpha  occ. eigenvalues --   -0.41558  -0.41548  -0.41348  -0.41147  -0.40876
 Alpha  occ. eigenvalues --   -0.40872  -0.40801  -0.40603  -0.40551  -0.40541
 Alpha  occ. eigenvalues --   -0.40388  -0.40261  -0.40105  -0.39387  -0.39320
 Alpha  occ. eigenvalues --   -0.38450  -0.38245  -0.37778  -0.37553  -0.37305
 Alpha  occ. eigenvalues --   -0.37284  -0.37154  -0.37081  -0.36780  -0.36699
 Alpha  occ. eigenvalues --   -0.36214  -0.36116  -0.34291  -0.34134  -0.33862
 Alpha  occ. eigenvalues --   -0.33787  -0.33194  -0.33053  -0.31313  -0.31095
 Alpha  occ. eigenvalues --   -0.31038  -0.30848  -0.30073  -0.29855  -0.29446
 Alpha  occ. eigenvalues --   -0.29331  -0.29182  -0.29083  -0.24084  -0.23915
 Alpha  occ. eigenvalues --   -0.21127  -0.20989
 Alpha virt. eigenvalues --   -0.08774  -0.08658  -0.01744  -0.01556  -0.00051
 Alpha virt. eigenvalues --    0.00127   0.02184   0.02324   0.03124   0.03349
 Alpha virt. eigenvalues --    0.04705   0.04839   0.05007   0.05238   0.06135

 Mulliken charges:
               1
     1  Mg   0.838712
     2  C   -0.003376
     3  C   -0.094093
     4  C   -0.045592
     5  C   -0.063719
     6  N   -0.256829
     7  C   -0.052656
     8  C   -0.014011
     9  C   -0.087061
    10  C    0.046393
    11  C    0.104788
    12  C    0.053461
    13  C   -0.071606
    14  H    0.035165
    15  N   -0.433222
    16  C    0.168653
    17  C   -0.176891
    18  C   -0.003661
    19  C    0.148840
    20  C    0.110104
    21  C    0.012637
    22  O   -0.249301
    23  C    0.062285
    24  N   -0.341167
    25  C    0.041408
    26  C   -0.028241
    27  C   -0.023975
    28  C    0.074856
    29  C    0.076155
    30  C    0.035040
    31  C   -0.004691
    32  N   -0.310264
    33  C    0.080081
    34  C   -0.170109
    35  C    0.007938
    36  C    0.082600
    37  C    0.127454
    38  C    0.045441
    39  O   -0.189323
    40  C   -0.005126
    41  C    0.212901
    42  O   -0.258329
    43  O   -0.304440
    44  C    0.158061
    45  H   -0.017473
    46  H   -0.016501
    47  H   -0.041361
    48  H    0.000743
    49  H   -0.003924
    50  H    0.025395
    51  H    0.016612
    52  H    0.016737
    53  H    0.011566
    54  H    0.043373
    55  H    0.017958
    56  H    0.018356
    57  H    0.005870
    58  H    0.026987
    59  H    0.040288
    60  H    0.037265
    61  H    0.036068
    62  H    0.032123
    63  H    0.016987
    64  H    0.009356
    65  H    0.023404
    66  H    0.012415
    67  H    0.004760
    68  H    0.006542
    69  H    0.004716
    70  H    0.009034
    71  H    0.019661
    72  H    0.028410
    73  H    0.046773
    74  H    0.009418
    75  H    0.045985
    76  H    0.035204
    77  H    0.042845
    78  H    0.046641
    79  H    0.052479
    80  Mg   0.837685
    81  C   -0.016918
    82  C   -0.087284
    83  C   -0.045525
    84  C   -0.064977
    85  N   -0.254547
    86  C   -0.050176
    87  C   -0.015089
    88  C   -0.090567
    89  C    0.045750
    90  C    0.114376
    91  C    0.062407
    92  C   -0.077627
    93  H    0.033927
    94  N   -0.423634
    95  C    0.163132
    96  C   -0.173909
    97  C   -0.007391
    98  C    0.152191
    99  C    0.098933
   100  C    0.015674
   101  O   -0.253884
   102  C    0.060944
   103  N   -0.350020
   104  C    0.037633
   105  C   -0.019836
   106  C   -0.034646
   107  C    0.088669
   108  C    0.073750
   109  C    0.034815
   110  C   -0.007616
   111  N   -0.323943
   112  C    0.078055
   113  C   -0.163534
   114  C    0.001988
   115  C    0.095897
   116  C    0.131577
   117  C    0.042038
   118  O   -0.188657
   119  C    0.000984
   120  C    0.211215
   121  O   -0.251310
   122  O   -0.305578
   123  C    0.152216
   124  H   -0.019301
   125  H   -0.015648
   126  H   -0.040853
   127  H   -0.000981
   128  H   -0.004030
   129  H    0.022241
   130  H    0.014500
   131  H    0.016258
   132  H    0.014475
   133  H    0.037340
   134  H    0.020628
   135  H    0.019902
   136  H    0.008728
   137  H    0.026264
   138  H    0.043421
   139  H    0.038488
   140  H    0.036237
   141  H    0.036838
   142  H    0.014339
   143  H    0.012114
   144  H    0.024943
   145  H    0.011689
   146  H    0.005460
   147  H    0.005977
   148  H    0.003397
   149  H    0.010962
   150  H    0.017765
   151  H    0.030244
   152  H    0.045541
   153  H    0.008270
   154  H    0.046600
   155  H    0.034785
   156  H    0.043610
   157  H    0.049444
   158  H    0.053166
 Sum of Mulliken charges =  -0.00000

 Dipole moment (field-independent basis, Debye):
    X=              2.6578    Y=              3.0737    Z=              0.3511  Tot=              4.0786
 Quadrupole moment (field-independent basis, Debye-Ang):
   XX=           -514.7814   YY=           -462.6014   ZZ=           -526.9197
   XY=              7.0656   XZ=             62.9495   YZ=             15.4268

 Normal termination of Gaussian 16 at Sat Sep 11 05:06:51 2021.
