 Gaussian 16, Revision A.03,
 Gaussian 16:  ES64L-G16RevA.03 25-Dec-2016

 -----------------------------------
 #p cam-b3lyp/Def2SVP td=(nstates=5)
 -----------------------------------

 --------------------------------
 TDDFT excited states in gaussian
 --------------------------------
 Symbolic Z-matrix:
 Charge =  0 Multiplicity = 1

                         Standard orientation:
 ---------------------------------------------------------------------
 Center     Atomic      Atomic             Coordinates (Angstroms)
 Number     Number       Type             X           Y           Z
 ---------------------------------------------------------------------
      1         12           0        8.081497   -0.486517   -0.021804
      2          6           0        8.159032    2.828754   -1.369091
      3          6           0        8.963585    0.873218    2.980880
      4          6           0        8.462715   -3.436075    1.078831
      5          6           0        8.326413   -1.662928   -3.293154
      6          7           0        8.480080    1.599996    0.601287
      7          6           0        8.417128    2.785344    0.002823
      8          6           0        8.576586    3.983195    0.986235
      9          6           0        9.371867    3.245464    2.154687
     10          6           0        8.883479    1.826470    1.922615
     11          6           0       10.886331    3.279004    1.976427
     12          6           0        7.197100    4.528441    1.487688
     13          6           0        7.247614    5.890593    2.185788
     14          1           0        6.139476    6.814911    1.998667
     15          7           0        8.152512   -1.162638    1.833100
     16          6           0        8.518257   -0.465629    2.935685
     17          6           0        8.406292   -1.408277    4.069510
     18          6           0        8.128722   -2.760765    3.511096
     19          6           0        8.264625   -2.508866    2.099198
     20          6           0        8.510967   -0.987060    5.503166
     21          6           0        7.804412   -4.074422    4.149265
     22          8           0        7.828596   -5.172711    3.495239
     23          6           0        7.540512   -4.052928    5.599416
     24          7           0        8.576276   -2.293135   -0.943194
     25          6           0        8.617711   -3.434302   -0.246770
     26          6           0        8.711650   -4.624784   -1.154441
     27          6           0        8.480247   -4.071659   -2.634393
     28          6           0        8.368527   -2.562080   -2.307345
     29          6           0       10.033028   -5.404004   -1.101656
     30          6           0        7.350321   -4.732345   -3.463357
     31          6           0        6.006288   -4.401966   -2.853830
     32          7           0        8.041934    0.387806   -2.008017
     33          6           0        8.183844   -0.286898   -3.229209
     34          6           0        8.198988    0.737567   -4.289544
     35          6           0        8.080726    1.946013   -3.605792
     36          6           0        8.023419    1.694118   -2.205236
     37          6           0        8.369426    0.494280   -5.681017
     38          6           0        8.014229    3.392993   -3.731035
     39          8           0        7.925047    4.178430   -4.675825
     40          6           0        8.184908    4.029764   -2.281477
     41          6           0        7.107733    5.066001   -2.110547
     42          8           0        5.905780    4.735586   -2.051395
     43          8           0        7.670092    6.245934   -1.807144
     44          6           0        6.654340    7.311550   -1.595334
     45          1           0        9.464904    1.155533    3.908736
     46          1           0        8.488384   -4.477021    1.407786
     47          1           0        8.314910   -1.960329   -4.343332
     48          1           0        9.168303    4.813087    0.599485
     49          1           0        9.064770    3.595529    3.140013
     50          1           0       11.164343    3.693219    1.007378
     51          1           0       11.211627    2.241414    2.054418
     52          1           0       11.362241    3.805255    2.804284
     53          1           0        6.844700    3.909906    2.313091
     54          1           0        6.477771    4.569348    0.669018
     55          1           0        8.198704    6.393817    2.009429
     56          1           0        7.225158    5.723494    3.262716
     57          1           0        8.881736    0.033075    5.594816
     58          1           0        9.287771   -1.600412    5.959328
     59          1           0        7.572274   -1.123122    6.040451
     60          1           0        8.413534   -3.656438    6.118240
     61          1           0        7.239287   -5.065563    5.865280
     62          1           0        6.723639   -3.358901    5.799397
     63          1           0        7.938754   -5.356085   -0.921510
     64          1           0        9.368026   -4.185288   -3.256976
     65          1           0        9.909493   -6.459511   -0.858042
     66          1           0       10.686705   -4.910670   -0.382894
     67          1           0       10.631491   -5.351113   -2.010756
     68          1           0        7.452250   -5.816906   -3.446552
     69          1           0        7.340716   -4.416258   -4.506548
     70          1           0        5.905397   -5.149059   -2.067378
     71          1           0        5.215212   -4.508050   -3.596902
     72          1           0        6.016564   -3.423110   -2.374017
     73          1           0        7.642573    1.125357   -6.192286
     74          1           0        8.218171   -0.558049   -5.920446
     75          1           0        9.404279    0.808603   -5.815694
     76          1           0        9.182446    4.466587   -2.246463
     77          1           0        6.898255    8.127339   -2.275943
     78          1           0        6.650476    7.528001   -0.526906
     79          1           0        5.637048    7.077397   -1.910976
     80         12           0       -7.784688   -0.977272    0.245524
     81          6           0       -9.877057    1.912355   -0.143158
     82          6           0       -5.399069    1.105415    1.512751
     83          6           0       -5.760412   -3.419766    0.182697
     84          6           0       -9.837259   -2.601219   -2.055653
     85          7           0       -7.759781    1.207288    0.591027
     86          6           0       -8.634577    2.193450    0.462355
     87          6           0       -8.181611    3.540568    1.086594
     88          6           0       -6.593763    3.304915    1.040900
     89          6           0       -6.571799    1.778442    1.086309
     90          6           0       -5.956122    3.753175   -0.263636
     91          6           0       -8.693662    3.719220    2.558971
     92          6           0       -8.552941    5.135409    3.121402
     93          1           0       -9.585390    5.630084    4.027934
     94          7           0       -6.065851   -1.245625    1.200598
     95          6           0       -5.235208   -0.288924    1.665395
     96          6           0       -4.099312   -1.001557    2.270408
     97          6           0       -4.247343   -2.453373    1.978846
     98          6           0       -5.377275   -2.426217    1.071868
     99          6           0       -3.058084   -0.313464    3.104549
    100          6           0       -3.488486   -3.664392    2.430255
    101          8           0       -3.641459   -4.804378    1.864689
    102          6           0       -2.492916   -3.456165    3.491839
    103          7           0       -7.666990   -2.680838   -0.940370
    104          6           0       -6.719062   -3.609589   -0.724093
    105          6           0       -6.997853   -4.867326   -1.511991
    106          6           0       -8.465752   -4.678214   -2.117886
    107          6           0       -8.758943   -3.243263   -1.627654
    108          6           0       -6.016577   -5.175163   -2.642795
    109          6           0       -9.503676   -5.791588   -1.808383
    110          6           0       -9.836956   -5.791008   -0.333829
    111          7           0       -9.642383   -0.535021   -0.765137
    112          6           0      -10.314040   -1.343783   -1.707924
    113          6           0      -11.471513   -0.568916   -2.200134
    114          6           0      -11.379089    0.655425   -1.521203
    115          6           0      -10.232732    0.651963   -0.681362
    116          6           0      -12.403026   -1.000645   -3.186047
    117          6           0      -11.984648    1.953964   -1.332014
    118          8           0      -13.023148    2.492089   -1.713678
    119          6           0      -10.968295    2.873002   -0.526549
    120          6           0      -11.729733    3.546988    0.581822
    121          8           0      -12.216217    2.879260    1.511384
    122          8           0      -11.572437    4.879202    0.477768
    123          6           0      -12.300270    5.591088    1.561879
    124          1           0       -4.504281    1.696507    1.709832
    125          1           0       -5.156584   -4.329948    0.203894
    126          1           0      -10.580639   -3.074261   -2.700865
    127          1           0       -8.443821    4.419422    0.509854
    128          1           0       -6.107463    3.719573    1.920064
    129          1           0       -6.695712    4.048428   -0.993011
    130          1           0       -5.389961    2.903262   -0.621622
    131          1           0       -5.224829    4.544003   -0.073563
    132          1           0       -8.022681    3.179284    3.239409
    133          1           0       -9.711598    3.393559    2.650493
    134          1           0       -8.346158    5.872271    2.335761
    135          1           0       -7.666877    5.168720    3.759999
    136          1           0       -3.118931    0.777283    3.004655
    137          1           0       -2.083476   -0.571488    2.676279
    138          1           0       -3.079550   -0.629166    4.149795
    139          1           0       -1.759660   -2.724572    3.160817
    140          1           0       -2.118953   -4.451131    3.741006
    141          1           0       -2.996537   -3.024549    4.364001
    142          1           0       -6.993496   -5.737006   -0.866442
    143          1           0       -8.450804   -4.637912   -3.216971
    144          1           0       -5.540066   -6.169231   -2.548653
    145          1           0       -5.267334   -4.395024   -2.666393
    146          1           0       -6.436561   -5.122546   -3.645811
    147          1           0       -9.082027   -6.774870   -2.030901
    148          1           0      -10.421094   -5.697777   -2.379825
    149          1           0       -9.023092   -6.377178    0.103348
    150          1           0      -10.801586   -6.263177   -0.158930
    151          1           0       -9.775313   -4.779111    0.083197
    152          1           0      -13.385912   -0.725099   -2.827551
    153          1           0      -12.328746   -2.071900   -3.361140
    154          1           0      -12.060108   -0.419377   -4.046156
    155          1           0      -10.548135    3.592123   -1.230766
    156          1           0      -12.970541    6.308817    1.078873
    157          1           0      -11.517811    6.001648    2.227426
    158          1           0      -12.999736    5.016142    2.157386
 ---------------------------------------------------------------------

 SCF Done:  E(RCAM-B3LYP) =  -4069.81179126     A.U. after   19 cycles

 Excitation energies and oscillator strengths:

 Excited State   1:      Singlet-A      1.6719 eV  741.56 nm  f=0.2084  <S**2>=0.000
     310 -> 316        0.14373
     311 -> 313       -0.38032
     312 -> 314        0.57124
 This state for optimization and/or second-order correction.
 Total Energy, E(TD-HF/TD-DFT) =  -4069.75034910
 Copying the excited state density for this state as the 1-particle RhoCI density.

 Excited State   2:      Singlet-A      1.6828 eV  736.78 nm  f=0.5670  <S**2>=0.000
     309 -> 315        0.14701
     311 -> 313        0.57058
     312 -> 314        0.37995

 Excited State   3:      Singlet-A      2.1856 eV  567.28 nm  f=0.0559  <S**2>=0.000
     309 -> 313        0.14559
     310 -> 314        0.62608
     312 -> 316       -0.26557

 Excited State   4:      Singlet-A      2.1932 eV  565.32 nm  f=0.1369  <S**2>=0.000
     309 -> 313        0.62404
     310 -> 314       -0.14450
     311 -> 315       -0.27155

 Excited State   5:      Singlet-A      2.7367 eV  453.05 nm  f=0.0000  <S**2>=0.000
     312 -> 313        0.70702

 The electronic state is 1-A.
 Alpha  occ. eigenvalues --  -46.87908 -46.87587 -19.26429 -19.26297 -19.19168
 Alpha  occ. eigenvalues --  -19.19107 -19.18911 -19.18644 -19.18282 -19.17985
 Alpha  occ. eigenvalues --  -14.42564 -14.42422 -14.41553 -14.41286 -14.39514
 Alpha  occ. eigenvalues --  -14.39279 -14.38697 -14.38528 -10.39224 -10.39035
 Alpha  occ. eigenvalues --  -10.35545 -10.35322 -10.34504 -10.34162 -10.31832
 Alpha  occ. eigenvalues --  -10.31712 -10.31520 -10.31233 -10.31028 -10.30948
 Alpha  occ. eigenvalues --  -10.30681 -10.30612 -10.30327 -10.30304 -10.30289
 Alpha  occ. eigenvalues --  -10.30067 -10.30017 -10.29824 -10.29737 -10.29362
 Alpha  occ. eigenvalues --  -10.29361 -10.29332 -10.28884 -10.28711 -10.28645
 Alpha  occ. eigenvalues --  -10.28607 -10.28478 -10.28331 -10.28241 -10.28055
 Alpha  occ. eigenvalues --  -10.27929 -10.27901 -10.27839 -10.27692 -10.27599
 Alpha  occ. eigenvalues --  -10.27590 -10.27573 -10.27520 -10.27517 -10.27452
 Alpha  occ. eigenvalues --  -10.27411 -10.27396 -10.27393 -10.27308 -10.27280
 Alpha  occ. eigenvalues --  -10.26984 -10.26870 -10.26635 -10.26511 -10.26351
 Alpha  occ. eigenvalues --  -10.26346 -10.26237 -10.26119 -10.26081 -10.25936
 Alpha  occ. eigenvalues --  -10.25911 -10.25863 -10.25788 -10.25497 -10.25324
 Alpha  occ. eigenvalues --  -10.24942 -10.24889 -10.24801 -10.24733 -10.24679
 Alpha  occ. eigenvalues --  -10.24617  -3.16651  -3.16337  -1.91533  -1.91220
 Alpha  occ. eigenvalues --   -1.91119  -1.90961  -1.90808  -1.90645  -1.16778
 Alpha  occ. eigenvalues --   -1.16591  -1.08742  -1.08594  -1.07311  -1.06896
 Alpha  occ. eigenvalues --   -1.06891  -1.06788  -1.04695  -1.04421  -1.03866
 Alpha  occ. eigenvalues --   -1.03590  -1.03341  -1.02967  -1.02518  -1.02039
 Alpha  occ. eigenvalues --   -0.92086  -0.91916  -0.89608  -0.89427  -0.89316
 Alpha  occ. eigenvalues --   -0.89073  -0.88372  -0.88153  -0.87975  -0.87787
 Alpha  occ. eigenvalues --   -0.87725  -0.87611  -0.87382  -0.87050  -0.85107
 Alpha  occ. eigenvalues --   -0.84927  -0.84017  -0.83811  -0.83065  -0.82864
 Alpha  occ. eigenvalues --   -0.82767  -0.82582  -0.81709  -0.81534  -0.80712
 Alpha  occ. eigenvalues --   -0.80376  -0.78905  -0.78565  -0.77325  -0.77074
 Alpha  occ. eigenvalues --   -0.77052  -0.76832  -0.76042  -0.75765  -0.74987
 Alpha  occ. eigenvalues --   -0.74734  -0.72879  -0.72628  -0.71778  -0.71506
 Alpha  occ. eigenvalues --   -0.69980  -0.69694  -0.68993  -0.68756  -0.67751
 Alpha  occ. eigenvalues --   -0.67533  -0.67351  -0.67135  -0.65411  -0.65201
 Alpha  occ. eigenvalues --   -0.64966  -0.64733  -0.64701  -0.64586  -0.64360
 Alpha  occ. eigenvalues --   -0.64137  -0.62421  -0.62217  -0.60544  -0.60270
 Alpha  occ. eigenvalues --   -0.59926  -0.59721  -0.59094  -0.58922  -0.58612
 Alpha  occ. eigenvalues --   -0.58357  -0.57706  -0.57490  -0.57409  -0.57169
 Alpha  occ. eigenvalues --   -0.56419  -0.56135  -0.56111  -0.55826  -0.55629
 Alpha  occ. eigenvalues --   -0.55436  -0.55385  -0.55183  -0.54629  -0.54426
 Alpha  occ. eigenvalues --   -0.54024  -0.53838  -0.53404  -0.53341  -0.53159
 Alpha  occ. eigenvalues --   -0.53073  -0.53033  -0.52870  -0.52836  -0.52596
 Alpha  occ. eigenvalues --   -0.52509  -0.52341  -0.52016  -0.51819  -0.51744
 Alpha  occ. eigenvalues --   -0.51590  -0.51304  -0.51135  -0.50679  -0.50407
 Alpha  occ. eigenvalues --   -0.50117  -0.50024  -0.49906  -0.49798  -0.49631
 Alpha  occ. eigenvalues --   -0.49416  -0.49328  -0.49215  -0.49131  -0.49031
 Alpha  occ. eigenvalues --   -0.48709  -0.48554  -0.48551  -0.48488  -0.48309
 Alpha  occ. eigenvalues --   -0.48269  -0.47805  -0.47524  -0.47402  -0.47047
 Alpha  occ. eigenvalues --   -0.46901  -0.46683  -0.46640  -0.46482  -0.46464
 Alpha  occ. eigenvalues --   -0.46265  -0.46201  -0.46019  -0.45937  -0.45758
 Alpha  occ. eigenvalues --   -0.45287  -0.45139  -0.44691  -0.44615  -0.44447
 Alpha  occ. eigenvalues --   -0.44405  -0.44244  -0.44204  -0.44132  -0.44053
 Alpha  occ. eigenvalues --   -0.44013  -0.43871  -0.43613  -0.43496  -0.43492
 Alpha  occ. eigenvalues --   -0.43315  -0.43134  -0.42870  -0.42834  -0.42826
 Alpha  occ. eigenvalues --   -0.42742  -0.42487  -0.42107  -0.41900  -0.41813
 Alpha  occ. eigenvalues --   -0.41656  -0.41600  -0.41391  -0.41249  -0.40984
 Alpha  occ. eigenvalues --   -0.40931  -0.40913  -0.40660  -0.40654  -0.40629
 Alpha  occ. eigenvalues --   -0.40425  -0.40379  -0.40163  -0.39510  -0.39364
 Alpha  occ. eigenvalues --   -0.38560  -0.38282  -0.37887  -0.37591  -0.37414
 Alpha  occ. eigenvalues --   -0.37390  -0.37197  -0.37129  -0.36839  -0.36714
 Alpha  occ. eigenvalues --   -0.36304  -0.36151  -0.34395  -0.34182  -0.33911
 Alpha  occ. eigenvalues --   -0.33805  -0.33296  -0.33103  -0.31441  -0.31203
 Alpha  occ. eigenvalues --   -0.31144  -0.30900  -0.30143  -0.29890  -0.29558
 Alpha  occ. eigenvalues --   -0.29431  -0.29255  -0.29141  -0.24190  -0.23963
 Alpha  occ. eigenvalues --   -0.21235  -0.21044
 Alpha virt. eigenvalues --   -0.08882  -0.08719  -0.01855  -0.01611  -0.00167
 Alpha virt. eigenvalues --    0.00044   0.02093   0.02275   0.02986   0.03289
 Alpha virt. eigenvalues --    0.04597   0.04803   0.04958   0.05222   0.06030

 Mulliken charges:
               1
     1  Mg   0.838221
     2  C   -0.003265
     3  C   -0.094506
     4  C   -0.045659
     5  C   -0.063728
     6  N   -0.256798
     7  C   -0.052642
     8  C   -0.013951
     9  C   -0.086917
    10  C    0.046145
    11  C    0.104770
    12  C    0.053586
    13  C   -0.071579
    14  H    0.035326
    15  N   -0.433163
    16  C    0.168226
    17  C   -0.177391
    18  C   -0.004009
    19  C    0.148587
    20  C    0.110199
    21  C    0.012221
    22  O   -0.249089
    23  C    0.062582
    24  N   -0.341145
    25  C    0.041229
    26  C   -0.028268
    27  C   -0.024056
    28  C    0.074882
    29  C    0.076079
    30  C    0.035040
    31  C   -0.004558
    32  N   -0.310478
    33  C    0.080377
    34  C   -0.169591
    35  C    0.008371
    36  C    0.082885
    37  C    0.127305
    38  C    0.046065
    39  O   -0.188366
    40  C   -0.005302
    41  C    0.212940
    42  O   -0.257676
    43  O   -0.304595
    44  C    0.157768
    45  H   -0.017562
    46  H   -0.016453
    47  H   -0.041182
    48  H    0.001077
    49  H   -0.004265
    50  H    0.025595
    51  H    0.016656
    52  H    0.016758
    53  H    0.010650
    54  H    0.043655
    55  H    0.018319
    56  H    0.017841
    57  H    0.005784
    58  H    0.027129
    59  H    0.039019
    60  H    0.037463
    61  H    0.036071
    62  H    0.030826
    63  H    0.016953
    64  H    0.009620
    65  H    0.023559
    66  H    0.012498
    67  H    0.004907
    68  H    0.006779
    69  H    0.004786
    70  H    0.009258
    71  H    0.018596
    72  H    0.028420
    73  H    0.047585
    74  H    0.009354
    75  H    0.046186
    76  H    0.035329
    77  H    0.043223
    78  H    0.046261
    79  H    0.053237
    80  Mg   0.837918
    81  C   -0.016813
    82  C   -0.087695
    83  C   -0.045392
    84  C   -0.064880
    85  N   -0.254578
    86  C   -0.049814
    87  C   -0.015092
    88  C   -0.090487
    89  C    0.045704
    90  C    0.114227
    91  C    0.062569
    92  C   -0.077734
    93  H    0.034496
    94  N   -0.423560
    95  C    0.162861
    96  C   -0.174201
    97  C   -0.007767
    98  C    0.152198
    99  C    0.099186
   100  C    0.015697
   101  O   -0.253082
   102  C    0.061164
   103  N   -0.350034
   104  C    0.037617
   105  C   -0.019893
   106  C   -0.034780
   107  C    0.088924
   108  C    0.073583
   109  C    0.034769
   110  C   -0.007647
   111  N   -0.324097
   112  C    0.078418
   113  C   -0.163221
   114  C    0.002229
   115  C    0.096115
   116  C    0.131507
   117  C    0.042319
   118  O   -0.188076
   119  C    0.000893
   120  C    0.211228
   121  O   -0.251162
   122  O   -0.305553
   123  C    0.152098
   124  H   -0.019079
   125  H   -0.015528
   126  H   -0.040585
   127  H   -0.000614
   128  H   -0.004533
   129  H    0.022471
   130  H    0.015106
   131  H    0.016740
   132  H    0.013745
   133  H    0.037545
   134  H    0.020916
   135  H    0.019423
   136  H    0.008905
   137  H    0.026810
   138  H    0.039137
   139  H    0.038502
   140  H    0.036452
   141  H    0.033403
   142  H    0.014278
   143  H    0.012437
   144  H    0.025015
   145  H    0.012043
   146  H    0.005675
   147  H    0.006160
   148  H    0.003557
   149  H    0.010882
   150  H    0.017756
   151  H    0.030125
   152  H    0.045829
   153  H    0.008397
   154  H    0.046990
   155  H    0.035160
   156  H    0.043832
   157  H    0.049442
   158  H    0.053441
 Sum of Mulliken charges =  -0.00000

 Dipole moment (field-independent basis, Debye):
    X=              6.3314    Y=              1.5220    Z=              4.8099  Tot=              8.0955
 Quadrupole moment (field-independent basis, Debye-Ang):
   XX=           -562.5688   YY=           -498.3125   ZZ=           -491.6805
   XY=             16.0030   XZ=             31.3775   YZ=             56.4353

 Normal termination of Gaussian 16 at Sun Sep 12 07:22:57 2021.
