 Gaussian 16, Revision A.03,
 Gaussian 16:  ES64L-G16RevA.03 25-Dec-2016

 -----------------------------------
 #p cam-b3lyp/Def2SVP td=(nstates=5)
 -----------------------------------

 --------------------------------
 TDDFT excited states in gaussian
 --------------------------------
 Symbolic Z-matrix:
 Charge =  0 Multiplicity = 1

                         Standard orientation:
 ---------------------------------------------------------------------
 Center     Atomic      Atomic             Coordinates (Angstroms)
 Number     Number       Type             X           Y           Z
 ---------------------------------------------------------------------
      1         12           0        7.798801    0.932605    0.186621
      2          6           0        8.431217   -2.578146   -0.108156
      3          6           0        8.680094    1.215920   -3.097602
      4          6           0        7.686896    4.081997    0.540781
      5          6           0        8.073473    0.542306    3.638850
      6          7           0        8.452138   -0.564250   -1.307776
      7          6           0        8.595840   -1.885808   -1.309909
      8          6           0        8.864017   -2.475821   -2.726715
      9          6           0        9.472683   -1.179797   -3.428034
     10          6           0        8.801925   -0.109710   -2.584871
     11          6           0       10.984480   -1.054331   -3.269200
     12          6           0        7.548346   -2.945420   -3.433976
     13          6           0        7.749852   -3.824730   -4.671539
     14          1           0        6.798571   -4.894320   -4.933055
     15          7           0        7.658686    2.369351   -1.162074
     16          6           0        8.051851    2.305748   -2.456934
     17          6           0        7.737161    3.626084   -3.043759
     18          6           0        7.304168    4.524207   -1.937420
     19          6           0        7.560970    3.691443   -0.790278
     20          6           0        7.812756    3.913083   -4.511978
     21          6           0        6.757157    5.916499   -1.916576
     22          8           0        6.664401    6.594739   -0.836779
     23          6           0        6.410588    6.505769   -3.222598
     24          7           0        8.086225    2.187940    1.829532
     25          6           0        7.921565    3.511101    1.724105
     26          6           0        7.900115    4.167813    3.072514
     27          6           0        7.841238    2.982356    4.140680
     28          6           0        7.926279    1.781968    3.165946
     29          6           0        9.090996    5.082547    3.390439
     30          6           0        6.681572    3.017973    5.167484
     31          6           0        5.363627    2.791477    4.461213
     32          7           0        8.006330   -0.732594    1.563244
     33          6           0        8.125114   -0.663021    2.958853
     34          6           0        8.351329   -2.037526    3.442205
     35          6           0        8.365048   -2.814060    2.285203
     36          6           0        8.186585   -1.974190    1.148953
     37          6           0        8.570316   -2.419692    4.795138
     38          6           0        8.513568   -4.154760    1.742688
     39          8           0        8.595520   -5.283212    2.229897
     40          6           0        8.684157   -4.040244    0.163571
     41          6           0        7.757478   -5.043329   -0.467616
     42          8           0        6.519329   -4.912206   -0.383010
     43          8           0        8.462813   -5.859482   -1.265701
     44          6           0        7.598498   -6.860619   -1.946022
     45          1           0        9.158715    1.460337   -4.047930
     46          1           0        7.543504    5.149965    0.717754
     47          1           0        8.084072    0.332359    4.709954
     48          1           0        9.590721   -3.288071   -2.750701
     49          1           0        9.158847   -1.094654   -4.468216
     50          1           0       11.377672   -1.809786   -2.589046
     51          1           0       11.152949   -0.055201   -2.866893
     52          1           0       11.478951   -1.073445   -4.240751
     53          1           0        7.061318   -2.085856   -3.894426
     54          1           0        6.893800   -3.459418   -2.729206
     55          1           0        8.772037   -4.199399   -4.732117
     56          1           0        7.637768   -3.198997   -5.557031
     57          1           0        8.319007    3.113175   -5.050867
     58          1           0        8.464608    4.777871   -4.634211
     59          1           0        6.833087    4.127878   -4.939111
     60          1           0        7.297781    6.524171   -3.855921
     61          1           0        5.952180    7.469884   -3.005355
     62          1           0        5.690425    5.857422   -3.722558
     63          1           0        7.017938    4.796295    3.187404
     64          1           0        8.740205    2.941386    4.756191
     65          1           0        8.803367    6.102008    3.648651
     66          1           0        9.763068    5.071150    2.532837
     67          1           0        9.745499    4.721821    4.183484
     68          1           0        6.626433    3.996453    5.643387
     69          1           0        6.781180    2.271161    5.955267
     70          1           0        5.109095    3.785817    4.096064
     71          1           0        4.612588    2.429646    5.164228
     72          1           0        5.484064    2.145781    3.591122
     73          1           0        7.973718   -3.317011    4.959021
     74          1           0        8.285383   -1.623546    5.482573
     75          1           0        9.645728   -2.596356    4.783528
     76          1           0        9.729784   -4.254620   -0.055126
     77          1           0        7.997632   -7.845907   -1.704915
     78          1           0        7.560046   -6.573595   -2.996995
     79          1           0        6.579495   -6.953408   -1.568712
     80         12           0       -7.968120   -0.973858    0.030233
     81          6           0       -8.178341    2.536308   -0.686411
     82          6           0       -7.221253   -0.120237    3.247080
     83          6           0       -7.334284   -4.032072    0.589700
     84          6           0       -7.598593   -1.509275   -3.393581
     85          7           0       -7.756989    0.988058    1.029520
     86          6           0       -7.920474    2.252592    0.670958
     87          6           0       -7.880468    3.264932    1.847021
     88          6           0       -7.020240    2.393064    2.885643
     89          6           0       -7.377165    0.994828    2.385438
     90          6           0       -5.520324    2.585613    2.735500
     91          6           0       -9.309880    3.583584    2.410286
     92          6           0       -9.377045    4.790752    3.348360
     93          1           0      -10.568449    5.634418    3.312808
     94          7           0       -7.849112   -1.968179    1.743636
     95          6           0       -7.557632   -1.461415    2.959982
     96          6           0       -7.574493   -2.604022    3.886445
     97          6           0       -7.737339   -3.850907    3.090525
     98          6           0       -7.623189   -3.322231    1.746075
     99          6           0       -7.523061   -2.442998    5.378040
    100          6           0       -7.946713   -5.284015    3.475971
    101          8           0       -7.823612   -6.234938    2.625429
    102          6           0       -8.208171   -5.548875    4.898284
    103          7           0       -7.318882   -2.525661   -1.191546
    104          6           0       -7.173173   -3.771746   -0.707835
    105          6           0       -6.965917   -4.768915   -1.822774
    106          6           0       -7.245243   -3.964215   -3.176289
    107          6           0       -7.489202   -2.557025   -2.588337
    108          6           0       -5.581339   -5.412937   -1.890394
    109          6           0       -8.308872   -4.556924   -4.140702
    110          6           0       -9.680328   -4.474457   -3.510075
    111          7           0       -8.080957    0.238297   -1.754697
    112          6           0       -7.867556   -0.181723   -3.085913
    113          6           0       -7.939907    1.022084   -3.939166
    114          6           0       -8.169325    2.070472   -3.035431
    115          6           0       -8.215170    1.559085   -1.710329
    116          6           0       -7.752788    1.054312   -5.349863
    117          6           0       -8.372542    3.494931   -2.900077
    118          8           0       -8.519962    4.429942   -3.686064
    119          6           0       -8.261398    3.877291   -1.361298
    120          6           0       -9.427055    4.763640   -1.017567
    121          8           0      -10.589395    4.323217   -1.057734
    122          8           0       -8.966436    5.913121   -0.491359
    123          6           0      -10.085768    6.820909   -0.124161
    124          1           0       -6.758354    0.037837    4.221566
    125          1           0       -7.216934   -5.110899    0.715604
    126          1           0       -7.591334   -1.605774   -4.481374
    127          1           0       -7.368860    4.194680    1.628868
    128          1           0       -7.370320    2.534304    3.904879
    129          1           0       -5.275848    3.189033    1.873959
    130          1           0       -5.105116    1.591726    2.631416
    131          1           0       -5.098350    2.993387    3.658533
    132          1           0       -9.606020    2.788135    3.106207
    133          1           0      -10.015325    3.706849    1.611670
    134          1           0       -8.469696    5.404671    3.295707
    135          1           0       -9.396158    4.428578    4.379129
    136          1           0       -7.238545   -1.422556    5.662894
    137          1           0       -6.697306   -3.065881    5.738602
    138          1           0       -8.445749   -2.761049    5.868095
    139          1           0       -7.378201   -5.175799    5.493620
    140          1           0       -8.419593   -6.618025    4.962395
    141          1           0       -9.094281   -4.980823    5.202814
    142          1           0       -7.673010   -5.585877   -1.747330
    143          1           0       -6.342753   -3.891706   -3.800861
    144          1           0       -5.611166   -6.517912   -1.843372
    145          1           0       -4.979667   -5.014145   -1.084480
    146          1           0       -4.993160   -5.152283   -2.768633
    147          1           0       -8.111457   -5.617204   -4.316744
    148          1           0       -8.333452   -4.068771   -5.109249
    149          1           0       -9.711847   -5.361951   -2.870985
    150          1           0      -10.455479   -4.509676   -4.272927
    151          1           0       -9.761975   -3.596333   -2.859011
    152          1           0       -8.523073    1.699213   -5.751443
    153          1           0       -7.804109    0.056528   -5.780626
    154          1           0       -6.744328    1.473133   -5.403331
    155          1           0       -7.305976    4.383353   -1.217668
    156          1           0       -9.909568    7.770087   -0.639614
    157          1           0      -10.101500    6.843609    0.981725
    158          1           0      -11.076094    6.566039   -0.482979
 ---------------------------------------------------------------------

 SCF Done:  E(RCAM-B3LYP) =  -4069.81180281     A.U. after   19 cycles

 Excitation energies and oscillator strengths:

 Excited State   1:      Singlet-A      1.6702 eV  742.32 nm  f=0.0314  <S**2>=0.000
     309 -> 315        0.10189
     310 -> 316        0.13934
     311 -> 313        0.40409
     312 -> 314        0.55479
 This state for optimization and/or second-order correction.
 Total Energy, E(TD-HF/TD-DFT) =  -4069.75042327
 Copying the excited state density for this state as the 1-particle RhoCI density.

 Excited State   2:      Singlet-A      1.6852 eV  735.71 nm  f=0.7250  <S**2>=0.000
     309 -> 315        0.14299
     310 -> 316       -0.10367
     311 -> 313        0.55397
     312 -> 314       -0.40357

 Excited State   3:      Singlet-A      2.1858 eV  567.23 nm  f=0.0586  <S**2>=0.000
     309 -> 313        0.14115
     310 -> 314        0.62709
     312 -> 316       -0.26607

 Excited State   4:      Singlet-A      2.1932 eV  565.31 nm  f=0.1348  <S**2>=0.000
     309 -> 313        0.62503
     310 -> 314       -0.14009
     311 -> 315       -0.27184

 Excited State   5:      Singlet-A      2.7661 eV  448.23 nm  f=0.0000  <S**2>=0.000
     312 -> 313        0.70710

 The electronic state is 1-A.
 Alpha  occ. eigenvalues --  -46.87835 -46.87590 -19.26310 -19.26305 -19.19114
 Alpha  occ. eigenvalues --  -19.19049 -19.18841 -19.18633 -19.18203 -19.17996
 Alpha  occ. eigenvalues --  -14.42486 -14.42427 -14.41491 -14.41288 -14.39439
 Alpha  occ. eigenvalues --  -14.39281 -14.38625 -14.38533 -10.39109 -10.39043
 Alpha  occ. eigenvalues --  -10.35473 -10.35310 -10.34423 -10.34174 -10.31718
 Alpha  occ. eigenvalues --  -10.31701 -10.31441 -10.31244 -10.30951 -10.30941
 Alpha  occ. eigenvalues --  -10.30607 -10.30547 -10.30330 -10.30297 -10.30249
 Alpha  occ. eigenvalues --  -10.30066 -10.29965 -10.29825 -10.29667 -10.29364
 Alpha  occ. eigenvalues --  -10.29334 -10.29290 -10.28777 -10.28654 -10.28603
 Alpha  occ. eigenvalues --  -10.28560 -10.28399 -10.28335 -10.28144 -10.28071
 Alpha  occ. eigenvalues --  -10.27935 -10.27828 -10.27762 -10.27618 -10.27598
 Alpha  occ. eigenvalues --  -10.27560 -10.27504 -10.27499 -10.27447 -10.27439
 Alpha  occ. eigenvalues --  -10.27415 -10.27396 -10.27386 -10.27296 -10.27190
 Alpha  occ. eigenvalues --  -10.26994 -10.26730 -10.26635 -10.26419 -10.26328
 Alpha  occ. eigenvalues --  -10.26264 -10.26259 -10.26081 -10.26063 -10.25945
 Alpha  occ. eigenvalues --  -10.25890 -10.25867 -10.25811 -10.25485 -10.25293
 Alpha  occ. eigenvalues --  -10.24868 -10.24828 -10.24808 -10.24782 -10.24678
 Alpha  occ. eigenvalues --  -10.24616  -3.16578  -3.16340  -1.91460  -1.91222
 Alpha  occ. eigenvalues --   -1.91046  -1.90888  -1.90811  -1.90648  -1.16660
 Alpha  occ. eigenvalues --   -1.16598  -1.08660  -1.08605  -1.07242  -1.06899
 Alpha  occ. eigenvalues --   -1.06884  -1.06671  -1.04616  -1.04426  -1.03800
 Alpha  occ. eigenvalues --   -1.03593  -1.03272  -1.02969  -1.02450  -1.02042
 Alpha  occ. eigenvalues --   -0.92007  -0.91923  -0.89572  -0.89427  -0.89217
 Alpha  occ. eigenvalues --   -0.89084  -0.88338  -0.88148  -0.87909  -0.87736
 Alpha  occ. eigenvalues --   -0.87709  -0.87615  -0.87301  -0.87045  -0.85013
 Alpha  occ. eigenvalues --   -0.84933  -0.83992  -0.83806  -0.82997  -0.82854
 Alpha  occ. eigenvalues --   -0.82679  -0.82584  -0.81619  -0.81540  -0.80630
 Alpha  occ. eigenvalues --   -0.80379  -0.78829  -0.78566  -0.77259  -0.77078
 Alpha  occ. eigenvalues --   -0.76970  -0.76835  -0.75955  -0.75775  -0.74944
 Alpha  occ. eigenvalues --   -0.74727  -0.72814  -0.72634  -0.71709  -0.71509
 Alpha  occ. eigenvalues --   -0.69970  -0.69691  -0.68905  -0.68761  -0.67676
 Alpha  occ. eigenvalues --   -0.67534  -0.67247  -0.67134  -0.65319  -0.65208
 Alpha  occ. eigenvalues --   -0.64891  -0.64705  -0.64659  -0.64590  -0.64318
 Alpha  occ. eigenvalues --   -0.64136  -0.62332  -0.62222  -0.60476  -0.60266
 Alpha  occ. eigenvalues --   -0.59836  -0.59730  -0.59026  -0.58925  -0.58541
 Alpha  occ. eigenvalues --   -0.58360  -0.57618  -0.57499  -0.57349  -0.57168
 Alpha  occ. eigenvalues --   -0.56344  -0.56141  -0.56008  -0.55830  -0.55551
 Alpha  occ. eigenvalues --   -0.55386  -0.55386  -0.55183  -0.54567  -0.54426
 Alpha  occ. eigenvalues --   -0.53924  -0.53846  -0.53335  -0.53250  -0.53161
 Alpha  occ. eigenvalues --   -0.53076  -0.52951  -0.52840  -0.52781  -0.52591
 Alpha  occ. eigenvalues --   -0.52504  -0.52341  -0.51956  -0.51836  -0.51644
 Alpha  occ. eigenvalues --   -0.51592  -0.51236  -0.51141  -0.50595  -0.50396
 Alpha  occ. eigenvalues --   -0.50082  -0.49947  -0.49907  -0.49792  -0.49543
 Alpha  occ. eigenvalues --   -0.49417  -0.49247  -0.49137  -0.49126  -0.49041
 Alpha  occ. eigenvalues --   -0.48627  -0.48504  -0.48497  -0.48474  -0.48305
 Alpha  occ. eigenvalues --   -0.48264  -0.47729  -0.47526  -0.47330  -0.47045
 Alpha  occ. eigenvalues --   -0.46839  -0.46643  -0.46584  -0.46487  -0.46398
 Alpha  occ. eigenvalues --   -0.46203  -0.46203  -0.46021  -0.45858  -0.45767
 Alpha  occ. eigenvalues --   -0.45249  -0.45130  -0.44614  -0.44540  -0.44454
 Alpha  occ. eigenvalues --   -0.44410  -0.44188  -0.44119  -0.44061  -0.44049
 Alpha  occ. eigenvalues --   -0.44011  -0.43871  -0.43530  -0.43497  -0.43423
 Alpha  occ. eigenvalues --   -0.43319  -0.43065  -0.42875  -0.42839  -0.42741
 Alpha  occ. eigenvalues --   -0.42701  -0.42484  -0.42059  -0.41901  -0.41741
 Alpha  occ. eigenvalues --   -0.41605  -0.41566  -0.41394  -0.41177  -0.40918
 Alpha  occ. eigenvalues --   -0.40908  -0.40850  -0.40652  -0.40627  -0.40620
 Alpha  occ. eigenvalues --   -0.40424  -0.40260  -0.40162  -0.39509  -0.39361
 Alpha  occ. eigenvalues --   -0.38518  -0.38278  -0.37778  -0.37592  -0.37367
 Alpha  occ. eigenvalues --   -0.37295  -0.37198  -0.37133  -0.36749  -0.36719
 Alpha  occ. eigenvalues --   -0.36232  -0.36151  -0.34324  -0.34186  -0.33811
 Alpha  occ. eigenvalues --   -0.33801  -0.33224  -0.33107  -0.31372  -0.31192
 Alpha  occ. eigenvalues --   -0.31072  -0.30903  -0.30062  -0.29902  -0.29483
 Alpha  occ. eigenvalues --   -0.29358  -0.29256  -0.29147  -0.24118  -0.23967
 Alpha  occ. eigenvalues --   -0.21165  -0.21047
 Alpha virt. eigenvalues --   -0.08810  -0.08723  -0.01788  -0.01612  -0.00088
 Alpha virt. eigenvalues --    0.00045   0.02163   0.02269   0.03074   0.03290
 Alpha virt. eigenvalues --    0.04684   0.04799   0.05069   0.05215   0.06150

 Mulliken charges:
               1
     1  Mg   0.838599
     2  C   -0.002934
     3  C   -0.093967
     4  C   -0.045939
     5  C   -0.064093
     6  N   -0.256771
     7  C   -0.052470
     8  C   -0.014019
     9  C   -0.087023
    10  C    0.046319
    11  C    0.104785
    12  C    0.053440
    13  C   -0.071842
    14  H    0.036135
    15  N   -0.433178
    16  C    0.168418
    17  C   -0.176987
    18  C   -0.003943
    19  C    0.148724
    20  C    0.110120
    21  C    0.012324
    22  O   -0.249702
    23  C    0.062435
    24  N   -0.341095
    25  C    0.041246
    26  C   -0.028198
    27  C   -0.023903
    28  C    0.074738
    29  C    0.076156
    30  C    0.035197
    31  C   -0.004421
    32  N   -0.310436
    33  C    0.080287
    34  C   -0.169895
    35  C    0.008372
    36  C    0.082881
    37  C    0.127354
    38  C    0.046079
    39  O   -0.188421
    40  C   -0.005299
    41  C    0.212890
    42  O   -0.257152
    43  O   -0.304775
    44  C    0.157669
    45  H   -0.017417
    46  H   -0.016865
    47  H   -0.041720
    48  H    0.000999
    49  H   -0.003901
    50  H    0.025495
    51  H    0.016447
    52  H    0.016795
    53  H    0.011232
    54  H    0.044071
    55  H    0.017932
    56  H    0.018047
    57  H    0.005972
    58  H    0.026977
    59  H    0.039872
    60  H    0.037440
    61  H    0.035862
    62  H    0.031735
    63  H    0.016368
    64  H    0.009483
    65  H    0.023175
    66  H    0.012721
    67  H    0.004751
    68  H    0.006205
    69  H    0.004587
    70  H    0.008680
    71  H    0.017407
    72  H    0.029188
    73  H    0.047454
    74  H    0.008855
    75  H    0.046066
    76  H    0.035219
    77  H    0.043025
    78  H    0.046434
    79  H    0.053704
    80  Mg   0.837953
    81  C   -0.016887
    82  C   -0.087695
    83  C   -0.045250
    84  C   -0.064848
    85  N   -0.254573
    86  C   -0.049883
    87  C   -0.015095
    88  C   -0.090524
    89  C    0.045813
    90  C    0.114317
    91  C    0.062534
    92  C   -0.077820
    93  H    0.034660
    94  N   -0.423598
    95  C    0.163046
    96  C   -0.174323
    97  C   -0.007555
    98  C    0.152206
    99  C    0.099236
   100  C    0.015758
   101  O   -0.252943
   102  C    0.061166
   103  N   -0.350038
   104  C    0.037715
   105  C   -0.019961
   106  C   -0.034670
   107  C    0.088873
   108  C    0.073457
   109  C    0.034752
   110  C   -0.007633
   111  N   -0.324034
   112  C    0.078365
   113  C   -0.163345
   114  C    0.002120
   115  C    0.096148
   116  C    0.131524
   117  C    0.042189
   118  O   -0.188332
   119  C    0.000978
   120  C    0.211207
   121  O   -0.251105
   122  O   -0.305606
   123  C    0.152092
   124  H   -0.019466
   125  H   -0.015283
   126  H   -0.040768
   127  H   -0.000690
   128  H   -0.004414
   129  H    0.022493
   130  H    0.014850
   131  H    0.016307
   132  H    0.013887
   133  H    0.037575
   134  H    0.020813
   135  H    0.019574
   136  H    0.008751
   137  H    0.026650
   138  H    0.039713
   139  H    0.038568
   140  H    0.036482
   141  H    0.033677
   142  H    0.014308
   143  H    0.012330
   144  H    0.025248
   145  H    0.012494
   146  H    0.005737
   147  H    0.006211
   148  H    0.003350
   149  H    0.010977
   150  H    0.017681
   151  H    0.030123
   152  H    0.045748
   153  H    0.008326
   154  H    0.046615
   155  H    0.034985
   156  H    0.043761
   157  H    0.049524
   158  H    0.053470
 Sum of Mulliken charges =  -0.00000

 Dipole moment (field-independent basis, Debye):
    X=              3.8747    Y=              1.6590    Z=              0.2992  Tot=              4.2255
 Quadrupole moment (field-independent basis, Debye-Ang):
   XX=           -521.2653   YY=           -548.3198   ZZ=           -449.4369
   XY=             23.2677   XZ=            -69.5664   YZ=             44.4736

 Normal termination of Gaussian 16 at Sat Sep 11 23:07:42 2021.
