 Gaussian 16, Revision A.03,
 Gaussian 16:  ES64L-G16RevA.03 25-Dec-2016

 -----------------------------------
 #p cam-b3lyp/Def2SVP td=(nstates=5)
 -----------------------------------

 --------------------------------
 TDDFT excited states in gaussian
 --------------------------------
 Symbolic Z-matrix:
 Charge =  0 Multiplicity = 1

                         Standard orientation:
 ---------------------------------------------------------------------
 Center     Atomic      Atomic             Coordinates (Angstroms)
 Number     Number       Type             X           Y           Z
 ---------------------------------------------------------------------
      1         12           0        4.394696    0.562505    1.384696
      2          6           0        5.289466   -2.366931   -0.467330
      3          6           0        6.042478    2.382678   -0.984871
      4          6           0        4.010243    3.111698    3.231432
      5          6           0        3.829649   -1.519950    4.121439
      6          7           0        5.485859   -0.031048   -0.447708
      7          6           0        5.704505   -1.181148   -1.077498
      8          6           0        6.349689   -1.002238   -2.484304
      9          6           0        7.034187    0.421392   -2.268115
     10          6           0        6.112844    0.973396   -1.194642
     11          6           0        8.449383    0.337820   -1.705320
     12          6           0        5.280445   -0.956168   -3.627251
     13          6           0        5.834137   -1.111529   -5.046632
     14          1           0        5.042943   -1.833101   -6.031870
     15          7           0        4.506802    2.486799    0.951828
     16          6           0        5.211162    3.049749   -0.059237
     17          6           0        4.972936    4.505838    0.039425
     18          6           0        4.226719    4.760234    1.302967
     19          6           0        4.241145    3.449205    1.899937
     20          6           0        5.392076    5.481609   -1.016956
     21          6           0        3.609183    5.992028    1.885601
     22          8           0        3.211731    6.044622    3.099619
     23          6           0        3.561834    7.179004    1.012738
     24          7           0        4.191030    0.803427    3.448215
     25          6           0        3.978631    2.010221    3.984423
     26          6           0        3.584974    1.904696    5.427973
     27          6           0        3.334779    0.352253    5.705603
     28          6           0        3.730050   -0.202872    4.314967
     29          6           0        4.603196    2.446615    6.440672
     30          6           0        1.957155   -0.043866    6.293531
     31          6           0        0.870909    0.211671    5.272812
     32          7           0        4.354555   -1.577910    1.742546
     33          6           0        4.120001   -2.224142    2.964857
     34          6           0        4.301508   -3.668687    2.731588
     35          6           0        4.647513   -3.761643    1.384932
     36          6           0        4.705725   -2.455754    0.819638
     37          6           0        4.201468   -4.690888    3.716236
     38          6           0        5.005649   -4.658572    0.298141
     39          8           0        5.031954   -5.881973    0.156398
     40          6           0        5.554418   -3.783298   -0.913706
     41          6           0        4.874486   -4.264569   -2.166455
     42          8           0        3.648333   -4.101581   -2.331834
     43          8           0        5.802907   -4.622533   -3.066698
     44          6           0        5.195322   -5.082210   -4.344075
     45          1           0        6.725798    3.032910   -1.534612
     46          1           0        3.763831    3.955558    3.879212
     47          1           0        3.587492   -2.237186    4.907814
     48          1           0        7.107037   -1.745269   -2.734809
     49          1           0        6.982919    1.038033   -3.165248
     50          1           0        8.706605   -0.683269   -1.424010
     51          1           0        8.452937    0.986466   -0.829112
     52          1           0        9.169063    0.770057   -2.401026
     53          1           0        4.871890    0.051953   -3.696796
     54          1           0        4.503889   -1.703240   -3.459416
     55          1           0        6.860080   -1.480633   -5.036060
     56          1           0        5.907331   -0.120686   -5.495042
     57          1           0        6.062875    5.022945   -1.742353
     58          1           0        6.000905    6.240490   -0.525900
     59          1           0        4.537477    5.953309   -1.502232
     60          1           0        4.575382    7.445376    0.712211
     61          1           0        3.007040    7.936553    1.565162
     62          1           0        3.027906    6.922921    0.097156
     63          1           0        2.665790    2.455277    5.623899
     64          1           0        4.054320   -0.057575    6.414810
     65          1           0        4.200105    3.218747    7.096442
     66          1           0        5.465976    2.815354    5.886657
     67          1           0        5.061554    1.690311    7.077327
     68          1           0        1.727497    0.566816    7.166040
     69          1           0        1.903320   -1.089441    6.597054
     70          1           0        0.655542    1.271178    5.406586
     71          1           0       -0.007642   -0.396028    5.492041
     72          1           0        1.241301    0.080305    4.255936
     73          1           0        3.637717   -5.502767    3.256883
     74          1           0        3.708174   -4.326170    4.616927
     75          1           0        5.254912   -4.917549    3.879748
     76          1           0        6.632549   -3.936799   -0.948266
     77          1           0        5.580673   -6.082675   -4.541074
     78          1           0        5.400947   -4.306446   -5.081851
     79          1           0        4.122097   -5.275030   -4.325468
     80         12           0       -4.152732    0.344692   -1.399533
     81          6           0       -6.108038   -1.692112    0.815701
     82          6           0       -6.292918    2.905074   -0.693381
     83          6           0       -2.728570    2.031817   -3.678302
     84          6           0       -2.900860   -2.600887   -2.778705
     85          7           0       -5.932250    0.467699   -0.091688
     86          6           0       -6.544532   -0.352538    0.748948
     87          6           0       -7.637101    0.319979    1.622773
     88          6           0       -7.978357    1.563773    0.666004
     89          6           0       -6.642947    1.683040   -0.065508
     90          6           0       -9.058217    1.256675   -0.358167
     91          6           0       -7.082220    0.798030    3.010428
     92          6           0       -8.153385    1.181928    4.033660
     93          1           0       -7.906885    0.888411    5.442766
     94          7           0       -4.142613    2.301042   -1.732972
     95          6           0       -5.080302    3.195551   -1.356342
     96          6           0       -4.618177    4.498611   -1.858981
     97          6           0       -3.414402    4.274943   -2.704921
     98          6           0       -3.393647    2.826826   -2.756259
     99          6           0       -5.257397    5.797341   -1.461357
    100          6           0       -2.449901    5.209880   -3.369645
    101          8           0       -1.615772    4.800928   -4.252706
    102          6           0       -2.573715    6.633693   -3.024803
    103          7           0       -3.146470   -0.198315   -3.135883
    104          6           0       -2.576347    0.730299   -3.923645
    105          6           0       -1.679439    0.092372   -4.957568
    106          6           0       -1.576434   -1.449182   -4.544570
    107          6           0       -2.545712   -1.454331   -3.342128
    108          6           0       -2.153343    0.200148   -6.406775
    109          6           0       -0.149883   -2.030918   -4.346538
    110          6           0        0.500900   -1.401017   -3.136125
    111          7           0       -4.288014   -1.764026   -0.948923
    112          6           0       -3.706930   -2.829516   -1.670835
    113          6           0       -4.174611   -4.084298   -1.046944
    114          6           0       -5.020317   -3.658723   -0.011483
    115          6           0       -5.091719   -2.239452   -0.004212
    116          6           0       -3.850272   -5.400491   -1.481156
    117          6           0       -5.877255   -4.087715    1.070331
    118          8           0       -6.138432   -5.169508    1.594975
    119          6           0       -6.719329   -2.837359    1.574229
    120          6           0       -6.644998   -2.802105    3.076135
    121          8           0       -5.562224   -2.591828    3.650602
    122          8           0       -7.892882   -2.805236    3.579273
    123          6           0       -7.871568   -2.759887    5.065646
    124          1           0       -7.032455    3.705913   -0.718517
    125          1           0       -2.131370    2.568135   -4.419374
    126          1           0       -2.478521   -3.559127   -3.088656
    127          1           0       -8.524480   -0.280691    1.782491
    128          1           0       -8.178595    2.462760    1.243141
    129          1           0       -9.335414    0.213004   -0.350760
    130          1           0       -8.639724    1.530189   -1.317906
    131          1           0       -9.919356    1.913802   -0.206578
    132          1           0       -6.587532    1.769494    2.882825
    133          1           0       -6.426503    0.061617    3.432741
    134          1           0       -9.150256    0.833611    3.737232
    135          1           0       -8.243683    2.270781    4.049580
    136          1           0       -6.221278    5.635366   -0.963256
    137          1           0       -5.514973    6.323530   -2.386904
    138          1           0       -4.593046    6.429668   -0.868496
    139          1           0       -3.574944    6.979169   -3.271093
    140          1           0       -1.742715    7.130001   -3.529772
    141          1           0       -2.461296    6.742051   -1.940259
    142          1           0       -0.688872    0.529726   -4.932939
    143          1           0       -2.019084   -2.105942   -5.307832
    144          1           0       -1.414100    0.683764   -7.072904
    145          1           0       -3.089442    0.742425   -6.420348
    146          1           0       -2.426517   -0.744075   -6.874752
    147          1           0        0.482268   -1.783424   -5.202858
    148          1           0       -0.134950   -3.110105   -4.236449
    149          1           0        0.899027   -0.461476   -3.530916
    150          1           0        1.296677   -2.037433   -2.754344
    151          1           0       -0.245935   -1.148388   -2.374503
    152          1           0       -3.630712   -5.976427   -0.592006
    153          1           0       -3.008546   -5.395615   -2.170531
    154          1           0       -4.784637   -5.678365   -1.976145
    155          1           0       -7.742080   -2.966086    1.217866
    156          1           0       -8.448626   -3.619676    5.419829
    157          1           0       -8.245208   -1.755250    5.339261
    158          1           0       -6.920800   -2.925752    5.558557
 ---------------------------------------------------------------------

 SCF Done:  E(RCAM-B3LYP) =  -4069.81399867     A.U. after   19 cycles

 Excitation energies and oscillator strengths:

 Excited State   1:      Singlet-A      1.6455 eV  753.47 nm  f=0.0042  <S**2>=0.000
     309 -> 315       -0.11259
     310 -> 316        0.12223
     311 -> 313       -0.46398
     312 -> 314        0.50768
 This state for optimization and/or second-order correction.
 Total Energy, E(TD-HF/TD-DFT) =  -4069.75352708
 Copying the excited state density for this state as the 1-particle RhoCI density.

 Excited State   2:      Singlet-A      1.7021 eV  728.40 nm  f=0.6986  <S**2>=0.000
     309 -> 315        0.13396
     310 -> 316        0.12144
     311 -> 313        0.50511
     312 -> 314        0.46165

 Excited State   3:      Singlet-A      2.1809 eV  568.50 nm  f=0.0366  <S**2>=0.000
     309 -> 313        0.26006
     310 -> 314        0.58980
     311 -> 315       -0.10740
     312 -> 316       -0.24596

 Excited State   4:      Singlet-A      2.1951 eV  564.81 nm  f=0.1456  <S**2>=0.000
     309 -> 313        0.58570
     310 -> 314       -0.25645
     311 -> 315       -0.25664
     312 -> 316        0.11433

 Excited State   5:      Singlet-A      2.4423 eV  507.65 nm  f=0.0000  <S**2>=0.000
     312 -> 313        0.70695

 The electronic state is 1-A.
 Alpha  occ. eigenvalues --  -46.87660 -46.87407 -19.26480 -19.26211 -19.19316
 Alpha  occ. eigenvalues --  -19.19010 -19.18706 -19.18581 -19.18105 -19.17839
 Alpha  occ. eigenvalues --  -14.42326 -14.42256 -14.41310 -14.41081 -14.39267
 Alpha  occ. eigenvalues --  -14.39111 -14.38455 -14.38341 -10.39309 -10.38934
 Alpha  occ. eigenvalues --  -10.35340 -10.35266 -10.34336 -10.34016 -10.31864
 Alpha  occ. eigenvalues --  -10.31647 -10.31293 -10.31058 -10.30819 -10.30817
 Alpha  occ. eigenvalues --  -10.30439 -10.30375 -10.30138 -10.30093 -10.30046
 Alpha  occ. eigenvalues --  -10.29849 -10.29781 -10.29603 -10.29498 -10.29193
 Alpha  occ. eigenvalues --  -10.29151 -10.29107 -10.28714 -10.28596 -10.28540
 Alpha  occ. eigenvalues --  -10.28527 -10.28254 -10.28182 -10.28045 -10.27948
 Alpha  occ. eigenvalues --  -10.27761 -10.27661 -10.27595 -10.27451 -10.27426
 Alpha  occ. eigenvalues --  -10.27312 -10.27306 -10.27301 -10.27284 -10.27282
 Alpha  occ. eigenvalues --  -10.27249 -10.27234 -10.27166 -10.27081 -10.27045
 Alpha  occ. eigenvalues --  -10.26855 -10.26736 -10.26537 -10.26359 -10.26308
 Alpha  occ. eigenvalues --  -10.26161 -10.25904 -10.25858 -10.25851 -10.25653
 Alpha  occ. eigenvalues --  -10.25610 -10.25494 -10.25435 -10.25295 -10.25168
 Alpha  occ. eigenvalues --  -10.24712 -10.24660 -10.24633 -10.24441 -10.24328
 Alpha  occ. eigenvalues --  -10.23745  -3.16402  -3.16157  -1.91284  -1.91039
 Alpha  occ. eigenvalues --   -1.90871  -1.90713  -1.90627  -1.90464  -1.16832
 Alpha  occ. eigenvalues --   -1.16501  -1.08583  -1.08449  -1.07109  -1.06880
 Alpha  occ. eigenvalues --   -1.06843  -1.06792  -1.04466  -1.04260  -1.03626
 Alpha  occ. eigenvalues --   -1.03410  -1.03098  -1.02769  -1.02278  -1.01853
 Alpha  occ. eigenvalues --   -0.91893  -0.91753  -0.89351  -0.89138  -0.89125
 Alpha  occ. eigenvalues --   -0.88939  -0.88119  -0.87836  -0.87725  -0.87558
 Alpha  occ. eigenvalues --   -0.87519  -0.87433  -0.87136  -0.86926  -0.84917
 Alpha  occ. eigenvalues --   -0.84793  -0.83772  -0.83463  -0.82830  -0.82723
 Alpha  occ. eigenvalues --   -0.82585  -0.82414  -0.81578  -0.81375  -0.80522
 Alpha  occ. eigenvalues --   -0.80220  -0.78658  -0.78403  -0.77096  -0.76897
 Alpha  occ. eigenvalues --   -0.76877  -0.76609  -0.75863  -0.75618  -0.74764
 Alpha  occ. eigenvalues --   -0.74487  -0.72637  -0.72422  -0.71570  -0.71343
 Alpha  occ. eigenvalues --   -0.69690  -0.69244  -0.68795  -0.68602  -0.67543
 Alpha  occ. eigenvalues --   -0.67372  -0.67165  -0.67025  -0.65226  -0.65062
 Alpha  occ. eigenvalues --   -0.64783  -0.64532  -0.64511  -0.64409  -0.64110
 Alpha  occ. eigenvalues --   -0.63816  -0.62315  -0.62050  -0.60303  -0.60110
 Alpha  occ. eigenvalues --   -0.59719  -0.59583  -0.58881  -0.58734  -0.58412
 Alpha  occ. eigenvalues --   -0.58171  -0.57603  -0.57348  -0.57190  -0.56957
 Alpha  occ. eigenvalues --   -0.56231  -0.56010  -0.55960  -0.55696  -0.55430
 Alpha  occ. eigenvalues --   -0.55269  -0.55258  -0.54941  -0.54483  -0.54137
 Alpha  occ. eigenvalues --   -0.53845  -0.53719  -0.53179  -0.53160  -0.53007
 Alpha  occ. eigenvalues --   -0.52922  -0.52883  -0.52678  -0.52654  -0.52515
 Alpha  occ. eigenvalues --   -0.52208  -0.51808  -0.51766  -0.51573  -0.51556
 Alpha  occ. eigenvalues --   -0.51477  -0.51099  -0.50906  -0.50426  -0.50292
 Alpha  occ. eigenvalues --   -0.49878  -0.49788  -0.49776  -0.49499  -0.49416
 Alpha  occ. eigenvalues --   -0.49292  -0.49145  -0.49027  -0.49004  -0.48871
 Alpha  occ. eigenvalues --   -0.48557  -0.48375  -0.48355  -0.48322  -0.48178
 Alpha  occ. eigenvalues --   -0.48074  -0.47600  -0.47358  -0.47191  -0.46898
 Alpha  occ. eigenvalues --   -0.46672  -0.46504  -0.46437  -0.46329  -0.46249
 Alpha  occ. eigenvalues --   -0.46058  -0.45985  -0.45812  -0.45771  -0.45576
 Alpha  occ. eigenvalues --   -0.45056  -0.44878  -0.44518  -0.44396  -0.44324
 Alpha  occ. eigenvalues --   -0.44210  -0.44053  -0.43979  -0.43934  -0.43924
 Alpha  occ. eigenvalues --   -0.43759  -0.43687  -0.43471  -0.43291  -0.43266
 Alpha  occ. eigenvalues --   -0.43144  -0.42930  -0.42789  -0.42727  -0.42651
 Alpha  occ. eigenvalues --   -0.42474  -0.42185  -0.41863  -0.41610  -0.41545
 Alpha  occ. eigenvalues --   -0.41457  -0.41420  -0.41142  -0.41041  -0.40778
 Alpha  occ. eigenvalues --   -0.40760  -0.40726  -0.40578  -0.40446  -0.40408
 Alpha  occ. eigenvalues --   -0.40212  -0.40077  -0.40048  -0.39206  -0.38862
 Alpha  occ. eigenvalues --   -0.38319  -0.38005  -0.37722  -0.37458  -0.37195
 Alpha  occ. eigenvalues --   -0.37170  -0.36993  -0.36915  -0.36826  -0.36575
 Alpha  occ. eigenvalues --   -0.36128  -0.35912  -0.34174  -0.33999  -0.33963
 Alpha  occ. eigenvalues --   -0.33692  -0.33074  -0.32918  -0.31238  -0.31140
 Alpha  occ. eigenvalues --   -0.30929  -0.30729  -0.29973  -0.29741  -0.29315
 Alpha  occ. eigenvalues --   -0.29192  -0.29106  -0.28963  -0.23960  -0.23780
 Alpha  occ. eigenvalues --   -0.20992  -0.20859
 Alpha virt. eigenvalues --   -0.08645  -0.08549  -0.01618  -0.01432   0.00053
 Alpha virt. eigenvalues --    0.00158   0.02302   0.02450   0.02891   0.03857
 Alpha virt. eigenvalues --    0.04768   0.04830   0.04963   0.05329   0.06095

 Mulliken charges:
               1
     1  Mg   0.839339
     2  C   -0.005056
     3  C   -0.093474
     4  C   -0.045807
     5  C   -0.062777
     6  N   -0.256890
     7  C   -0.052855
     8  C   -0.013963
     9  C   -0.087198
    10  C    0.046552
    11  C    0.104822
    12  C    0.051020
    13  C   -0.071487
    14  H    0.033248
    15  N   -0.433171
    16  C    0.169111
    17  C   -0.176273
    18  C   -0.003805
    19  C    0.148832
    20  C    0.109951
    21  C    0.012186
    22  O   -0.250251
    23  C    0.062071
    24  N   -0.341176
    25  C    0.041484
    26  C   -0.028005
    27  C   -0.024151
    28  C    0.075005
    29  C    0.076344
    30  C    0.034905
    31  C   -0.005090
    32  N   -0.310672
    33  C    0.080736
    34  C   -0.168446
    35  C    0.008018
    36  C    0.083609
    37  C    0.127166
    38  C    0.045612
    39  O   -0.188933
    40  C   -0.005457
    41  C    0.214387
    42  O   -0.257555
    43  O   -0.303607
    44  C    0.157578
    45  H   -0.017771
    46  H   -0.017080
    47  H   -0.040448
    48  H    0.000470
    49  H   -0.003750
    50  H    0.025243
    51  H    0.016721
    52  H    0.016578
    53  H    0.013161
    54  H    0.044474
    55  H    0.018359
    56  H    0.019172
    57  H    0.005964
    58  H    0.026126
    59  H    0.041704
    60  H    0.037418
    61  H    0.034338
    62  H    0.032732
    63  H    0.016534
    64  H    0.009165
    65  H    0.022785
    66  H    0.012134
    67  H    0.004701
    68  H    0.005690
    69  H    0.005844
    70  H    0.007167
    71  H    0.023488
    72  H    0.028587
    73  H    0.048319
    74  H    0.010497
    75  H    0.045459
    76  H    0.035500
    77  H    0.044017
    78  H    0.046980
    79  H    0.051739
    80  Mg   0.837678
    81  C   -0.017549
    82  C   -0.088184
    83  C   -0.045942
    84  C   -0.062793
    85  N   -0.254631
    86  C   -0.049792
    87  C   -0.015136
    88  C   -0.090403
    89  C    0.045500
    90  C    0.114550
    91  C    0.062601
    92  C   -0.077504
    93  H    0.033940
    94  N   -0.423214
    95  C    0.162612
    96  C   -0.175033
    97  C   -0.008521
    98  C    0.151846
    99  C    0.099431
   100  C    0.014582
   101  O   -0.255163
   102  C    0.061452
   103  N   -0.350517
   104  C    0.037878
   105  C   -0.018840
   106  C   -0.035045
   107  C    0.090049
   108  C    0.074381
   109  C    0.035399
   110  C   -0.019682
   111  N   -0.324444
   112  C    0.079306
   113  C   -0.161104
   114  C    0.001789
   115  C    0.096790
   116  C    0.130998
   117  C    0.042532
   118  O   -0.188060
   119  C    0.000838
   120  C    0.211292
   121  O   -0.251484
   122  O   -0.305574
   123  C    0.152317
   124  H   -0.020519
   125  H   -0.016911
   126  H   -0.037378
   127  H   -0.001043
   128  H   -0.004765
   129  H    0.022161
   130  H    0.014358
   131  H    0.015648
   132  H    0.014179
   133  H    0.037319
   134  H    0.020617
   135  H    0.019529
   136  H    0.008497
   137  H    0.025093
   138  H    0.039353
   139  H    0.038467
   140  H    0.033647
   141  H    0.034038
   142  H    0.013347
   143  H    0.010961
   144  H    0.023000
   145  H    0.010688
   146  H    0.005168
   147  H    0.001865
   148  H    0.009346
   149  H    0.003157
   150  H    0.043167
   151  H    0.024608
   152  H    0.047049
   153  H    0.012069
   154  H    0.045804
   155  H    0.034565
   156  H    0.043648
   157  H    0.049295
   158  H    0.052931
 Sum of Mulliken charges =  -0.00000

 Dipole moment (field-independent basis, Debye):
    X=              0.4758    Y=              6.6220    Z=             -2.1425  Tot=              6.9762
 Quadrupole moment (field-independent basis, Debye-Ang):
   XX=           -455.0856   YY=           -538.3222   ZZ=           -481.5442
   XY=            -16.7946   XZ=            -21.6947   YZ=              8.0464

 Normal termination of Gaussian 16 at Thu Sep  9 16:14:45 2021.
