 Gaussian 16, Revision A.03,
 Gaussian 16:  ES64L-G16RevA.03 25-Dec-2016

 -----------------------------------
 #p cam-b3lyp/Def2SVP td=(nstates=5)
 -----------------------------------

 --------------------------------
 TDDFT excited states in gaussian
 --------------------------------
 Symbolic Z-matrix:
 Charge =  0 Multiplicity = 1

                         Standard orientation:
 ---------------------------------------------------------------------
 Center     Atomic      Atomic             Coordinates (Angstroms)
 Number     Number       Type             X           Y           Z
 ---------------------------------------------------------------------
      1         12           0       -5.189304   -0.787449   -0.079662
      2          6           0       -5.516107    1.919890    2.238901
      3          6           0       -6.072279    1.407631   -2.538329
      4          6           0       -5.350393   -3.250561   -2.070578
      5          6           0       -5.449805   -2.952578    2.638797
      6          7           0       -5.702838    1.365357   -0.031106
      7          6           0       -5.732491    2.300971    0.912779
      8          6           0       -5.940638    3.739113    0.350822
      9          6           0       -6.654216    3.370376   -1.026435
     10          6           0       -6.082829    1.978399   -1.230987
     11          6           0       -8.172114    3.267149   -0.917661
     12          6           0       -4.585346    4.485983    0.111865
     13          6           0       -4.703281    5.994754   -0.122770
     14          1           0       -3.662126    6.867902    0.397766
     15          7           0       -5.165148   -0.842433   -2.054312
     16          6           0       -5.543750    0.148642   -2.896760
     17          6           0       -5.340164   -0.378156   -4.263405
     18          6           0       -4.992443   -1.821677   -4.147516
     19          6           0       -5.183537   -2.038438   -2.736177
     20          6           0       -5.431464    0.470403   -5.494405
     21          6           0       -4.567164   -2.846131   -5.151390
     22          8           0       -4.539376   -4.094937   -4.878837
     23          6           0       -4.264786   -2.351738   -6.506817
     24          7           0       -5.593171   -2.816178    0.201022
     25          6           0       -5.542141   -3.677746   -0.820781
     26          6           0       -5.585130   -5.097981   -0.340133
     27          6           0       -5.430960   -5.032118    1.247836
     28          6           0       -5.406836   -3.493156    1.418962
     29          6           0       -6.852029   -5.887427   -0.697560
     30          6           0       -4.284717   -5.862377    1.878088
     31          6           0       -2.948045   -5.286480    1.467298
     32          7           0       -5.261167   -0.588112    2.080465
     33          6           0       -5.393721   -1.621998    3.018646
     34          6           0       -5.503898   -0.989389    4.345950
     35          6           0       -5.444045    0.378026    4.084345
     36          6           0       -5.331673    0.587122    2.680086
     37          6           0       -5.697232   -1.670322    5.580206
     38          6           0       -5.473665    1.711785    4.662330
     39          8           0       -5.461269    2.160151    5.809634
     40          6           0       -5.644138    2.766074    3.481127
     41          6           0       -4.631024    3.857261    3.696119
     42          8           0       -3.409232    3.625400    3.592048
     43          8           0       -5.258935    5.041698    3.754238
     44          6           0       -4.307830    6.170502    3.936874
     45          1           0       -6.564507    1.943562   -3.352227
     46          1           0       -5.300301   -4.133079   -2.711741
     47          1           0       -5.448653   -3.566979    3.540996
     48          1           0       -6.594742    4.371488    0.951384
     49          1           0       -6.342720    4.030545   -1.835674
     50          1           0       -8.502977    3.337315    0.118451
     51          1           0       -8.428143    2.292625   -1.333889
     52          1           0       -8.657375    4.003619   -1.558685
     53          1           0       -4.171234    4.180603   -0.849028
     54          1           0       -3.893244    4.302045    0.934353
     55          1           0       -5.689134    6.366015    0.158595
     56          1           0       -4.640129    6.179592   -1.195173
     57          1           0       -5.863955    1.446226   -5.276999
     58          1           0       -6.154448   -0.005742   -6.156439
     59          1           0       -4.471359    0.560733   -6.002707
     60          1           0       -5.146529   -1.856796   -6.914386
     61          1           0       -3.892166   -3.210558   -7.063981
     62          1           0       -3.488662   -1.588824   -6.439408
     63          1           0       -4.760884   -5.676462   -0.755349
     64          1           0       -6.326702   -5.383314    1.760652
     65          1           0       -6.654548   -6.803104   -1.255452
     66          1           0       -7.515566   -5.225961   -1.253861
     67          1           0       -7.477800   -6.156939    0.152847
     68          1           0       -4.316629   -6.889239    1.515485
     69          1           0       -4.324463   -5.893776    2.966980
     70          1           0       -2.777702   -5.738969    0.491045
     71          1           0       -2.172866   -5.581883    2.175144
     72          1           0       -3.007444   -4.207851    1.320612
     73          1           0       -5.026748   -1.197476    6.297727
     74          1           0       -5.485791   -2.734908    5.482467
     75          1           0       -6.753410   -1.469026    5.758598
     76          1           0       -6.666181    3.139164    3.539038
     77          1           0       -4.622283    6.714235    4.827776
     78          1           0       -4.287971    6.714845    2.992575
     79          1           0       -3.286867    5.901242    4.209773
     80         12           0        5.381912   -0.490421    0.153515
     81          6           0        4.716668    1.945468   -2.396580
     82          6           0        6.891907    1.999968    1.929043
     83          6           0        6.377106   -2.694084    2.207988
     84          6           0        4.864413   -2.952551   -2.258084
     85          7           0        5.699435    1.654614   -0.282665
     86          6           0        5.348692    2.482155   -1.255550
     87          6           0        5.622610    3.980344   -0.955593
     88          6           0        6.793754    3.798412    0.128015
     89          6           0        6.425719    2.413107    0.655425
     90          6           0        8.179546    3.721238   -0.490816
     91          6           0        4.375191    4.703896   -0.337178
     92          6           0        4.467537    6.231068   -0.306058
     93          1           0        3.248207    7.006534   -0.516729
     94          7           0        6.030657   -0.306417    2.020022
     95          6           0        6.596081    0.782857    2.581309
     96          6           0        6.915726    0.401950    3.965829
     97          6           0        6.643460   -1.052217    4.127044
     98          6           0        6.353258   -1.419684    2.755599
     99          6           0        7.350828    1.395738    5.003384
    100          6           0        6.656295   -1.964079    5.316391
    101          8           0        6.621185   -3.238865    5.187901
    102          6           0        6.805337   -1.324098    6.631566
    103          7           0        5.799683   -2.517302   -0.045377
    104          6           0        6.165327   -3.255339    1.017413
    105          6           0        6.144073   -4.729599    0.691073
    106          6           0        5.452088   -4.841504   -0.746354
    107          6           0        5.265635   -3.339729   -1.055052
    108          6           0        7.505943   -5.422726    0.655344
    109          6           0        4.218866   -5.778691   -0.862712
    110          6           0        3.063402   -5.212119   -0.069432
    111          7           0        4.703118   -0.540867   -1.897032
    112          6           0        4.585308   -1.675898   -2.728854
    113          6           0        4.194750   -1.194319   -4.069746
    114          6           0        4.134373    0.200401   -3.929763
    115          6           0        4.483683    0.563937   -2.601113
    116          6           0        3.995415   -2.008097   -5.220461
    117          6           0        3.864908    1.448545   -4.606689
    118          8           0        3.441022    1.759616   -5.719025
    119          6           0        4.352795    2.642679   -3.678032
    120          6           0        3.256147    3.671020   -3.629192
    121          8           0        2.163033    3.404623   -3.099353
    122          8           0        3.750005    4.860668   -4.018056
    123          6           0        2.702457    5.915499   -3.975814
    124          1           0        7.584443    2.650367    2.464079
    125          1           0        6.607047   -3.502793    2.905552
    126          1           0        4.588483   -3.664748   -3.038671
    127          1           0        5.983763    4.554155   -1.800622
    128          1           0        6.718590    4.539946    0.919107
    129          1           0        8.137655    3.682772   -1.569193
    130          1           0        8.627632    2.818297   -0.097150
    131          1           0        8.799688    4.547145   -0.130778
    132          1           0        4.338127    4.495923    0.739901
    133          1           0        3.474812    4.406477   -0.838663
    134          1           0        5.277493    6.608093   -0.942269
    135          1           0        4.752391    6.541013    0.702310
    136          1           0        7.621092    2.357703    4.550636
    137          1           0        8.288561    1.023149    5.429640
    138          1           0        6.619953    1.513770    5.806229
    139          1           0        7.732602   -0.756527    6.653993
    140          1           0        6.702204   -2.129175    7.361694
    141          1           0        5.991415   -0.602521    6.763766
    142          1           0        5.548296   -5.276592    1.411454
    143          1           0        6.146673   -5.234088   -1.503497
    144          1           0        7.575473   -6.284246    1.346001
    145          1           0        8.268132   -4.689666    0.883883
    146          1           0        7.816308   -5.780809   -0.324786
    147          1           0        4.443663   -6.756057   -0.428684
    148          1           0        3.898874   -5.946482   -1.885667
    149          1           0        3.272503   -5.553086    0.948951
    150          1           0        2.117897   -5.609877   -0.432526
    151          1           0        3.090726   -4.116287   -0.062287
    152          1           0        3.098316   -1.646998   -5.705556
    153          1           0        3.908464   -3.059327   -4.953773
    154          1           0        4.917412   -1.798799   -5.769448
    155          1           0        5.269708    3.042325   -4.112930
    156          1           0        2.660560    6.364280   -4.973075
    157          1           0        2.980788    6.579488   -3.135936
    158          1           0        1.675124    5.596617   -3.844066
 ---------------------------------------------------------------------

 SCF Done:  E(RCAM-B3LYP) =  -4069.81211271     A.U. after   19 cycles

 Excitation energies and oscillator strengths:

 Excited State   1:      Singlet-A      1.6580 eV  747.79 nm  f=0.0326  <S**2>=0.000
     309 -> 315        0.12796
     310 -> 316        0.11096
     311 -> 313        0.51946
     312 -> 314        0.44978
 This state for optimization and/or second-order correction.
 Total Energy, E(TD-HF/TD-DFT) =  -4069.75118225
 Copying the excited state density for this state as the 1-particle RhoCI density.

 Excited State   2:      Singlet-A      1.6963 eV  730.92 nm  f=0.6957  <S**2>=0.000
     309 -> 315       -0.11711
     310 -> 316        0.13572
     311 -> 313       -0.44822
     312 -> 314        0.51764

 Excited State   3:      Singlet-A      2.1838 eV  567.75 nm  f=0.0245  <S**2>=0.000
     309 -> 313        0.58451
     310 -> 314       -0.26996
     311 -> 315       -0.24601
     312 -> 316        0.11273

 Excited State   4:      Singlet-A      2.1948 eV  564.89 nm  f=0.1574  <S**2>=0.000
     309 -> 313        0.26729
     310 -> 314        0.58111
     311 -> 315       -0.11757
     312 -> 316       -0.25424

 Excited State   5:      Singlet-A      2.5304 eV  489.97 nm  f=0.0000  <S**2>=0.000
     312 -> 313        0.70702

 The electronic state is 1-A.
 Alpha  occ. eigenvalues --  -46.87545 -46.87495 -19.26369 -19.26099 -19.19160
 Alpha  occ. eigenvalues --  -19.18810 -19.18589 -19.18509 -19.18012 -19.17924
 Alpha  occ. eigenvalues --  -14.42385 -14.42153 -14.41253 -14.41167 -14.39236
 Alpha  occ. eigenvalues --  -14.39096 -14.38495 -14.38298 -10.39084 -10.38868
 Alpha  occ. eigenvalues --  -10.35264 -10.35138 -10.34189 -10.34146 -10.31820
 Alpha  occ. eigenvalues --  -10.31537 -10.31213 -10.31124 -10.30912 -10.30605
 Alpha  occ. eigenvalues --  -10.30295 -10.30282 -10.30263 -10.30226 -10.30023
 Alpha  occ. eigenvalues --  -10.29919 -10.29799 -10.29663 -10.29343 -10.29320
 Alpha  occ. eigenvalues --  -10.29298 -10.28951 -10.28621 -10.28568 -10.28462
 Alpha  occ. eigenvalues --  -10.28302 -10.28281 -10.28068 -10.28045 -10.27905
 Alpha  occ. eigenvalues --  -10.27837 -10.27560 -10.27504 -10.27431 -10.27413
 Alpha  occ. eigenvalues --  -10.27385 -10.27356 -10.27325 -10.27281 -10.27280
 Alpha  occ. eigenvalues --  -10.27272 -10.27229 -10.27121 -10.27103 -10.27006
 Alpha  occ. eigenvalues --  -10.26918 -10.26570 -10.26377 -10.26259 -10.26043
 Alpha  occ. eigenvalues --  -10.26024 -10.25990 -10.25982 -10.25949 -10.25826
 Alpha  occ. eigenvalues --  -10.25790 -10.25740 -10.25615 -10.25317 -10.25239
 Alpha  occ. eigenvalues --  -10.24783 -10.24603 -10.24588 -10.24552 -10.24511
 Alpha  occ. eigenvalues --  -10.24486  -3.16294  -3.16236  -1.91176  -1.91117
 Alpha  occ. eigenvalues --   -1.90765  -1.90705  -1.90602  -1.90547  -1.16658
 Alpha  occ. eigenvalues --   -1.16442  -1.08628  -1.08390  -1.06946  -1.06911
 Alpha  occ. eigenvalues --   -1.06840  -1.06435  -1.04387  -1.04287  -1.03555
 Alpha  occ. eigenvalues --   -1.03476  -1.02943  -1.02933  -1.02124  -1.02007
 Alpha  occ. eigenvalues --   -0.91903  -0.91700  -0.89392  -0.89267  -0.89052
 Alpha  occ. eigenvalues --   -0.88905  -0.88119  -0.88041  -0.87708  -0.87602
 Alpha  occ. eigenvalues --   -0.87578  -0.87383  -0.86996  -0.86948  -0.84900
 Alpha  occ. eigenvalues --   -0.84700  -0.83782  -0.83707  -0.82809  -0.82660
 Alpha  occ. eigenvalues --   -0.82555  -0.82368  -0.81551  -0.81352  -0.80365
 Alpha  occ. eigenvalues --   -0.80328  -0.78526  -0.78491  -0.77045  -0.76950
 Alpha  occ. eigenvalues --   -0.76825  -0.76685  -0.75767  -0.75669  -0.74717
 Alpha  occ. eigenvalues --   -0.74660  -0.72601  -0.72499  -0.71492  -0.71410
 Alpha  occ. eigenvalues --   -0.69678  -0.69651  -0.68731  -0.68594  -0.67508
 Alpha  occ. eigenvalues --   -0.67363  -0.67088  -0.66920  -0.65182  -0.65009
 Alpha  occ. eigenvalues --   -0.64686  -0.64593  -0.64573  -0.64364  -0.64107
 Alpha  occ. eigenvalues --   -0.64015  -0.62239  -0.62074  -0.60225  -0.60142
 Alpha  occ. eigenvalues --   -0.59697  -0.59519  -0.58901  -0.58719  -0.58342
 Alpha  occ. eigenvalues --   -0.58237  -0.57510  -0.57343  -0.57142  -0.57048
 Alpha  occ. eigenvalues --   -0.56117  -0.56034  -0.55843  -0.55753  -0.55367
 Alpha  occ. eigenvalues --   -0.55232  -0.55174  -0.55111  -0.54426  -0.54302
 Alpha  occ. eigenvalues --   -0.53814  -0.53612  -0.53132  -0.53057  -0.53025
 Alpha  occ. eigenvalues --   -0.52931  -0.52824  -0.52661  -0.52545  -0.52438
 Alpha  occ. eigenvalues --   -0.52294  -0.52213  -0.51817  -0.51668  -0.51556
 Alpha  occ. eigenvalues --   -0.51322  -0.51128  -0.50943  -0.50341  -0.50228
 Alpha  occ. eigenvalues --   -0.49872  -0.49777  -0.49764  -0.49616  -0.49384
 Alpha  occ. eigenvalues --   -0.49230  -0.49118  -0.49029  -0.48940  -0.48835
 Alpha  occ. eigenvalues --   -0.48493  -0.48348  -0.48303  -0.48228  -0.48224
 Alpha  occ. eigenvalues --   -0.48150  -0.47502  -0.47420  -0.47020  -0.47018
 Alpha  occ. eigenvalues --   -0.46614  -0.46533  -0.46457  -0.46279  -0.46178
 Alpha  occ. eigenvalues --   -0.46086  -0.46008  -0.45916  -0.45768  -0.45589
 Alpha  occ. eigenvalues --   -0.45117  -0.44960  -0.44447  -0.44378  -0.44333
 Alpha  occ. eigenvalues --   -0.44219  -0.44051  -0.43983  -0.43881  -0.43838
 Alpha  occ. eigenvalues --   -0.43829  -0.43737  -0.43513  -0.43298  -0.43262
 Alpha  occ. eigenvalues --   -0.43114  -0.42903  -0.42825  -0.42767  -0.42487
 Alpha  occ. eigenvalues --   -0.42446  -0.42425  -0.41864  -0.41763  -0.41593
 Alpha  occ. eigenvalues --   -0.41442  -0.41360  -0.41261  -0.40900  -0.40876
 Alpha  occ. eigenvalues --   -0.40614  -0.40604  -0.40582  -0.40512  -0.40396
 Alpha  occ. eigenvalues --   -0.40328  -0.40112  -0.39928  -0.39315  -0.39215
 Alpha  occ. eigenvalues --   -0.38249  -0.38222  -0.37557  -0.37468  -0.37166
 Alpha  occ. eigenvalues --   -0.37099  -0.37061  -0.36976  -0.36752  -0.36497
 Alpha  occ. eigenvalues --   -0.36137  -0.35950  -0.34155  -0.34003  -0.33841
 Alpha  occ. eigenvalues --   -0.33546  -0.33075  -0.32905  -0.31150  -0.31043
 Alpha  occ. eigenvalues --   -0.30872  -0.30755  -0.29919  -0.29788  -0.29218
 Alpha  occ. eigenvalues --   -0.29147  -0.29117  -0.29034  -0.23932  -0.23793
 Alpha  occ. eigenvalues --   -0.21011  -0.20839
 Alpha virt. eigenvalues --   -0.08688  -0.08480  -0.01573  -0.01461   0.00082
 Alpha virt. eigenvalues --    0.00246   0.02283   0.02463   0.03367   0.03568
 Alpha virt. eigenvalues --    0.04830   0.04996   0.05178   0.05317   0.06262

 Mulliken charges:
               1
     1  Mg   0.840863
     2  C   -0.002575
     3  C   -0.092536
     4  C   -0.046220
     5  C   -0.064309
     6  N   -0.256759
     7  C   -0.052203
     8  C   -0.014425
     9  C   -0.087394
    10  C    0.047216
    11  C    0.104937
    12  C    0.053092
    13  C   -0.071034
    14  H    0.034359
    15  N   -0.433211
    16  C    0.169845
    17  C   -0.175523
    18  C   -0.003337
    19  C    0.149220
    20  C    0.109988
    21  C    0.012780
    22  O   -0.250802
    23  C    0.061637
    24  N   -0.341169
    25  C    0.041435
    26  C   -0.028026
    27  C   -0.023733
    28  C    0.074603
    29  C    0.076401
    30  C    0.035321
    31  C   -0.004514
    32  N   -0.310216
    33  C    0.080073
    34  C   -0.170308
    35  C    0.007835
    36  C    0.082908
    37  C    0.127465
    38  C    0.045642
    39  O   -0.189904
    40  C   -0.005320
    41  C    0.212575
    42  O   -0.256831
    43  O   -0.304828
    44  C    0.158228
    45  H   -0.017806
    46  H   -0.017479
    47  H   -0.042263
    48  H    0.000024
    49  H   -0.003608
    50  H    0.025016
    51  H    0.016268
    52  H    0.016185
    53  H    0.014517
    54  H    0.044484
    55  H    0.016846
    56  H    0.018185
    57  H    0.005778
    58  H    0.025913
    59  H    0.043194
    60  H    0.036847
    61  H    0.034844
    62  H    0.035023
    63  H    0.015915
    64  H    0.008917
    65  H    0.022583
    66  H    0.012546
    67  H    0.004336
    68  H    0.005466
    69  H    0.004521
    70  H    0.007719
    71  H    0.017992
    72  H    0.030043
    73  H    0.046785
    74  H    0.008738
    75  H    0.045346
    76  H    0.034577
    77  H    0.042010
    78  H    0.046402
    79  H    0.052891
    80  Mg   0.839559
    81  C   -0.016669
    82  C   -0.087348
    83  C   -0.045440
    84  C   -0.064773
    85  N   -0.254644
    86  C   -0.049575
    87  C   -0.015436
    88  C   -0.090690
    89  C    0.046344
    90  C    0.114440
    91  C    0.062369
    92  C   -0.077533
    93  H    0.033949
    94  N   -0.423558
    95  C    0.163810
    96  C   -0.174130
    97  C   -0.007311
    98  C    0.152519
    99  C    0.099361
   100  C    0.016113
   101  O   -0.253346
   102  C    0.060811
   103  N   -0.350123
   104  C    0.037685
   105  C   -0.019827
   106  C   -0.034754
   107  C    0.088801
   108  C    0.073765
   109  C    0.034742
   110  C   -0.007871
   111  N   -0.323948
   112  C    0.078320
   113  C   -0.163371
   114  C    0.001483
   115  C    0.096344
   116  C    0.131728
   117  C    0.041809
   118  O   -0.189916
   119  C    0.001041
   120  C    0.210638
   121  O   -0.250917
   122  O   -0.305481
   123  C    0.152695
   124  H   -0.019734
   125  H   -0.015638
   126  H   -0.040484
   127  H   -0.001336
   128  H   -0.004050
   129  H    0.022121
   130  H    0.014380
   131  H    0.016083
   132  H    0.015683
   133  H    0.038010
   134  H    0.020059
   135  H    0.020040
   136  H    0.008751
   137  H    0.025861
   138  H    0.041156
   139  H    0.037932
   140  H    0.036401
   141  H    0.035298
   142  H    0.014406
   143  H    0.012119
   144  H    0.024956
   145  H    0.011517
   146  H    0.005478
   147  H    0.005781
   148  H    0.003966
   149  H    0.010443
   150  H    0.018578
   151  H    0.030589
   152  H    0.044699
   153  H    0.009099
   154  H    0.046460
   155  H    0.034663
   156  H    0.042864
   157  H    0.049946
   158  H    0.052234
 Sum of Mulliken charges =  -0.00000

 Dipole moment (field-independent basis, Debye):
    X=              1.1528    Y=              3.1532    Z=             -1.3046  Tot=              3.6019
 Quadrupole moment (field-independent basis, Debye-Ang):
   XX=           -469.0305   YY=           -461.5781   ZZ=           -541.0379
   XY=             11.2204   XZ=             29.8074   YZ=             -5.7969

 Normal termination of Gaussian 16 at Fri Sep 10 14:27:17 2021.
