 Gaussian 16, Revision A.03,
 Gaussian 16:  ES64L-G16RevA.03 25-Dec-2016

 -----------------------------------
 #p cam-b3lyp/Def2SVP td=(nstates=5)
 -----------------------------------

 --------------------------------
 TDDFT excited states in gaussian
 --------------------------------
 Symbolic Z-matrix:
 Charge =  0 Multiplicity = 1

                         Standard orientation:
 ---------------------------------------------------------------------
 Center     Atomic      Atomic             Coordinates (Angstroms)
 Number     Number       Type             X           Y           Z
 ---------------------------------------------------------------------
      1         12           0       -6.539813   -0.717623    0.093708
      2          6           0       -6.707773    2.842696    0.422546
      3          6           0       -7.418984   -0.307854   -3.177716
      4          6           0       -6.841532   -3.868075   -0.106879
      5          6           0       -6.794456   -0.902381    3.564541
      6          7           0       -6.978754    1.088523   -1.108712
      7          6           0       -6.949467    2.397551   -0.879020
      8          6           0       -7.125124    3.255047   -2.167903
      9          6           0       -7.890315    2.191007   -3.075813
     10          6           0       -7.372408    0.912630   -2.440638
     11          6           0       -9.407047    2.236838   -2.921138
     12          6           0       -5.752876    3.666095   -2.800127
     13          6           0       -5.826550    4.766121   -3.863079
     14          1           0       -4.741879    5.732435   -3.947181
     15          7           0       -6.574700   -1.903322   -1.486086
     16          6           0       -6.943857   -1.564717   -2.744798
     17          6           0       -6.797819   -2.792125   -3.556478
     18          6           0       -6.495822   -3.917664   -2.629088
     19          6           0       -6.653188   -3.271303   -1.351265
     20          6           0       -6.896018   -2.806726   -5.051100
     21          6           0       -6.134610   -5.351278   -2.858022
     22          8           0       -6.141119   -6.213452   -1.913995
     23          6           0       -5.855078   -5.743915   -4.251126
     24          7           0       -7.003645   -2.191932    1.496885
     25          6           0       -7.011333   -3.486506    1.160724
     26          6           0       -7.088312   -4.365213    2.373938
     27          6           0       -6.886101   -3.401737    3.631148
     28          6           0       -6.805092   -2.049172    2.881296
     29          6           0       -8.390956   -5.159132    2.543707
     30          6           0       -5.750777   -3.765689    4.620591
     31          6           0       -4.407877   -3.592412    3.947025
     32          7           0       -6.542343    0.694953    1.741637
     33          6           0       -6.682511    0.399333    3.105322
     34          6           0       -6.732797    1.686174    3.823361
     35          6           0       -6.634413    2.647500    2.819359
     36          6           0       -6.555744    2.002460    1.552068
     37          6           0       -6.913199    1.851939    5.224935
     38          6           0       -6.602244    4.069968    2.520350
     39          8           0       -6.541510    5.097254    3.197468
     40          6           0       -6.771149    4.255367    0.947796
     41          6           0       -5.715975    5.224346    0.488451
     42          8           0       -4.506232    4.921116    0.532488
     43          8           0       -6.301595    6.251478   -0.146050
     44          6           0       -5.308036    7.235198   -0.653285
     45          1           0       -7.916193   -0.318857   -4.149623
     46          1           0       -6.839845   -4.959979   -0.120296
     47          1           0       -6.787930   -0.882647    4.655880
     48          1           0       -7.739846    4.146298   -2.040570
     49          1           0       -7.580266    2.248406   -4.119028
     50          1           0       -9.705219    2.906759   -2.114777
     51          1           0       -9.707772    1.213304   -2.696557
     52          1           0       -9.885521    2.488829   -3.867891
     53          1           0       -5.377300    2.844113   -3.409510
     54          1           0       -5.043858    3.960218   -2.025458
     55          1           0       -6.790749    5.274907   -3.843964
     56          1           0       -5.788266    4.295034   -4.845327
     57          1           0       -7.288843   -1.866407   -5.435851
     58          1           0       -7.653527   -3.545092   -5.313218
     59          1           0       -5.948528   -3.068985   -5.522071
     60          1           0       -6.731038   -5.536554   -4.866142
     61          1           0       -5.527950   -6.782293   -4.211015
     62          1           0       -5.052015   -5.117300   -4.640217
     63          1           0       -6.296431   -5.113068    2.366013
     64          1           0       -7.777969   -3.352430    4.256300
     65          1           0       -8.240735   -6.236535    2.616802
     66          1           0       -9.047610   -4.911501    1.710175
     67          1           0       -9.000589   -4.860313    3.396040
     68          1           0       -5.827822   -4.810870    4.918259
     69          1           0       -5.760022   -3.161008    5.527523
     70          1           0       -4.281241   -4.532417    3.411128
     71          1           0       -3.622947   -3.459028    4.692212
     72          1           0       -4.435049   -2.794945    3.204195
     73          1           0       -6.206643    2.621967    5.534459
     74          1           0       -6.740737    0.918106    5.759553
     75          1           0       -7.956372    2.165813    5.258532
     76          1           0       -7.777909    4.638266    0.783647
     77          1           0       -5.578031    8.206719   -0.239180
     78          1           0       -5.297156    7.133108   -1.738580
     79          1           0       -4.289274    7.127957   -0.279170
     80         12           0        6.696212   -0.840541    0.054812
     81          6           0        6.524284    2.742646    0.155999
     82          6           0        5.813097   -0.641019   -3.233785
     83          6           0        6.399095   -3.999514    0.045553
     84          6           0        6.437502   -0.812510    3.530149
     85          7           0        6.253606    0.884928   -1.256328
     86          6           0        6.280301    2.202542   -1.123923
     87          6           0        6.110997    2.986106   -2.453188
     88          6           0        5.338526    1.860634   -3.299041
     89          6           0        5.856096    0.616405   -2.580228
     90          6           0        3.828797    1.914196   -3.134124
     91          6           0        7.487830    3.354067   -3.109641
     92          6           0        7.406720    4.381021   -4.241252
     93          1           0        8.497098    5.341005   -4.389459
     94          7           0        6.664291   -2.123037   -1.459380
     95          6           0        6.300842   -1.868421   -2.733875
     96          6           0        6.431681   -3.145483   -3.452322
     97          6           0        6.743752   -4.211214   -2.461602
     98          6           0        6.590603   -3.473430   -1.223745
     99          6           0        6.341363   -3.251207   -4.947012
    100          6           0        7.105950   -5.658522   -2.604168
    101          8           0        7.101691   -6.455724   -1.600531
    102          6           0        7.374975   -6.135683   -3.968516
    103          7           0        6.241380   -2.218320    1.543836
    104          6           0        6.228508   -3.537600    1.284442
    105          6           0        6.149542   -4.343397    2.559131
    106          6           0        6.356768   -3.291578    3.745858
    107          6           0        6.434040   -1.989288    2.919136
    108          6           0        4.846434   -5.110804    2.781379
    109          6           0        7.493442   -3.591050    4.761212
    110          6           0        8.838052   -3.472196    4.080555
    111          7           0        6.698763    0.666931    1.602566
    112          6           0        6.552478    0.462947    2.992200
    113          6           0        6.502437    1.796836    3.625161
    114          6           0        6.600723    2.691681    2.549015
    115          6           0        6.684349    1.966825    1.329551
    116          6           0        6.333034    2.052196    5.015198
    117          6           0        6.642037    4.084745    2.166443
    118          8           0        6.695579    5.151884    2.776436
    119          6           0        6.467061    4.181162    0.589591
    120          6           0        7.521704    5.114605    0.061443
    121          8           0        8.726319    4.815038    0.137369
    122          8           0        6.928434    6.099656   -0.637184
    123          6           0        7.934328    7.045060   -1.190559
    124          1           0        5.321624   -0.704381   -4.205032
    125          1           0        6.400877   -5.090123    0.109123
    126          1           0        6.456551   -0.719713    4.618131
    127          1           0        5.502162    3.879238   -2.379636
    128          1           0        5.656120    1.860277   -4.338508
    129          1           0        3.530924    2.627705   -2.380262
    130          1           0        3.528420    0.914545   -2.848620
    131          1           0        3.350901    2.108597   -4.098568
    132          1           0        7.860788    2.486727   -3.669432
    133          1           0        8.186472    3.688493   -2.367565
    134          1           0        6.437468    4.893863   -4.263781
    135          1           0        7.451355    3.850283   -5.195376
    136          1           0        5.940905   -2.331869   -5.391828
    137          1           0        5.585071   -4.011984   -5.168635
    138          1           0        7.286656   -3.548334   -5.406146
    139          1           0        6.500208   -5.962367   -4.590759
    140          1           0        7.703247   -7.170861   -3.856649
    141          1           0        8.187856   -5.537092   -4.394570
    142          1           0        6.942100   -5.080459    2.600435
    143          1           0        5.460819   -3.209432    4.378590
    144          1           0        4.998501   -6.197597    2.922202
    145          1           0        4.192656   -4.924228    1.939775
    146          1           0        4.245470   -4.766877    3.621472
    147          1           0        7.417915   -4.619898    5.121675
    148          1           0        7.477318   -2.943030    5.631167
    149          1           0        8.959121   -4.448221    3.601195
    150          1           0        9.623094   -3.291640    4.812089
    151          1           0        8.812065   -2.716235    3.287139
    152          1           0        7.032335    2.835667    5.275309
    153          1           0        6.501329    1.155257    5.607604
    154          1           0        5.285060    2.363304    5.030053
    155          1           0        5.459255    4.549310    0.393719
    156          1           0        7.660857    8.044601   -0.838668
    157          1           0        7.931656    6.877790   -2.284065
    158          1           0        8.951895    6.963809   -0.826691
 ---------------------------------------------------------------------

 SCF Done:  E(RCAM-B3LYP) =  -4069.81158308     A.U. after   19 cycles

 Excitation energies and oscillator strengths:

 Excited State   1:      Singlet-A      1.6654 eV  744.46 nm  f=0.0078  <S**2>=0.000
     309 -> 315       -0.11039
     310 -> 316        0.13105
     311 -> 313       -0.44076
     312 -> 314        0.52648
 This state for optimization and/or second-order correction.
 Total Energy, E(TD-HF/TD-DFT) =  -4069.75038005
 Copying the excited state density for this state as the 1-particle RhoCI density.

 Excited State   2:      Singlet-A      1.6893 eV  733.95 nm  f=0.7356  <S**2>=0.000
     309 -> 315        0.13652
     310 -> 316        0.11362
     311 -> 313        0.52528
     312 -> 314        0.43985

 Excited State   3:      Singlet-A      2.1846 eV  567.53 nm  f=0.0398  <S**2>=0.000
     309 -> 313       -0.20274
     310 -> 314        0.61031
     312 -> 316       -0.25822

 Excited State   4:      Singlet-A      2.1933 eV  565.29 nm  f=0.1491  <S**2>=0.000
     309 -> 313        0.60789
     310 -> 314        0.20097
     311 -> 315       -0.26488

 Excited State   5:      Singlet-A      2.6495 eV  467.96 nm  f=0.0000  <S**2>=0.000
     312 -> 313        0.70710

 The electronic state is 1-A.
 Alpha  occ. eigenvalues --  -46.87851 -46.87549 -19.26319 -19.26237 -19.19057
 Alpha  occ. eigenvalues --  -19.19049 -19.18870 -19.18626 -19.18206 -19.17920
 Alpha  occ. eigenvalues --  -14.42507 -14.42387 -14.41502 -14.41249 -14.39458
 Alpha  occ. eigenvalues --  -14.39244 -14.38638 -14.38485 -10.39117 -10.38976
 Alpha  occ. eigenvalues --  -10.35505 -10.35305 -10.34426 -10.34096 -10.31710
 Alpha  occ. eigenvalues --  -10.31657 -10.31459 -10.31194 -10.30969 -10.30918
 Alpha  occ. eigenvalues --  -10.30622 -10.30557 -10.30284 -10.30261 -10.30246
 Alpha  occ. eigenvalues --  -10.30040 -10.29968 -10.29780 -10.29682 -10.29332
 Alpha  occ. eigenvalues --  -10.29310 -10.29292 -10.28817 -10.28634 -10.28614
 Alpha  occ. eigenvalues --  -10.28585 -10.28418 -10.28293 -10.28181 -10.28032
 Alpha  occ. eigenvalues --  -10.27887 -10.27843 -10.27784 -10.27639 -10.27564
 Alpha  occ. eigenvalues --  -10.27556 -10.27547 -10.27493 -10.27456 -10.27420
 Alpha  occ. eigenvalues --  -10.27399 -10.27371 -10.27361 -10.27275 -10.27200
 Alpha  occ. eigenvalues --  -10.26917 -10.26792 -10.26607 -10.26478 -10.26350
 Alpha  occ. eigenvalues --  -10.26291 -10.26230 -10.26071 -10.26052 -10.25895
 Alpha  occ. eigenvalues --  -10.25874 -10.25826 -10.25710 -10.25474 -10.25295
 Alpha  occ. eigenvalues --  -10.24881 -10.24838 -10.24754 -10.24738 -10.24650
 Alpha  occ. eigenvalues --  -10.24580  -3.16594  -3.16299  -1.91476  -1.91181
 Alpha  occ. eigenvalues --   -1.91063  -1.90905  -1.90770  -1.90607  -1.16668
 Alpha  occ. eigenvalues --   -1.16531  -1.08662  -1.08525  -1.07271  -1.06879
 Alpha  occ. eigenvalues --   -1.06833  -1.06679  -1.04637  -1.04385  -1.03814
 Alpha  occ. eigenvalues --   -1.03553  -1.03286  -1.02928  -1.02464  -1.01999
 Alpha  occ. eigenvalues --   -0.92022  -0.91869  -0.89569  -0.89390  -0.89254
 Alpha  occ. eigenvalues --   -0.89045  -0.88335  -0.88119  -0.87915  -0.87731
 Alpha  occ. eigenvalues --   -0.87672  -0.87578  -0.87334  -0.87029  -0.85046
 Alpha  occ. eigenvalues --   -0.84898  -0.83983  -0.83776  -0.83026  -0.82847
 Alpha  occ. eigenvalues --   -0.82707  -0.82553  -0.81631  -0.81486  -0.80648
 Alpha  occ. eigenvalues --   -0.80336  -0.78853  -0.78534  -0.77274  -0.77042
 Alpha  occ. eigenvalues --   -0.76990  -0.76795  -0.75976  -0.75729  -0.74945
 Alpha  occ. eigenvalues --   -0.74699  -0.72825  -0.72588  -0.71723  -0.71471
 Alpha  occ. eigenvalues --   -0.69955  -0.69662  -0.68934  -0.68725  -0.67693
 Alpha  occ. eigenvalues --   -0.67495  -0.67290  -0.67109  -0.65347  -0.65166
 Alpha  occ. eigenvalues --   -0.64903  -0.64673  -0.64662  -0.64548  -0.64319
 Alpha  occ. eigenvalues --   -0.64101  -0.62340  -0.62169  -0.60498  -0.60242
 Alpha  occ. eigenvalues --   -0.59865  -0.59688  -0.59038  -0.58883  -0.58554
 Alpha  occ. eigenvalues --   -0.58316  -0.57627  -0.57432  -0.57357  -0.57131
 Alpha  occ. eigenvalues --   -0.56361  -0.56097  -0.56025  -0.55782  -0.55574
 Alpha  occ. eigenvalues --   -0.55383  -0.55352  -0.55141  -0.54566  -0.54384
 Alpha  occ. eigenvalues --   -0.53960  -0.53809  -0.53352  -0.53281  -0.53125
 Alpha  occ. eigenvalues --   -0.53040  -0.52964  -0.52820  -0.52799  -0.52582
 Alpha  occ. eigenvalues --   -0.52486  -0.52308  -0.51954  -0.51754  -0.51680
 Alpha  occ. eigenvalues --   -0.51562  -0.51244  -0.51090  -0.50639  -0.50395
 Alpha  occ. eigenvalues --   -0.50083  -0.49977  -0.49881  -0.49769  -0.49574
 Alpha  occ. eigenvalues --   -0.49390  -0.49265  -0.49153  -0.49094  -0.48990
 Alpha  occ. eigenvalues --   -0.48640  -0.48512  -0.48493  -0.48448  -0.48271
 Alpha  occ. eigenvalues --   -0.48243  -0.47751  -0.47495  -0.47350  -0.47021
 Alpha  occ. eigenvalues --   -0.46850  -0.46619  -0.46605  -0.46455  -0.46410
 Alpha  occ. eigenvalues --   -0.46207  -0.46167  -0.45973  -0.45864  -0.45705
 Alpha  occ. eigenvalues --   -0.45249  -0.45105  -0.44623  -0.44568  -0.44405
 Alpha  occ. eigenvalues --   -0.44374  -0.44197  -0.44149  -0.44069  -0.44019
 Alpha  occ. eigenvalues --   -0.43980  -0.43838  -0.43538  -0.43446  -0.43443
 Alpha  occ. eigenvalues --   -0.43279  -0.43077  -0.42822  -0.42787  -0.42742
 Alpha  occ. eigenvalues --   -0.42698  -0.42456  -0.42062  -0.41866  -0.41753
 Alpha  occ. eigenvalues --   -0.41598  -0.41553  -0.41360  -0.41194  -0.40931
 Alpha  occ. eigenvalues --   -0.40885  -0.40880  -0.40633  -0.40621  -0.40603
 Alpha  occ. eigenvalues --   -0.40391  -0.40312  -0.40138  -0.39490  -0.39332
 Alpha  occ. eigenvalues --   -0.38521  -0.38250  -0.37820  -0.37561  -0.37372
 Alpha  occ. eigenvalues --   -0.37327  -0.37163  -0.37095  -0.36754  -0.36663
 Alpha  occ. eigenvalues --   -0.36240  -0.36112  -0.34338  -0.34142  -0.33810
 Alpha  occ. eigenvalues --   -0.33750  -0.33238  -0.33065  -0.31399  -0.31184
 Alpha  occ. eigenvalues --   -0.31088  -0.30863  -0.30065  -0.29823  -0.29503
 Alpha  occ. eigenvalues --   -0.29370  -0.29222  -0.29092  -0.24134  -0.23923
 Alpha  occ. eigenvalues --   -0.21181  -0.21007
 Alpha virt. eigenvalues --   -0.08827  -0.08682  -0.01803  -0.01576  -0.00114
 Alpha virt. eigenvalues --    0.00072   0.02156   0.02329   0.03057   0.03326
 Alpha virt. eigenvalues --    0.04656   0.04836   0.05059   0.05280   0.06103

 Mulliken charges:
               1
     1  Mg   0.838572
     2  C   -0.003024
     3  C   -0.094453
     4  C   -0.045799
     5  C   -0.063894
     6  N   -0.256759
     7  C   -0.052548
     8  C   -0.013944
     9  C   -0.086948
    10  C    0.046188
    11  C    0.104807
    12  C    0.053604
    13  C   -0.071602
    14  H    0.035679
    15  N   -0.433131
    16  C    0.168270
    17  C   -0.177407
    18  C   -0.004061
    19  C    0.148651
    20  C    0.110237
    21  C    0.012256
    22  O   -0.249408
    23  C    0.062559
    24  N   -0.341136
    25  C    0.041190
    26  C   -0.028207
    27  C   -0.024003
    28  C    0.074870
    29  C    0.076122
    30  C    0.035105
    31  C   -0.004493
    32  N   -0.310535
    33  C    0.080483
    34  C   -0.169503
    35  C    0.008539
    36  C    0.083015
    37  C    0.127250
    38  C    0.046330
    39  O   -0.187881
    40  C   -0.005415
    41  C    0.213013
    42  O   -0.257107
    43  O   -0.304814
    44  C    0.157540
    45  H   -0.017707
    46  H   -0.016729
    47  H   -0.041318
    48  H    0.001122
    49  H   -0.004351
    50  H    0.025612
    51  H    0.016541
    52  H    0.016625
    53  H    0.010630
    54  H    0.044092
    55  H    0.018210
    56  H    0.017564
    57  H    0.005702
    58  H    0.026919
    59  H    0.038915
    60  H    0.037347
    61  H    0.035793
    62  H    0.030966
    63  H    0.016624
    64  H    0.009596
    65  H    0.023324
    66  H    0.012560
    67  H    0.004842
    68  H    0.006468
    69  H    0.004807
    70  H    0.008882
    71  H    0.017936
    72  H    0.028944
    73  H    0.047965
    74  H    0.009159
    75  H    0.046152
    76  H    0.035249
    77  H    0.043335
    78  H    0.046035
    79  H    0.053981
    80  Mg   0.838059
    81  C   -0.016677
    82  C   -0.087870
    83  C   -0.045509
    84  C   -0.064680
    85  N   -0.254536
    86  C   -0.049431
    87  C   -0.015141
    88  C   -0.090632
    89  C    0.045895
    90  C    0.114376
    91  C    0.062598
    92  C   -0.077658
    93  H    0.034558
    94  N   -0.423439
    95  C    0.162861
    96  C   -0.174926
    97  C   -0.007958
    98  C    0.152016
    99  C    0.099536
   100  C    0.015425
   101  O   -0.253316
   102  C    0.061291
   103  N   -0.350013
   104  C    0.037535
   105  C   -0.019819
   106  C   -0.034856
   107  C    0.089088
   108  C    0.073674
   109  C    0.034730
   110  C   -0.007617
   111  N   -0.324255
   112  C    0.078689
   113  C   -0.162758
   114  C    0.002721
   115  C    0.096224
   116  C    0.131327
   117  C    0.042922
   118  O   -0.187360
   119  C    0.000701
   120  C    0.211127
   121  O   -0.251307
   122  O   -0.305359
   123  C    0.152138
   124  H   -0.020265
   125  H   -0.015733
   126  H   -0.040402
   127  H   -0.000254
   128  H   -0.004957
   129  H    0.023962
   130  H    0.014563
   131  H    0.015355
   132  H    0.013703
   133  H    0.037658
   134  H    0.020786
   135  H    0.019198
   136  H    0.008322
   137  H    0.025615
   138  H    0.039426
   139  H    0.037975
   140  H    0.036156
   141  H    0.033717
   142  H    0.014166
   143  H    0.012536
   144  H    0.024882
   145  H    0.011982
   146  H    0.005604
   147  H    0.006055
   148  H    0.003645
   149  H    0.010809
   150  H    0.017759
   151  H    0.030171
   152  H    0.045896
   153  H    0.008227
   154  H    0.048242
   155  H    0.036294
   156  H    0.043972
   157  H    0.049178
   158  H    0.053381
 Sum of Mulliken charges =  -0.00000

 Dipole moment (field-independent basis, Debye):
    X=             -4.1099    Y=             -2.2599    Z=             -7.5453  Tot=              8.8842
 Quadrupole moment (field-independent basis, Debye-Ang):
   XX=           -517.8499   YY=           -551.5478   ZZ=           -447.6024
   XY=             -6.5869   XZ=              0.6968   YZ=            -48.4139

 Normal termination of Gaussian 16 at Sat Sep 11 15:14:59 2021.
