 Gaussian 16, Revision A.03,
 Gaussian 16:  ES64L-G16RevA.03 25-Dec-2016

 -----------------------------------
 #p cam-b3lyp/Def2SVP td=(nstates=5)
 -----------------------------------

 --------------------------------
 TDDFT excited states in gaussian
 --------------------------------
 Symbolic Z-matrix:
 Charge =  0 Multiplicity = 1

                         Standard orientation:
 ---------------------------------------------------------------------
 Center     Atomic      Atomic             Coordinates (Angstroms)
 Number     Number       Type             X           Y           Z
 ---------------------------------------------------------------------
      1         12           0       -3.926567   -0.487561   -0.165867
      2          6           0       -3.965147    2.925480    0.912038
      3          6           0       -4.528238    0.658277   -3.323099
      4          6           0       -4.348043   -3.500222   -1.061887
      5          6           0       -4.460011   -1.389135    3.158025
      6          7           0       -4.191225    1.555319   -0.976573
      7          6           0       -4.123254    2.781728   -0.468173
      8          6           0       -4.160070    3.902025   -1.550279
      9          6           0       -4.897249    3.102031   -2.715859
     10          6           0       -4.486624    1.689639   -2.338420
     11          6           0       -6.418016    3.203664   -2.657194
     12          6           0       -2.725989    4.355921   -1.985160
     13          6           0       -2.668402    5.658820   -2.787962
     14          1           0       -1.539579    6.555063   -2.588331
     15          7           0       -3.889037   -1.306882   -1.963130
     16          6           0       -4.143448   -0.687684   -3.140905
     17          6           0       -3.987682   -1.721369   -4.186808
     18          6           0       -3.808352   -3.033902   -3.506225
     19          6           0       -4.037115   -2.665225   -2.132499
     20          6           0       -3.969073   -1.412681   -5.652453
     21          6           0       -3.492857   -4.405103   -4.014557
     22          8           0       -3.610673   -5.446015   -3.281620
     23          6           0       -3.122384   -4.509056   -5.437577
     24          7           0       -4.562383   -2.195932    0.851404
     25          6           0       -4.599876   -3.386930    0.243866
     26          6           0       -4.809677   -4.496913    1.230710
     27          6           0       -4.664934   -3.835813    2.676998
     28          6           0       -4.466850   -2.362164    2.244113
     29          6           0       -6.154828   -5.230275    1.137112
     30          6           0       -3.627444   -4.467939    3.638482
     31          6           0       -2.229670   -4.235465    3.110010
     32          7           0       -3.996858    0.540822    1.744246
     33          6           0       -4.256081   -0.028582    2.999339
     34          6           0       -4.306570    1.077279    3.973295
     35          6           0       -4.088250    2.222195    3.209523
     36          6           0       -3.938636    1.857230    1.841054
     37          6           0       -4.588815    0.952269    5.362231
     38          6           0       -3.971082    3.671264    3.227613
     39          8           0       -3.919052    4.526057    4.113115
     40          6           0       -4.008116    4.195759    1.724496
     41          6           0       -2.879170    5.175964    1.557200
     42          8           0       -1.690889    4.799257    1.615888
     43          8           0       -3.368190    6.347145    1.121611
     44          6           0       -2.296220    7.355536    0.906711
     45          1           0       -4.947816    0.883178   -4.305604
     46          1           0       -4.392681   -4.562561   -1.310647
     47          1           0       -4.538120   -1.601826    4.225787
     48          1           0       -4.743630    4.780742   -1.275073
     49          1           0       -4.504259    3.361017   -3.698817
     50          1           0       -6.749075    3.703686   -1.747085
     51          1           0       -6.779524    2.175413   -2.679674
     52          1           0       -6.809493    3.678654   -3.557142
     53          1           0       -2.339859    3.661200   -2.731033
     54          1           0       -2.067724    4.436502   -1.119412
     55          1           0       -3.608154    6.208106   -2.724246
     56          1           0       -2.573787    5.405445   -3.843921
     57          1           0       -4.289396   -0.390579   -5.850559
     58          1           0       -4.735045   -2.032474   -6.118127
     59          1           0       -2.999882   -1.624634   -6.104202
     60          1           0       -3.937667   -4.124466   -6.050727
     61          1           0       -2.844759   -5.549797   -5.600772
     62          1           0       -2.264891   -3.862795   -5.627312
     63          1           0       -4.052799   -5.271575    1.114688
     64          1           0       -5.600039   -3.867586    3.236681
     65          1           0       -6.057675   -6.305612    0.985734
     66          1           0       -6.732826   -4.773017    0.334538
     67          1           0       -6.815797   -5.083565    1.990934
     68          1           0       -3.772833   -5.546048    3.697548
     69          1           0       -3.681442   -4.069991    4.651878
     70          1           0       -2.102356   -5.046172    2.393507
     71          1           0       -1.500463   -4.309912    3.917428
     72          1           0       -2.163964   -3.298368    2.556820
     73          1           0       -3.875931    1.595904    5.877497
     74          1           0       -4.499425   -0.082265    5.692917
     75          1           0       -5.616814    1.313031    5.392657
     76          1           0       -4.981368    4.663652    1.579651
     77          1           0       -2.555413    8.231309    1.501753
     78          1           0       -2.204821    7.485582   -0.171779
     79          1           0       -1.315499    7.111271    1.316418
     80         12           0        3.984807   -1.026223    0.325454
     81          6           0        4.062639    2.489855   -0.388794
     82          6           0        3.277709   -1.528792   -2.973338
     83          6           0        3.465289   -4.081758    1.004621
     84          6           0        3.561395   -0.193586    3.683000
     85          7           0        3.729389    0.378609   -1.363771
     86          6           0        3.843006    1.687956   -1.528156
     87          6           0        3.793990    2.157180   -3.007006
     88          6           0        2.985375    0.915718   -3.626509
     89          6           0        3.378167   -0.160378   -2.616350
     90          6           0        1.477046    1.093087   -3.573226
     91          6           0        5.223503    2.285507   -3.641061
     92          6           0        5.270062    3.031139   -4.976587
     93          1           0        6.431642    3.867190   -5.266848
     94          7           0        3.935123   -2.615373   -0.862275
     95          6           0        3.652546   -2.636585   -2.181739
     96          6           0        3.727027   -4.048952   -2.586482
     97          6           0        3.914610   -4.877755   -1.364754
     98          6           0        3.754613   -3.870164   -0.335560
     99          6           0        3.701639   -4.486391   -4.022249
    100          6           0        4.179750   -6.338105   -1.156731
    101          8           0        4.070585   -6.884548   -0.002468
    102          6           0        4.479773   -7.127852   -2.359972
    103          7           0        3.362154   -2.000437    2.053330
    104          6           0        3.268325   -3.341082    2.095451
    105          6           0        3.071039   -3.829892    3.510565
    106          6           0        3.294822   -2.549634    4.442461
    107          6           0        3.504000   -1.476239    3.351839
    108          6           0        1.707610   -4.449544    3.816328
    109          6           0        4.357107   -2.675936    5.568634
    110          6           0        5.738017   -2.793376    4.964746
    111          7           0        4.019546    0.790977    1.493630
    112          6           0        3.792312    0.917208    2.881621
    113          6           0        3.806486    2.360691    3.195593
    114          6           0        4.019752    2.980082    1.954884
    115          6           0        4.110509    1.993295    0.936306
    116          6           0        3.588760    2.934882    4.479743
    117          6           0        4.178125    4.244818    1.273672
    118          8           0        4.277687    5.417754    1.631519
    119          6           0        4.086683    3.990129   -0.292580
    120          6           0        5.229087    4.716046   -0.948685
    121          8           0        6.404368    4.372054   -0.731905
    122          8           0        4.741530    5.549198   -1.885986
    123          6           0        5.837423    6.283842   -2.572365
    124          1           0        2.830405   -1.782682   -3.934769
    125          1           0        3.386684   -5.127540    1.310607
    126          1           0        3.534476    0.142937    4.721605
    127          1           0        3.247166    3.077492   -3.173688
    128          1           0        3.351916    0.660515   -4.617406
    129          1           0        1.194489    1.975424   -3.018446
    130          1           0        1.093141    0.203761   -3.090774
    131          1           0        1.061219    1.090509   -4.584858
    132          1           0        5.560598    1.293411   -3.967929
    133          1           0        5.907479    2.738729   -2.950131
    134          1           0        4.341836    3.580893   -5.174329
    135          1           0        5.322933    2.295653   -5.782990
    136          1           0        3.389282   -3.670610   -4.685838
    137          1           0        2.904896   -5.232326   -4.115215
    138          1           0        4.644532   -4.934596   -4.342761
    139          1           0        3.650522   -7.050023   -3.059076
    140          1           0        4.728057   -8.127755   -1.998833
    141          1           0        5.352638   -6.690145   -2.857088
    142          1           0        3.806430   -4.583054    3.765600
    143          1           0        2.377469   -2.273791    4.983024
    144          1           0        1.775273   -5.482789    4.206078
    145          1           0        1.110047   -4.421549    2.914843
    146          1           0        1.092721   -3.889229    4.518581
    147          1           0        4.191532   -3.589670    6.144687
    148          1           0        4.345007   -1.847245    6.268726
    149          1           0        5.812570   -3.858199    4.724555
    150          1           0        6.497685   -2.497166    5.685296
    151          1           0        5.803989   -2.237472    4.022269
    152          1           0        4.328470    3.714952    4.601461
    153          1           0        3.664269    2.187938    5.267232
    154          1           0        2.565984    3.301623    4.358536
    155          1           0        3.118127    4.362038   -0.628975
    156          1           0        5.618850    7.351381   -2.471020
    157          1           0        5.875657    5.872721   -3.598658
    158          1           0        6.827941    6.228434   -2.136170
 ---------------------------------------------------------------------

 SCF Done:  E(RCAM-B3LYP) =  -4069.81150501     A.U. after   19 cycles

 Excitation energies and oscillator strengths:

 Excited State   1:      Singlet-A      1.6409 eV  755.57 nm  f=0.0433  <S**2>=0.000
     309 -> 315       -0.11534
     310 -> 316        0.11788
     311 -> 313        0.47940
     312 -> 314        0.49331
 This state for optimization and/or second-order correction.
 Total Energy, E(TD-HF/TD-DFT) =  -4069.75120203
 Copying the excited state density for this state as the 1-particle RhoCI density.

 Excited State   2:      Singlet-A      1.7064 eV  726.57 nm  f=0.6234  <S**2>=0.000
     309 -> 315       -0.13075
     310 -> 316       -0.12700
     311 -> 313        0.49027
     312 -> 314       -0.47668

 Excited State   3:      Singlet-A      2.1805 eV  568.61 nm  f=0.0177  <S**2>=0.000
     309 -> 313       -0.40720
     310 -> 314        0.50042
     311 -> 315       -0.16855
     312 -> 316       -0.20834

 Excited State   4:      Singlet-A      2.1952 eV  564.79 nm  f=0.1582  <S**2>=0.000
     309 -> 313        0.49550
     310 -> 314        0.40198
     311 -> 315        0.21884
     312 -> 316       -0.17889

 Excited State   5:      Singlet-A      2.2348 eV  554.78 nm  f=0.0000  <S**2>=0.000
     312 -> 313        0.70707

 The electronic state is 1-A.
 Alpha  occ. eigenvalues --  -46.87904 -46.87399 -19.26210 -19.26197 -19.18973
 Alpha  occ. eigenvalues --  -19.18972 -19.18972 -19.18454 -19.18241 -19.17717
 Alpha  occ. eigenvalues --  -14.42563 -14.42254 -14.41553 -14.41105 -14.39520
 Alpha  occ. eigenvalues --  -14.39087 -14.38691 -14.38306 -10.39043 -10.38890
 Alpha  occ. eigenvalues --  -10.35612 -10.35135 -10.34456 -10.33895 -10.31663
 Alpha  occ. eigenvalues --  -10.31518 -10.31511 -10.31054 -10.31024 -10.30805
 Alpha  occ. eigenvalues --  -10.30683 -10.30614 -10.30325 -10.30100 -10.30063
 Alpha  occ. eigenvalues --  -10.30009 -10.29910 -10.29753 -10.29617 -10.29382
 Alpha  occ. eigenvalues --  -10.29171 -10.29099 -10.28860 -10.28636 -10.28609
 Alpha  occ. eigenvalues --  -10.28573 -10.28475 -10.28231 -10.28127 -10.28005
 Alpha  occ. eigenvalues --  -10.27911 -10.27848 -10.27718 -10.27694 -10.27692
 Alpha  occ. eigenvalues --  -10.27591 -10.27519 -10.27502 -10.27436 -10.27322
 Alpha  occ. eigenvalues --  -10.27265 -10.27220 -10.27201 -10.27182 -10.27176
 Alpha  occ. eigenvalues --  -10.26845 -10.26745 -10.26658 -10.26584 -10.26332
 Alpha  occ. eigenvalues --  -10.26272 -10.26187 -10.26134 -10.25962 -10.25961
 Alpha  occ. eigenvalues --  -10.25943 -10.25665 -10.25496 -10.25349 -10.25259
 Alpha  occ. eigenvalues --  -10.24942 -10.24886 -10.24773 -10.24559 -10.24542
 Alpha  occ. eigenvalues --  -10.24426  -3.16646  -3.16149  -1.91528  -1.91115
 Alpha  occ. eigenvalues --   -1.91032  -1.90957  -1.90621  -1.90456  -1.16566
 Alpha  occ. eigenvalues --   -1.16481  -1.08689  -1.08322  -1.07373  -1.06754
 Alpha  occ. eigenvalues --   -1.06708  -1.06596  -1.04693  -1.04249  -1.03867
 Alpha  occ. eigenvalues --   -1.03402  -1.03345  -1.02768  -1.02519  -1.01835
 Alpha  occ. eigenvalues --   -0.92061  -0.91706  -0.89615  -0.89300  -0.89257
 Alpha  occ. eigenvalues --   -0.88996  -0.88377  -0.88005  -0.87986  -0.87789
 Alpha  occ. eigenvalues --   -0.87480  -0.87436  -0.87402  -0.86861  -0.85095
 Alpha  occ. eigenvalues --   -0.84818  -0.84017  -0.83669  -0.83138  -0.82747
 Alpha  occ. eigenvalues --   -0.82702  -0.82460  -0.81614  -0.81373  -0.80673
 Alpha  occ. eigenvalues --   -0.80208  -0.78940  -0.78356  -0.77330  -0.77004
 Alpha  occ. eigenvalues --   -0.76933  -0.76715  -0.75992  -0.75634  -0.74976
 Alpha  occ. eigenvalues --   -0.74603  -0.72885  -0.72417  -0.71762  -0.71366
 Alpha  occ. eigenvalues --   -0.70001  -0.69560  -0.68986  -0.68632  -0.67746
 Alpha  occ. eigenvalues --   -0.67355  -0.67348  -0.67012  -0.65388  -0.65080
 Alpha  occ. eigenvalues --   -0.64933  -0.64693  -0.64530  -0.64447  -0.64360
 Alpha  occ. eigenvalues --   -0.63981  -0.62297  -0.62074  -0.60579  -0.60089
 Alpha  occ. eigenvalues --   -0.59917  -0.59594  -0.59081  -0.58744  -0.58594
 Alpha  occ. eigenvalues --   -0.58177  -0.57633  -0.57389  -0.57276  -0.56987
 Alpha  occ. eigenvalues --   -0.56427  -0.55983  -0.55935  -0.55704  -0.55639
 Alpha  occ. eigenvalues --   -0.55397  -0.55214  -0.55032  -0.54561  -0.54293
 Alpha  occ. eigenvalues --   -0.54004  -0.53753  -0.53428  -0.53337  -0.52992
 Alpha  occ. eigenvalues --   -0.52973  -0.52930  -0.52893  -0.52702  -0.52524
 Alpha  occ. eigenvalues --   -0.52452  -0.52201  -0.52021  -0.51737  -0.51485
 Alpha  occ. eigenvalues --   -0.51440  -0.51275  -0.50948  -0.50773  -0.50258
 Alpha  occ. eigenvalues --   -0.50143  -0.50066  -0.49788  -0.49659  -0.49636
 Alpha  occ. eigenvalues --   -0.49316  -0.49267  -0.49195  -0.48985  -0.48862
 Alpha  occ. eigenvalues --   -0.48657  -0.48594  -0.48517  -0.48329  -0.48161
 Alpha  occ. eigenvalues --   -0.48095  -0.47802  -0.47400  -0.47391  -0.46918
 Alpha  occ. eigenvalues --   -0.46886  -0.46663  -0.46490  -0.46463  -0.46380
 Alpha  occ. eigenvalues --   -0.46230  -0.46032  -0.45879  -0.45827  -0.45555
 Alpha  occ. eigenvalues --   -0.45296  -0.44989  -0.44673  -0.44625  -0.44334
 Alpha  occ. eigenvalues --   -0.44260  -0.44222  -0.44203  -0.44102  -0.43911
 Alpha  occ. eigenvalues --   -0.43854  -0.43689  -0.43533  -0.43491  -0.43357
 Alpha  occ. eigenvalues --   -0.43188  -0.43111  -0.42792  -0.42719  -0.42646
 Alpha  occ. eigenvalues --   -0.42599  -0.42335  -0.42082  -0.41795  -0.41764
 Alpha  occ. eigenvalues --   -0.41639  -0.41405  -0.41275  -0.41236  -0.40994
 Alpha  occ. eigenvalues --   -0.40958  -0.40781  -0.40658  -0.40536  -0.40504
 Alpha  occ. eigenvalues --   -0.40364  -0.40290  -0.40078  -0.39507  -0.39224
 Alpha  occ. eigenvalues --   -0.38558  -0.38160  -0.37852  -0.37510  -0.37417
 Alpha  occ. eigenvalues --   -0.37371  -0.37043  -0.36979  -0.36716  -0.36591
 Alpha  occ. eigenvalues --   -0.36230  -0.36007  -0.34390  -0.33992  -0.33755
 Alpha  occ. eigenvalues --   -0.33654  -0.33279  -0.32909  -0.31497  -0.31137
 Alpha  occ. eigenvalues --   -0.31017  -0.30717  -0.30095  -0.29626  -0.29580
 Alpha  occ. eigenvalues --   -0.29431  -0.29043  -0.28868  -0.24184  -0.23767
 Alpha  occ. eigenvalues --   -0.21243  -0.20847
 Alpha virt. eigenvalues --   -0.08893  -0.08506  -0.01862  -0.01427  -0.00195
 Alpha virt. eigenvalues --    0.00234   0.02099   0.02403   0.02625   0.03595
 Alpha virt. eigenvalues --    0.04616   0.04960   0.05113   0.05376   0.06068

 Mulliken charges:
               1
     1  Mg   0.838613
     2  C   -0.002581
     3  C   -0.095123
     4  C   -0.045051
     5  C   -0.064339
     6  N   -0.256711
     7  C   -0.052624
     8  C   -0.013754
     9  C   -0.086848
    10  C    0.046071
    11  C    0.104820
    12  C    0.052739
    13  C   -0.072512
    14  H    0.038292
    15  N   -0.433231
    16  C    0.168081
    17  C   -0.178458
    18  C   -0.004542
    19  C    0.149151
    20  C    0.110386
    21  C    0.011971
    22  O   -0.248670
    23  C    0.063081
    24  N   -0.341178
    25  C    0.041131
    26  C   -0.028707
    27  C   -0.024136
    28  C    0.075259
    29  C    0.076042
    30  C    0.039243
    31  C   -0.013977
    32  N   -0.310694
    33  C    0.081016
    34  C   -0.170129
    35  C    0.008539
    36  C    0.083496
    37  C    0.127387
    38  C    0.046211
    39  O   -0.187334
    40  C   -0.005339
    41  C    0.212902
    42  O   -0.256335
    43  O   -0.305402
    44  C    0.156071
    45  H   -0.017916
    46  H   -0.016431
    47  H   -0.041670
    48  H    0.001709
    49  H   -0.004738
    50  H    0.025828
    51  H    0.016505
    52  H    0.016680
    53  H    0.009409
    54  H    0.044733
    55  H    0.018597
    56  H    0.016556
    57  H    0.005759
    58  H    0.027218
    59  H    0.036622
    60  H    0.037864
    61  H    0.035325
    62  H    0.028338
    63  H    0.017708
    64  H    0.009683
    65  H    0.023714
    66  H    0.012428
    67  H    0.004825
    68  H    0.006825
    69  H    0.002935
    70  H    0.013240
    71  H    0.019288
    72  H    0.029797
    73  H    0.047387
    74  H    0.008774
    75  H    0.046551
    76  H    0.035304
    77  H    0.043542
    78  H    0.045798
    79  H    0.057900
    80  Mg   0.837111
    81  C   -0.015494
    82  C   -0.087932
    83  C   -0.044972
    84  C   -0.063438
    85  N   -0.254361
    86  C   -0.049348
    87  C   -0.014838
    88  C   -0.091159
    89  C    0.045359
    90  C    0.113302
    91  C    0.062802
    92  C   -0.077207
    93  H    0.034377
    94  N   -0.423468
    95  C    0.162406
    96  C   -0.174685
    97  C   -0.007555
    98  C    0.151285
    99  C    0.099333
   100  C    0.015869
   101  O   -0.253903
   102  C    0.061171
   103  N   -0.349894
   104  C    0.036467
   105  C   -0.014477
   106  C   -0.036582
   107  C    0.089383
   108  C    0.061373
   109  C    0.034510
   110  C   -0.006983
   111  N   -0.325123
   112  C    0.079303
   113  C   -0.159094
   114  C    0.005578
   115  C    0.096178
   116  C    0.129110
   117  C    0.046805
   118  O   -0.187697
   119  C   -0.000591
   120  C    0.210581
   121  O   -0.251465
   122  O   -0.305886
   123  C    0.152278
   124  H   -0.022319
   125  H   -0.016162
   126  H   -0.039758
   127  H   -0.001464
   128  H   -0.005908
   129  H    0.024807
   130  H    0.016123
   131  H    0.011989
   132  H    0.013878
   133  H    0.037886
   134  H    0.019500
   135  H    0.018843
   136  H    0.006514
   137  H    0.026277
   138  H    0.038846
   139  H    0.038842
   140  H    0.035753
   141  H    0.033070
   142  H    0.013097
   143  H    0.012627
   144  H    0.023557
   145  H    0.017705
   146  H    0.009543
   147  H    0.005269
   148  H    0.003958
   149  H    0.010539
   150  H    0.017620
   151  H    0.030376
   152  H    0.044553
   153  H    0.006951
   154  H    0.056813
   155  H    0.038237
   156  H    0.042924
   157  H    0.048666
   158  H    0.053507
 Sum of Mulliken charges =  -0.00000

 Dipole moment (field-independent basis, Debye):
    X=             -3.7944    Y=             -1.5985    Z=             -7.1156  Tot=              8.2209
 Quadrupole moment (field-independent basis, Debye-Ang):
   XX=           -519.8642   YY=           -543.2600   ZZ=           -455.4938
   XY=            -11.1033   XZ=             -3.8155   YZ=            -41.2525

 Normal termination of Gaussian 16 at Thu Sep  9 05:57:57 2021.
