 Gaussian 16, Revision A.03,
 Gaussian 16:  ES64L-G16RevA.03 25-Dec-2016

 -----------------------------------
 #p cam-b3lyp/Def2SVP td=(nstates=5)
 -----------------------------------

 --------------------------------
 TDDFT excited states in gaussian
 --------------------------------
 Symbolic Z-matrix:
 Charge =  0 Multiplicity = 1

                         Standard orientation:
 ---------------------------------------------------------------------
 Center     Atomic      Atomic             Coordinates (Angstroms)
 Number     Number       Type             X           Y           Z
 ---------------------------------------------------------------------
      1         12           0        8.209654    0.408218    0.552629
      2          6           0        8.440742   -2.675380   -1.250211
      3          6           0        9.223742    1.980428   -2.300938
      4          6           0        8.451561    3.081668    2.241051
      5          6           0        8.325330   -1.469123    3.486547
      6          7           0        8.733438   -0.358718   -1.456875
      7          6           0        8.723227   -1.555486   -2.035504
      8          6           0        8.967077   -1.500307   -3.573316
      9          6           0        9.744038   -0.110482   -3.655276
     10          6           0        9.174666    0.559473   -2.417173
     11          6           0       11.254253   -0.246057   -3.489834
     12          6           0        7.629508   -1.457703   -4.386226
     13          6           0        7.767883   -1.730780   -5.886771
     14          1           0        6.708187   -2.460499   -6.566406
     15          7           0        8.280518    2.292905   -0.035407
     16          6           0        8.705421    2.750749   -1.237539
     17          6           0        8.564822    4.221899   -1.186244
     18          6           0        8.203066    4.596037    0.209194
     19          6           0        8.324469    3.324503    0.875407
     20          6           0        8.720647    5.105673   -2.385582
     21          6           0        7.820471    5.895598    0.843934
     22          8           0        7.771899    6.044547    2.112803
     23          6           0        7.586919    7.029067   -0.069161
     24          7           0        8.587050    0.783732    2.571093
     25          6           0        8.580126    2.031027    3.053991
     26          6           0        8.591149    2.035894    4.553923
     27          6           0        8.360904    0.520829    5.002607
     28          6           0        8.337986   -0.139232    3.601871
     29          6           0        9.868961    2.574473    5.212058
     30          6           0        7.180501    0.244823    5.967433
     31          6           0        5.868776    0.504457    5.260988
     32          7           0        8.178371   -1.700648    1.065221
     33          6           0        8.259135   -2.257380    2.349822
     34          6           0        8.308983   -3.721616    2.183699
     35          6           0        8.270217   -3.915572    0.804307
     36          6           0        8.227053   -2.651677    0.149327
     37          6           0        8.438326   -4.675296    3.231650
     38          6           0        8.280079   -4.895818   -0.269415
     39          8           0        8.215059   -6.124833   -0.322198
     40          6           0        8.513840   -4.129317   -1.645518
     41          6           0        7.498240   -4.642319   -2.629741
     42          8           0        6.281497   -4.415379   -2.470361
     43          8           0        8.129865   -5.109032   -3.717753
     44          6           0        7.177993   -5.606377   -4.746705
     45          1           0        9.757965    2.554037   -3.060885
     46          1           0        8.427069    3.976066    2.867062
     47          1           0        8.276856   -2.122148    4.359852
     48          1           0        9.595291   -2.301547   -3.962914
     49          1           0        9.476027    0.453511   -4.548475
     50          1           0       11.535134   -1.262269   -3.213537
     51          1           0       11.524095    0.452294   -2.697379
     52          1           0       11.774401    0.099434   -4.383623
     53          1           0        7.260402   -0.432595   -4.417470
     54          1           0        6.897390   -2.144927   -3.960724
     55          1           0        8.741262   -2.160174   -6.125648
     56          1           0        7.757712   -0.774724   -6.410273
     57          1           0        9.148114    4.564689   -3.228881
     58          1           0        9.471815    5.854150   -2.134111
     59          1           0        7.786773    5.598572   -2.656250
     60          1           0        8.490328    7.215037   -0.650380
     61          1           0        7.236371    7.850493    0.554719
     62          1           0        6.813139    6.751692   -0.785595
     63          1           0        7.784377    2.651948    4.948919
     64          1           0        9.228674    0.111132    5.520098
     65          1           0        9.693031    3.407388    5.893238
     66          1           0       10.562625    2.856466    4.420477
     67          1           0       10.451282    1.831080    5.755827
     68          1           0        7.223583    0.919279    6.821950
     69          1           0        7.167439   -0.775585    6.350642
     70          1           0        5.742990    1.581171    5.369146
     71          1           0        5.058532   -0.034644    5.753009
     72          1           0        5.941801    0.290425    4.194524
     73          1           0        7.736897   -5.477423    3.002396
     74          1           0        8.225325   -4.228231    4.202406
     75          1           0        9.485875   -4.955308    3.121695
     76          1           0        9.534165   -4.349750   -1.957718
     77          1           0        7.452398   -6.638351   -4.965717
     78          1           0        7.207083   -4.889920   -5.567831
     79          1           0        6.143414   -5.732259   -4.425552
     80         12           0       -7.657917    0.642658   -0.082868
     81          6           0      -10.287814   -1.766426    0.315882
     82          6           0       -9.946186    2.668221   -1.597959
     83          6           0       -5.275735    2.592737   -0.850891
     84          6           0       -5.390161   -1.958599    0.403350
     85          7           0       -9.808503    0.374314   -0.524688
     86          6           0      -10.715277   -0.557268   -0.271175
     87          6           0      -12.174640   -0.139557   -0.595744
     88          6           0      -11.862735    0.993108   -1.690572
     89          6           0      -10.465737    1.401986   -1.228085
     90          6           0      -11.757296    0.449447   -3.105726
     91          6           0      -12.917296    0.456144    0.651504
     92          6           0      -14.432491    0.597866    0.490637
     93          1           0      -15.280421    0.372952    1.658073
     94          7           0       -7.684976    2.550983   -0.627058
     95          6           0       -8.704892    3.217150   -1.207813
     96          6           0       -8.217484    4.587833   -1.426439
     97          6           0       -6.771330    4.632593   -1.078085
     98          6           0       -6.510619    3.224877   -0.853427
     99          6           0       -9.117202    5.714420   -1.844445
    100          6           0       -5.783135    5.754923   -0.977843
    101          8           0       -4.523037    5.536878   -0.891530
    102          6           0       -6.326230    7.117476   -1.077695
    103          7           0       -5.630265    0.328038   -0.417550
    104          6           0       -4.805986    1.356198   -0.684697
    105          6           0       -3.359533    0.928092   -0.614755
    106          6           0       -3.378036   -0.550316   -0.005205
    107          6           0       -4.904433   -0.764517    0.092859
    108          6           0       -2.602830    0.921290   -1.942822
    109          6           0       -2.513698   -0.800398    1.260915
    110          6           0       -3.083706   -0.036202    2.434150
    111          7           0       -7.777646   -1.441434    0.474153
    112          6           0       -6.707616   -2.355004    0.594561
    113          6           0       -7.296013   -3.679273    0.881841
    114          6           0       -8.679656   -3.446878    0.885872
    115          6           0       -8.936310   -2.078727    0.599915
    116          6           0       -6.571346   -4.892856    1.049683
    117          6           0       -9.981878   -4.050043    1.056512
    118          8           0      -10.386891   -5.160324    1.398522
    119          6           0      -11.085823   -3.015093    0.570107
    120          6           0      -12.162402   -2.957148    1.618977
    121          8           0      -11.916664   -2.509380    2.752876
    122          8           0      -13.348922   -3.234459    1.048336
    123          6           0      -14.449874   -3.178484    2.046633
    124          1           0      -10.524103    3.285068   -2.286720
    125          1           0       -4.412043    3.244595   -1.001210
    126          1           0       -4.746026   -2.800838    0.664921
    127          1           0      -12.784368   -0.921240   -1.032765
    128          1           0      -12.553032    1.828061   -1.602790
    129          1           0      -11.792564   -0.629668   -3.126427
    130          1           0      -10.808903    0.804379   -3.487316
    131          1           0      -12.525362    0.900031   -3.740846
    132          1           0      -12.640498    1.512486    0.762252
    133          1           0      -12.699333   -0.114590    1.533192
    134          1           0      -14.809735    0.035841   -0.372357
    135          1           0      -14.660207    1.639676    0.252336
    136          1           0      -10.092297    5.345167   -2.185411
    137          1           0       -8.670595    6.166044   -2.736878
    138          1           0       -9.218278    6.481080   -1.073284
    139          1           0       -6.843802    7.231253   -2.027240
    140          1           0       -5.480704    7.783257   -0.894129
    141          1           0       -7.077386    7.253176   -0.291592
    142          1           0       -2.796574    1.574261    0.047550
    143          1           0       -3.002141   -1.292460   -0.724764
    144          1           0       -1.695008    1.553591   -1.931153
    145          1           0       -3.279943    1.242489   -2.723128
    146          1           0       -2.295380   -0.062196   -2.294128
    147          1           0       -1.499664   -0.422990    1.107817
    148          1           0       -2.430361   -1.848900    1.526806
    149          1           0       -2.665907    0.966336    2.302091
    150          1           0       -2.758838   -0.478570    3.373725
    151          1           0       -4.173902    0.048168    2.356642
    152          1           0       -7.008372   -5.401585    1.898619
    153          1           0       -5.510434   -4.704773    1.200906
    154          1           0       -6.770050   -5.373284    0.087924
    155          1           0      -11.466905   -3.369017   -0.388584
    156          1           0      -14.965319   -4.143126    2.008233
    157          1           0      -15.041915   -2.280396    1.788424
    158          1           0      -14.174928   -3.127144    3.093643
 ---------------------------------------------------------------------

 SCF Done:  E(RCAM-B3LYP) =  -4069.81189613     A.U. after   19 cycles

 Excitation energies and oscillator strengths:

 Excited State   1:      Singlet-A      1.6693 eV  742.75 nm  f=0.0201  <S**2>=0.000
     309 -> 315       -0.10188
     310 -> 316        0.13904
     311 -> 313       -0.40426
     312 -> 314        0.55471
 This state for optimization and/or second-order correction.
 Total Energy, E(TD-HF/TD-DFT) =  -4069.75055178
 Copying the excited state density for this state as the 1-particle RhoCI density.

 Excited State   2:      Singlet-A      1.6855 eV  735.59 nm  f=0.7354  <S**2>=0.000
     309 -> 315        0.14314
     310 -> 316        0.10374
     311 -> 313        0.55387
     312 -> 314        0.40372

 Excited State   3:      Singlet-A      2.1856 eV  567.29 nm  f=0.1056  <S**2>=0.000
     310 -> 314        0.64256
     312 -> 316       -0.27283

 Excited State   4:      Singlet-A      2.1932 eV  565.30 nm  f=0.0967  <S**2>=0.000
     309 -> 313        0.64058
     311 -> 315       -0.27867

 Excited State   5:      Singlet-A      2.7721 eV  447.26 nm  f=0.0000  <S**2>=0.000
     312 -> 313        0.70695

 The electronic state is 1-A.
 Alpha  occ. eigenvalues --  -46.87799 -46.87577 -19.26306 -19.26290 -19.19098
 Alpha  occ. eigenvalues --  -19.19046 -19.18790 -19.18651 -19.18174 -19.17976
 Alpha  occ. eigenvalues --  -14.42452 -14.42418 -14.41450 -14.41268 -14.39402
 Alpha  occ. eigenvalues --  -14.39271 -14.38591 -14.38516 -10.39103 -10.39026
 Alpha  occ. eigenvalues --  -10.35421 -10.35330 -10.34396 -10.34153 -10.31703
 Alpha  occ. eigenvalues --  -10.31702 -10.31410 -10.31229 -10.30952 -10.30908
 Alpha  occ. eigenvalues --  -10.30573 -10.30507 -10.30312 -10.30277 -10.30201
 Alpha  occ. eigenvalues --  -10.30044 -10.29921 -10.29797 -10.29628 -10.29355
 Alpha  occ. eigenvalues --  -10.29319 -10.29250 -10.28755 -10.28657 -10.28606
 Alpha  occ. eigenvalues --  -10.28551 -10.28365 -10.28328 -10.28120 -10.28077
 Alpha  occ. eigenvalues --  -10.27920 -10.27791 -10.27727 -10.27591 -10.27578
 Alpha  occ. eigenvalues --  -10.27495 -10.27462 -10.27442 -10.27409 -10.27406
 Alpha  occ. eigenvalues --  -10.27404 -10.27388 -10.27376 -10.27252 -10.27167
 Alpha  occ. eigenvalues --  -10.26979 -10.26719 -10.26636 -10.26370 -10.26364
 Alpha  occ. eigenvalues --  -10.26234 -10.26181 -10.26019 -10.25968 -10.25964
 Alpha  occ. eigenvalues --  -10.25845 -10.25834 -10.25738 -10.25423 -10.25272
 Alpha  occ. eigenvalues --  -10.24833 -10.24792 -10.24785 -10.24695 -10.24603
 Alpha  occ. eigenvalues --  -10.24584  -3.16543  -3.16327  -1.91424  -1.91209
 Alpha  occ. eigenvalues --   -1.91011  -1.90853  -1.90798  -1.90635  -1.16655
 Alpha  occ. eigenvalues --   -1.16583  -1.08634  -1.08583  -1.07189  -1.06904
 Alpha  occ. eigenvalues --   -1.06882  -1.06667  -1.04583  -1.04417  -1.03760
 Alpha  occ. eigenvalues --   -1.03579  -1.03234  -1.02950  -1.02412  -1.02026
 Alpha  occ. eigenvalues --   -0.91976  -0.91908  -0.89518  -0.89386  -0.89193
 Alpha  occ. eigenvalues --   -0.89084  -0.88284  -0.88105  -0.87871  -0.87703
 Alpha  occ. eigenvalues --   -0.87674  -0.87602  -0.87260  -0.87052  -0.84984
 Alpha  occ. eigenvalues --   -0.84929  -0.83935  -0.83759  -0.82946  -0.82857
 Alpha  occ. eigenvalues --   -0.82646  -0.82581  -0.81594  -0.81521  -0.80597
 Alpha  occ. eigenvalues --   -0.80367  -0.78789  -0.78558  -0.77218  -0.77064
 Alpha  occ. eigenvalues --   -0.76939  -0.76814  -0.75927  -0.75767  -0.74896
 Alpha  occ. eigenvalues --   -0.74700  -0.72774  -0.72611  -0.71672  -0.71496
 Alpha  occ. eigenvalues --   -0.69906  -0.69627  -0.68873  -0.68755  -0.67639
 Alpha  occ. eigenvalues --   -0.67521  -0.67219  -0.67136  -0.65291  -0.65200
 Alpha  occ. eigenvalues --   -0.64857  -0.64684  -0.64623  -0.64574  -0.64268
 Alpha  occ. eigenvalues --   -0.64093  -0.62309  -0.62200  -0.60431  -0.60259
 Alpha  occ. eigenvalues --   -0.59807  -0.59725  -0.58988  -0.58906  -0.58504
 Alpha  occ. eigenvalues --   -0.58340  -0.57594  -0.57480  -0.57307  -0.57145
 Alpha  occ. eigenvalues --   -0.56307  -0.56123  -0.55990  -0.55818  -0.55511
 Alpha  occ. eigenvalues --   -0.55383  -0.55342  -0.55147  -0.54531  -0.54390
 Alpha  occ. eigenvalues --   -0.53899  -0.53846  -0.53293  -0.53217  -0.53145
 Alpha  occ. eigenvalues --   -0.53069  -0.52920  -0.52826  -0.52742  -0.52608
 Alpha  occ. eigenvalues --   -0.52438  -0.52264  -0.51917  -0.51787  -0.51615
 Alpha  occ. eigenvalues --   -0.51594  -0.51199  -0.51114  -0.50548  -0.50410
 Alpha  occ. eigenvalues --   -0.50026  -0.49907  -0.49906  -0.49762  -0.49509
 Alpha  occ. eigenvalues --   -0.49420  -0.49213  -0.49132  -0.49098  -0.49030
 Alpha  occ. eigenvalues --   -0.48598  -0.48485  -0.48457  -0.48433  -0.48274
 Alpha  occ. eigenvalues --   -0.48272  -0.47691  -0.47516  -0.47291  -0.47038
 Alpha  occ. eigenvalues --   -0.46798  -0.46618  -0.46558  -0.46484  -0.46359
 Alpha  occ. eigenvalues --   -0.46181  -0.46165  -0.45991  -0.45829  -0.45738
 Alpha  occ. eigenvalues --   -0.45197  -0.45107  -0.44582  -0.44498  -0.44441
 Alpha  occ. eigenvalues --   -0.44394  -0.44142  -0.44089  -0.44054  -0.44015
 Alpha  occ. eigenvalues --   -0.43983  -0.43872  -0.43502  -0.43473  -0.43386
 Alpha  occ. eigenvalues --   -0.43306  -0.43028  -0.42858  -0.42816  -0.42710
 Alpha  occ. eigenvalues --   -0.42659  -0.42447  -0.42013  -0.41863  -0.41705
 Alpha  occ. eigenvalues --   -0.41587  -0.41536  -0.41378  -0.41140  -0.40909
 Alpha  occ. eigenvalues --   -0.40871  -0.40805  -0.40657  -0.40619  -0.40570
 Alpha  occ. eigenvalues --   -0.40381  -0.40239  -0.40168  -0.39441  -0.39294
 Alpha  occ. eigenvalues --   -0.38467  -0.38243  -0.37755  -0.37587  -0.37319
 Alpha  occ. eigenvalues --   -0.37268  -0.37165  -0.37125  -0.36728  -0.36697
 Alpha  occ. eigenvalues --   -0.36200  -0.36123  -0.34288  -0.34169  -0.33795
 Alpha  occ. eigenvalues --   -0.33793  -0.33188  -0.33091  -0.31321  -0.31209
 Alpha  occ. eigenvalues --   -0.31035  -0.30891  -0.30035  -0.29880  -0.29444
 Alpha  occ. eigenvalues --   -0.29323  -0.29251  -0.29130  -0.24082  -0.23952
 Alpha  occ. eigenvalues --   -0.21127  -0.21033
 Alpha virt. eigenvalues --   -0.08772  -0.08711  -0.01747  -0.01599  -0.00048
 Alpha virt. eigenvalues --    0.00041   0.02199   0.02290   0.03096   0.03309
 Alpha virt. eigenvalues --    0.04714   0.04805   0.05078   0.05230   0.06167

 Mulliken charges:
               1
     1  Mg   0.838252
     2  C   -0.003141
     3  C   -0.094081
     4  C   -0.045818
     5  C   -0.063981
     6  N   -0.256799
     7  C   -0.052613
     8  C   -0.013970
     9  C   -0.086994
    10  C    0.046303
    11  C    0.104786
    12  C    0.053450
    13  C   -0.071783
    14  H    0.035915
    15  N   -0.433223
    16  C    0.168454
    17  C   -0.177010
    18  C   -0.003819
    19  C    0.148721
    20  C    0.110138
    21  C    0.012516
    22  O   -0.249406
    23  C    0.062355
    24  N   -0.341089
    25  C    0.041226
    26  C   -0.028242
    27  C   -0.023932
    28  C    0.074665
    29  C    0.076130
    30  C    0.035132
    31  C   -0.004534
    32  N   -0.310380
    33  C    0.080138
    34  C   -0.169934
    35  C    0.008307
    36  C    0.082690
    37  C    0.127364
    38  C    0.045898
    39  O   -0.188541
    40  C   -0.005256
    41  C    0.212978
    42  O   -0.257625
    43  O   -0.304670
    44  C    0.157732
    45  H   -0.017498
    46  H   -0.016631
    47  H   -0.041492
    48  H    0.000951
    49  H   -0.003974
    50  H    0.025494
    51  H    0.016509
    52  H    0.016723
    53  H    0.011212
    54  H    0.043776
    55  H    0.017971
    56  H    0.018082
    57  H    0.005847
    58  H    0.026924
    59  H    0.039970
    60  H    0.037222
    61  H    0.036040
    62  H    0.031944
    63  H    0.016717
    64  H    0.009532
    65  H    0.023380
    66  H    0.012563
    67  H    0.004798
    68  H    0.006595
    69  H    0.004727
    70  H    0.009093
    71  H    0.017897
    72  H    0.028577
    73  H    0.047380
    74  H    0.009109
    75  H    0.046091
    76  H    0.035236
    77  H    0.043068
    78  H    0.046458
    79  H    0.053398
    80  Mg   0.837742
    81  C   -0.016962
    82  C   -0.087974
    83  C   -0.045552
    84  C   -0.064718
    85  N   -0.254574
    86  C   -0.049848
    87  C   -0.015088
    88  C   -0.090483
    89  C    0.045698
    90  C    0.114438
    91  C    0.062556
    92  C   -0.077805
    93  H    0.034756
    94  N   -0.423415
    95  C    0.162842
    96  C   -0.174863
    97  C   -0.007969
    98  C    0.152084
    99  C    0.099456
   100  C    0.015437
   101  O   -0.253352
   102  C    0.061250
   103  N   -0.350111
   104  C    0.037533
   105  C   -0.019910
   106  C   -0.035195
   107  C    0.088841
   108  C    0.073650
   109  C    0.034682
   110  C   -0.007759
   111  N   -0.324156
   112  C    0.078499
   113  C   -0.162897
   114  C    0.002198
   115  C    0.096288
   116  C    0.131420
   117  C    0.042442
   118  O   -0.187866
   119  C    0.000892
   120  C    0.211236
   121  O   -0.251035
   122  O   -0.305647
   123  C    0.152061
   124  H   -0.019975
   125  H   -0.015697
   126  H   -0.039520
   127  H   -0.000742
   128  H   -0.004503
   129  H    0.022425
   130  H    0.014392
   131  H    0.016037
   132  H    0.013898
   133  H    0.037685
   134  H    0.020715
   135  H    0.019488
   136  H    0.008610
   137  H    0.025791
   138  H    0.039587
   139  H    0.038012
   140  H    0.036105
   141  H    0.033908
   142  H    0.014421
   143  H    0.013573
   144  H    0.024924
   145  H    0.010970
   146  H    0.006705
   147  H    0.007330
   148  H    0.004651
   149  H    0.010757
   150  H    0.017992
   151  H    0.029520
   152  H    0.046000
   153  H    0.009307
   154  H    0.047102
   155  H    0.034919
   156  H    0.043840
   157  H    0.049396
   158  H    0.053555
 Sum of Mulliken charges =  -0.00000

 Dipole moment (field-independent basis, Debye):
    X=              0.8086    Y=              6.2617    Z=             -5.3306  Tot=              8.2630
 Quadrupole moment (field-independent basis, Debye-Ang):
   XX=           -430.3699   YY=           -549.0210   ZZ=           -477.7681
   XY=            -28.7998   XZ=             10.9831   YZ=            -11.3533

 Normal termination of Gaussian 16 at Sun Sep 12 08:54:04 2021.
