 Gaussian 16, Revision A.03,
 Gaussian 16:  ES64L-G16RevA.03 25-Dec-2016

 -----------------------------------
 #p cam-b3lyp/Def2SVP td=(nstates=5)
 -----------------------------------

 --------------------------------
 TDDFT excited states in gaussian
 --------------------------------
 Symbolic Z-matrix:
 Charge =  0 Multiplicity = 1

                         Standard orientation:
 ---------------------------------------------------------------------
 Center     Atomic      Atomic             Coordinates (Angstroms)
 Number     Number       Type             X           Y           Z
 ---------------------------------------------------------------------
      1         12           0       15.924205   -0.639906    0.488486
      2          6           0       16.198615    2.062163   -1.842981
      3          6           0       16.722296    1.592765    2.942319
      4          6           0       16.133915   -3.086214    2.495527
      5          6           0       16.270796   -2.812475   -2.214379
      6          7           0       16.378533    1.525975    0.431978
      7          6           0       16.391501    2.456649   -0.517152
      8          6           0       16.554381    3.903185    0.038166
      9          6           0       17.264460    3.562203    1.424354
     10          6           0       16.729776    2.156136    1.631751
     11          6           0       18.785615    3.500404    1.330702
     12          6           0       15.176722    4.613613    0.259702
     13          6           0       15.250656    6.126385    0.486436
     14          1           0       14.190889    6.967399   -0.049227
     15          7           0       15.882398   -0.684267    2.463108
     16          6           0       16.225283    0.321698    3.303199
     17          6           0       16.023059   -0.202724    4.670959
     18          6           0       15.716482   -1.655953    4.560379
     19          6           0       15.927188   -1.875394    3.152251
     20          6           0       16.078928    0.655048    5.897685
     21          6           0       15.309928   -2.686039    5.566247
     22          8           0       15.319289   -3.936671    5.300906
     23          6           0       14.980860   -2.192475    6.915747
     24          7           0       16.386655   -2.658250    0.223796
     25          6           0       16.349518   -3.515055    1.250193
     26          6           0       16.436382   -4.936276    0.778470
     27          6           0       16.295882   -4.883768   -0.811264
     28          6           0       16.230927   -3.347065   -0.991803
     29          6           0       17.721069   -5.688306    1.152691
     30          6           0       15.179183   -5.749015   -1.447465
     31          6           0       13.823188   -5.207996   -1.052908
     32          7           0       16.011513   -0.450988   -1.672008
     33          6           0       16.181677   -1.486147   -2.602688
     34          6           0       16.287226   -0.858317   -3.932634
     35          6           0       16.187092    0.508389   -3.679785
     36          6           0       16.055354    0.722306   -2.277938
     37          6           0       16.511272   -1.540671   -5.160897
     38          6           0       16.185477    1.839137   -4.265418
     39          8           0       16.171846    2.280433   -5.415446
     40          6           0       16.315286    2.904464   -3.088959
     41          6           0       15.274558    3.965950   -3.320132
     42          8           0       14.058682    3.700963   -3.226353
     43          8           0       15.870051    5.166960   -3.379326
     44          6           0       14.889952    6.267949   -3.577777
     45          1           0       17.191606    2.146750    3.757665
     46          1           0       16.101990   -3.966107    3.141443
     47          1           0       16.295376   -3.431812   -3.112861
     48          1           0       17.196572    4.549982   -0.559887
     49          1           0       16.927005    4.218106    2.226624
     50          1           0       19.124461    3.573785    0.297397
     51          1           0       19.064406    2.535730    1.755170
     52          1           0       19.244101    4.253668    1.971920
     53          1           0       14.761888    4.302379    1.218403
     54          1           0       14.497985    4.405900   -0.568246
     55          1           0       16.228567    6.523174    0.212287
     56          1           0       15.172011    6.315521    1.557063
     57          1           0       16.486395    1.641210    5.678595
     58          1           0       16.808323    0.202880    6.569427
     59          1           0       15.111803    0.721672    6.396245
     60          1           0       15.844597   -1.671004    7.328755
     61          1           0       14.626707   -3.058086    7.474446
     62          1           0       14.184653   -1.451730    6.836372
     63          1           0       15.624432   -5.534967    1.189243
     64          1           0       17.205921   -5.212962   -1.313394
     65          1           0       17.543544   -6.605898    1.714130
     66          1           0       18.360649   -5.005565    1.711343
     67          1           0       18.362275   -5.945245    0.309925
     68          1           0       15.235919   -6.772515   -1.078446
     69          1           0       15.230355   -5.785516   -2.535720
     70          1           0       13.655934   -5.659447   -0.075641
     71          1           0       13.063375   -5.528774   -1.766348
     72          1           0       13.851347   -4.127316   -0.912107
     73          1           0       15.834985   -1.090664   -5.887602
     74          1           0       16.328374   -2.610126   -5.058825
     75          1           0       17.563170   -1.311244   -5.330393
     76          1           0       17.327149    3.305359   -3.139333
     77          1           0       15.197906    6.815083   -4.468868
     78          1           0       14.845896    6.816915   -2.636979
     79          1           0       13.879514    5.968984   -3.858802
     80         12           0      -15.802868   -0.645287   -0.503963
     81          6           0      -16.774920    1.825955    1.909984
     82          6           0      -15.920161    1.822220   -2.856035
     83          6           0      -15.389654   -2.876442   -2.721748
     84          6           0      -16.860863   -3.073238    1.761292
     85          7           0      -16.296283    1.506516   -0.367712
     86          6           0      -16.590622    2.347350    0.612446
     87          6           0      -16.614321    3.841595    0.192634
     88          6           0      -16.903255    3.646404   -1.374937
     89          6           0      -16.306817    2.252832   -1.561747
     90          6           0      -18.383980    3.581100   -1.710415
     91          6           0      -15.237866    4.553501    0.438723
     92          6           0      -15.277236    6.080250    0.342612
     93          1           0      -14.420010    6.856149    1.234592
     94          7           0      -15.200454   -0.487033   -2.388271
     95          6           0      -15.304858    0.595165   -3.187792
     96          6           0      -14.734102    0.194883   -4.483229
     97          6           0      -14.434665   -1.262043   -4.433805
     98          6           0      -15.028892   -1.610169   -3.158744
     99          6           0      -14.449578    1.174412   -5.584592
    100          6           0      -13.741000   -2.191026   -5.383545
    101          8           0      -13.803204   -3.463893   -5.246494
    102          6           0      -13.064753   -1.569882   -6.531748
    103          7           0      -16.277433   -2.668193   -0.574467
    104          6           0      -15.940157   -3.420807   -1.636424
    105          6           0      -16.134188   -4.890213   -1.347332
    106          6           0      -16.443880   -4.982697    0.218916
    107          6           0      -16.464305   -3.476992    0.562174
    108          6           0      -17.252404   -5.579908   -2.128540
    109          6           0      -15.536728   -5.920659    1.061507
    110          6           0      -14.130585   -5.368069    1.114174
    111          7           0      -16.490237   -0.667390    1.544230
    112          6           0      -16.906697   -1.790464    2.292128
    113          6           0      -17.393501   -1.290309    3.594150
    114          6           0      -17.246778    0.102111    3.503947
    115          6           0      -16.725531    0.447058    2.227695
    116          6           0      -17.932676   -2.087714    4.642750
    117          6           0      -17.424263    1.359373    4.194212
    118          8           0      -17.749089    1.685671    5.335161
    119          6           0      -17.245207    2.540920    3.146221
    120          6           0      -16.327846    3.566161    3.754378
    121          8           0      -15.138226    3.289836    3.989015
    122          8           0      -16.943878    4.762352    3.756884
    123          6           0      -16.069483    5.814272    4.340596
    124          1           0      -16.146571    2.466228   -3.706261
    125          1           0      -15.163598   -3.694705   -3.409376
    126          1           0      -17.115693   -3.774607    2.558672
    127          1           0      -17.404182    4.428355    0.646069
    128          1           0      -16.360920    4.376225   -1.970417
    129          1           0      -18.997688    3.558200   -0.822168
    130          1           0      -18.515717    2.673487   -2.284802
    131          1           0      -18.655610    4.402991   -2.379021
    132          1           0      -14.564323    4.329840   -0.398566
    133          1           0      -14.821373    4.261506    1.383127
    134          1           0      -16.302960    6.468154    0.361795
    135          1           0      -14.897094    6.376125   -0.638191
    136          1           0      -14.927393    2.143410   -5.394488
    137          1           0      -14.948021    0.797638   -6.484282
    138          1           0      -13.382043    1.279260   -5.789650
    139          1           0      -13.787296   -1.000780   -7.111829
    140          1           0      -12.552650   -2.385696   -7.045647
    141          1           0      -12.326771   -0.852002   -6.156705
    142          1           0      -15.231097   -5.448846   -1.560564
    143          1           0      -17.457813   -5.362807    0.412022
    144          1           0      -16.902701   -6.451220   -2.713873
    145          1           0      -17.717523   -4.848653   -2.776209
    146          1           0      -18.092316   -5.923091   -1.526908
    147          1           0      -15.466395   -6.903750    0.589556
    148          1           0      -15.896030   -6.074266    2.073589
    149          1           0      -13.690578   -5.723348    0.177545
    150          1           0      -13.596016   -5.762498    1.975980
    151          1           0      -14.136792   -4.272400    1.080718
    152          1           0      -17.502147   -1.721487    5.565256
    153          1           0      -17.714045   -3.142888    4.492449
    154          1           0      -18.997460   -1.868545    4.526670
    155          1           0      -18.235511    2.948750    2.939962
    156          1           0      -16.629470    6.277390    5.158893
    157          1           0      -15.781508    6.466587    3.494828
    158          1           0      -15.171815    5.491374    4.854791
 ---------------------------------------------------------------------

 SCF Done:  E(RCAM-B3LYP) =  -4069.81177551     A.U. after   19 cycles

 Excitation energies and oscillator strengths:

 Excited State   1:      Singlet-A      1.6754 eV  740.04 nm  f=0.2224  <S**2>=0.000
     310 -> 316        0.16875
     311 -> 313        0.66695
     312 -> 314        0.16079
     310 <- 316        0.10174
 This state for optimization and/or second-order correction.
 Total Energy, E(TD-HF/TD-DFT) =  -4069.75020703
 Copying the excited state density for this state as the 1-particle RhoCI density.

 Excited State   2:      Singlet-A      1.6801 eV  737.94 nm  f=0.5553  <S**2>=0.000
     309 -> 315        0.17074
     311 -> 313       -0.16074
     312 -> 314        0.66658
     309 <- 315        0.10223

 Excited State   3:      Singlet-A      2.1862 eV  567.13 nm  f=0.0956  <S**2>=0.000
     310 -> 313        0.64214
     311 -> 316       -0.27302

 Excited State   4:      Singlet-A      2.1926 eV  565.47 nm  f=0.1045  <S**2>=0.000
     309 -> 314        0.64036
     312 -> 315       -0.27819

 Excited State   5:      Singlet-A      3.0623 eV  404.87 nm  f=0.0000  <S**2>=0.000
     312 -> 313        0.70710

 The electronic state is 1-A.
 Alpha  occ. eigenvalues --  -46.87767 -46.87661 -19.26354 -19.26261 -19.19164
 Alpha  occ. eigenvalues --  -19.18995 -19.18782 -19.18709 -19.18143 -19.18054
 Alpha  occ. eigenvalues --  -14.42498 -14.42421 -14.41420 -14.41360 -14.39373
 Alpha  occ. eigenvalues --  -14.39352 -14.38601 -14.38558 -10.39094 -10.39055
 Alpha  occ. eigenvalues --  -10.35416 -10.35386 -10.34363 -10.34231 -10.31761
 Alpha  occ. eigenvalues --  -10.31657 -10.31377 -10.31310 -10.31023 -10.30880
 Alpha  occ. eigenvalues --  -10.30541 -10.30478 -10.30398 -10.30362 -10.30177
 Alpha  occ. eigenvalues --  -10.30141 -10.29896 -10.29892 -10.29601 -10.29436
 Alpha  occ. eigenvalues --  -10.29401 -10.29225 -10.28721 -10.28720 -10.28654
 Alpha  occ. eigenvalues --  -10.28511 -10.28405 -10.28336 -10.28141 -10.28089
 Alpha  occ. eigenvalues --  -10.28002 -10.27764 -10.27698 -10.27670 -10.27554
 Alpha  occ. eigenvalues --  -10.27519 -10.27484 -10.27472 -10.27466 -10.27460
 Alpha  occ. eigenvalues --  -10.27449 -10.27420 -10.27377 -10.27375 -10.27132
 Alpha  occ. eigenvalues --  -10.27053 -10.26692 -10.26676 -10.26404 -10.26374
 Alpha  occ. eigenvalues --  -10.26208 -10.26154 -10.26138 -10.26028 -10.25990
 Alpha  occ. eigenvalues --  -10.25935 -10.25856 -10.25818 -10.25407 -10.25399
 Alpha  occ. eigenvalues --  -10.24874 -10.24804 -10.24758 -10.24729 -10.24690
 Alpha  occ. eigenvalues --  -10.24655  -3.16510  -3.16411  -1.91392  -1.91293
 Alpha  occ. eigenvalues --   -1.90978  -1.90881  -1.90820  -1.90718  -1.16647
 Alpha  occ. eigenvalues --   -1.16609  -1.08661  -1.08601  -1.07183  -1.06961
 Alpha  occ. eigenvalues --   -1.06949  -1.06618  -1.04552  -1.04496  -1.03731
 Alpha  occ. eigenvalues --   -1.03664  -1.03205  -1.03039  -1.02382  -1.02112
 Alpha  occ. eigenvalues --   -0.91989  -0.91944  -0.89495  -0.89490  -0.89160
 Alpha  occ. eigenvalues --   -0.89152  -0.88258  -0.88221  -0.87843  -0.87796
 Alpha  occ. eigenvalues --   -0.87685  -0.87644  -0.87243  -0.87117  -0.85000
 Alpha  occ. eigenvalues --   -0.84954  -0.83907  -0.83877  -0.82935  -0.82927
 Alpha  occ. eigenvalues --   -0.82652  -0.82620  -0.81599  -0.81559  -0.80568
 Alpha  occ. eigenvalues --   -0.80443  -0.78767  -0.78634  -0.77190  -0.77145
 Alpha  occ. eigenvalues --   -0.76907  -0.76900  -0.75896  -0.75840  -0.74870
 Alpha  occ. eigenvalues --   -0.74804  -0.72746  -0.72700  -0.71644  -0.71582
 Alpha  occ. eigenvalues --   -0.69877  -0.69758  -0.68844  -0.68827  -0.67612
 Alpha  occ. eigenvalues --   -0.67602  -0.67198  -0.67190  -0.65273  -0.65258
 Alpha  occ. eigenvalues --   -0.64826  -0.64771  -0.64655  -0.64593  -0.64240
 Alpha  occ. eigenvalues --   -0.64204  -0.62281  -0.62272  -0.60412  -0.60338
 Alpha  occ. eigenvalues --   -0.59797  -0.59776  -0.58994  -0.58959  -0.58475
 Alpha  occ. eigenvalues --   -0.58427  -0.57558  -0.57557  -0.57280  -0.57237
 Alpha  occ. eigenvalues --   -0.56281  -0.56205  -0.55953  -0.55888  -0.55491
 Alpha  occ. eigenvalues --   -0.55451  -0.55312  -0.55249  -0.54496  -0.54490
 Alpha  occ. eigenvalues --   -0.53913  -0.53867  -0.53269  -0.53227  -0.53193
 Alpha  occ. eigenvalues --   -0.53141  -0.52903  -0.52887  -0.52725  -0.52664
 Alpha  occ. eigenvalues --   -0.52408  -0.52401  -0.51888  -0.51888  -0.51658
 Alpha  occ. eigenvalues --   -0.51588  -0.51203  -0.51168  -0.50540  -0.50470
 Alpha  occ. eigenvalues --   -0.50002  -0.49979  -0.49888  -0.49867  -0.49486
 Alpha  occ. eigenvalues --   -0.49485  -0.49203  -0.49186  -0.49106  -0.49069
 Alpha  occ. eigenvalues --   -0.48566  -0.48560  -0.48432  -0.48416  -0.48377
 Alpha  occ. eigenvalues --   -0.48336  -0.47666  -0.47594  -0.47268  -0.47118
 Alpha  occ. eigenvalues --   -0.46768  -0.46710  -0.46554  -0.46527  -0.46330
 Alpha  occ. eigenvalues --   -0.46271  -0.46135  -0.46088  -0.45825  -0.45796
 Alpha  occ. eigenvalues --   -0.45210  -0.45172  -0.44551  -0.44516  -0.44477
 Alpha  occ. eigenvalues --   -0.44476  -0.44128  -0.44115  -0.44078  -0.44060
 Alpha  occ. eigenvalues --   -0.43991  -0.43937  -0.43555  -0.43468  -0.43387
 Alpha  occ. eigenvalues --   -0.43357  -0.42999  -0.42932  -0.42903  -0.42672
 Alpha  occ. eigenvalues --   -0.42627  -0.42553  -0.41981  -0.41965  -0.41676
 Alpha  occ. eigenvalues --   -0.41671  -0.41505  -0.41459  -0.41113  -0.40991
 Alpha  occ. eigenvalues --   -0.40840  -0.40791  -0.40720  -0.40697  -0.40542
 Alpha  occ. eigenvalues --   -0.40494  -0.40226  -0.40205  -0.39426  -0.39411
 Alpha  occ. eigenvalues --   -0.38440  -0.38351  -0.37720  -0.37654  -0.37291
 Alpha  occ. eigenvalues --   -0.37267  -0.37235  -0.37200  -0.36774  -0.36687
 Alpha  occ. eigenvalues --   -0.36219  -0.36165  -0.34257  -0.34254  -0.33865
 Alpha  occ. eigenvalues --   -0.33745  -0.33176  -0.33158  -0.31312  -0.31268
 Alpha  occ. eigenvalues --   -0.31007  -0.30973  -0.30003  -0.29959  -0.29419
 Alpha  occ. eigenvalues --   -0.29326  -0.29293  -0.29213  -0.24052  -0.24037
 Alpha  occ. eigenvalues --   -0.21118  -0.21099
 Alpha virt. eigenvalues --   -0.08792  -0.08745  -0.01720  -0.01684  -0.00028
 Alpha virt. eigenvalues --   -0.00027   0.02206   0.02228   0.03153   0.03230
 Alpha virt. eigenvalues --    0.04729   0.04746   0.05123   0.05162   0.06182

 Mulliken charges:
               1
     1  Mg   0.838797
     2  C   -0.002956
     3  C   -0.094104
     4  C   -0.045859
     5  C   -0.063969
     6  N   -0.256778
     7  C   -0.052490
     8  C   -0.014030
     9  C   -0.087018
    10  C    0.046335
    11  C    0.104823
    12  C    0.053482
    13  C   -0.071811
    14  H    0.036117
    15  N   -0.433158
    16  C    0.168441
    17  C   -0.177131
    18  C   -0.003973
    19  C    0.148736
    20  C    0.110172
    21  C    0.012317
    22  O   -0.249594
    23  C    0.062461
    24  N   -0.341135
    25  C    0.041241
    26  C   -0.028168
    27  C   -0.023967
    28  C    0.074836
    29  C    0.076174
    30  C    0.035130
    31  C   -0.004509
    32  N   -0.310457
    33  C    0.080406
    34  C   -0.169737
    35  C    0.008328
    36  C    0.082987
    37  C    0.127318
    38  C    0.046088
    39  O   -0.188526
    40  C   -0.005334
    41  C    0.212854
    42  O   -0.257083
    43  O   -0.304800
    44  C    0.157703
    45  H   -0.017599
    46  H   -0.016816
    47  H   -0.041521
    48  H    0.000902
    49  H   -0.004012
    50  H    0.025444
    51  H    0.016445
    52  H    0.016647
    53  H    0.011255
    54  H    0.044122
    55  H    0.017833
    56  H    0.017984
    57  H    0.005874
    58  H    0.026830
    59  H    0.039640
    60  H    0.037329
    61  H    0.035711
    62  H    0.031571
    63  H    0.016592
    64  H    0.009422
    65  H    0.023226
    66  H    0.012532
    67  H    0.004722
    68  H    0.006365
    69  H    0.004695
    70  H    0.008821
    71  H    0.018158
    72  H    0.028994
    73  H    0.047528
    74  H    0.009101
    75  H    0.045961
    76  H    0.035113
    77  H    0.042883
    78  H    0.046417
    79  H    0.053676
    80  Mg   0.837897
    81  C   -0.016809
    82  C   -0.087772
    83  C   -0.045494
    84  C   -0.064889
    85  N   -0.254593
    86  C   -0.049862
    87  C   -0.015108
    88  C   -0.090508
    89  C    0.045775
    90  C    0.114376
    91  C    0.062525
    92  C   -0.077914
    93  H    0.034904
    94  N   -0.423511
    95  C    0.162952
    96  C   -0.174592
    97  C   -0.007753
    98  C    0.152125
    99  C    0.099358
   100  C    0.015616
   101  O   -0.253141
   102  C    0.061167
   103  N   -0.350077
   104  C    0.037536
   105  C   -0.019836
   106  C   -0.034819
   107  C    0.088917
   108  C    0.073647
   109  C    0.034741
   110  C   -0.007690
   111  N   -0.324085
   112  C    0.078439
   113  C   -0.163162
   114  C    0.002229
   115  C    0.096162
   116  C    0.131492
   117  C    0.042357
   118  O   -0.187950
   119  C    0.000927
   120  C    0.211256
   121  O   -0.251002
   122  O   -0.305644
   123  C    0.152030
   124  H   -0.019628
   125  H   -0.015528
   126  H   -0.040486
   127  H   -0.000678
   128  H   -0.004281
   129  H    0.022430
   130  H    0.014420
   131  H    0.016297
   132  H    0.013971
   133  H    0.037675
   134  H    0.020758
   135  H    0.019641
   136  H    0.008776
   137  H    0.026182
   138  H    0.039924
   139  H    0.038254
   140  H    0.036507
   141  H    0.033986
   142  H    0.014454
   143  H    0.012382
   144  H    0.025181
   145  H    0.011631
   146  H    0.005647
   147  H    0.006275
   148  H    0.003620
   149  H    0.010986
   150  H    0.017947
   151  H    0.030109
   152  H    0.045979
   153  H    0.008505
   154  H    0.046894
   155  H    0.034988
   156  H    0.043869
   157  H    0.049514
   158  H    0.053580
 Sum of Mulliken charges =  -0.00000

 Dipole moment (field-independent basis, Debye):
    X=              1.1856    Y=              3.1545    Z=             -0.0389  Tot=              3.3701
 Quadrupole moment (field-independent basis, Debye-Ang):
   XX=           -433.9955   YY=           -460.3383   ZZ=           -537.6323
   XY=              1.4975   XZ=            129.1000   YZ=              4.7810

 Normal termination of Gaussian 16 at Sun Sep 12 11:59:35 2021.
