 Gaussian 16, Revision A.03,
 Gaussian 16:  ES64L-G16RevA.03 25-Dec-2016

 -----------------------------------
 #p cam-b3lyp/Def2SVP td=(nstates=5)
 -----------------------------------

 --------------------------------
 TDDFT excited states in gaussian
 --------------------------------
 Symbolic Z-matrix:
 Charge =  0 Multiplicity = 1

                         Standard orientation:
 ---------------------------------------------------------------------
 Center     Atomic      Atomic             Coordinates (Angstroms)
 Number     Number       Type             X           Y           Z
 ---------------------------------------------------------------------
      1         12           0        4.706670   -0.262851    0.109237
      2          6           0        4.603902    2.912661   -1.539331
      3          6           0        5.432265    1.421576    2.986611
      4          6           0        5.249498   -3.067638    1.485873
      5          6           0        5.099952   -1.716117   -3.033852
      6          7           0        4.957628    1.893632    0.541958
      7          6           0        4.833064    3.012363   -0.165217
      8          6           0        4.893744    4.303298    0.704943
      9          6           0        5.707601    3.729540    1.950107
     10          6           0        5.315760    2.266353    1.843015
     11          6           0        7.220524    3.845501    1.794806
     12          6           0        3.471384    4.800932    1.130364
     13          6           0        3.419397    6.221803    1.699377
     14          1           0        2.259289    7.050610    1.408554
     15          7           0        4.778433   -0.759712    2.019951
     16          6           0        5.074054    0.058000    3.058817
     17          6           0        4.996540   -0.781858    4.273440
     18          6           0        4.818207   -2.195144    3.838797
     19          6           0        4.969804   -2.065601    2.412047
     20          6           0        5.041705   -0.224850    5.663207
     21          6           0        4.563646   -3.463038    4.590978
     22          8           0        4.672394   -4.612797    4.042526
     23          6           0        4.266103   -3.325785    6.028223
     24          7           0        5.336014   -2.110211   -0.631588
     25          6           0        5.434082   -3.177454    0.168635
     26          6           0        5.624036   -4.437549   -0.622579
     27          6           0        5.391564   -4.038958   -2.151250
     28          6           0        5.176757   -2.516273   -1.968057
     29          6           0        6.990723   -5.120576   -0.475436
     30          6           0        4.324992   -4.845411   -2.933858
     31          6           0        2.949208   -4.549035   -2.380254
     32          7           0        4.656669    0.420948   -1.950123
     33          6           0        4.868817   -0.352304   -3.100666
     34          6           0        4.842866    0.569268   -4.251362
     35          6           0        4.632579    1.825062   -3.685141
     36          6           0        4.559656    1.699619   -2.268371
     37          6           0        5.059923    0.210914   -5.611105
     38          6           0        4.477124    3.246975   -3.945630
     39          8           0        4.359654    3.934830   -4.960790
     40          6           0        4.574085    4.023938   -2.558997
     41          6           0        3.429641    4.998850   -2.503276
     42          8           0        2.250081    4.597398   -2.433695
     43          8           0        3.908859    6.235884   -2.301684
     44          6           0        2.822904    7.247756   -2.206976
     45          1           0        5.893465    1.820057    3.892397
     46          1           0        5.333798   -4.070069    1.910682
     47          1           0        5.131183   -2.108797   -4.051830
     48          1           0        5.440145    5.131073    0.252550
     49          1           0        5.356619    4.147767    2.893304
     50          1           0        7.493552    4.186277    0.796183
     51          1           0        7.609246    2.842949    1.974465
     52          1           0        7.643140    4.475520    2.577908
     53          1           0        3.140379    4.239086    2.003763
     54          1           0        2.769656    4.719388    0.299548
     55          1           0        4.340340    6.767802    1.492841
     56          1           0        3.383194    6.153179    2.786658
     57          1           0        5.344727    0.821437    5.665673
     58          1           0        5.845373   -0.741630    6.187388
     59          1           0        4.101616   -0.372078    6.195080
     60          1           0        5.100177   -2.827115    6.522386
     61          1           0        4.023885   -4.327249    6.382132
     62          1           0        3.402455   -2.671219    6.149066
     63          1           0        4.894091   -5.193329   -0.335518
     64          1           0        6.298657   -4.150991   -2.745645
     65          1           0        6.929019   -6.155066   -0.136720
     66          1           0        7.595265   -4.521660    0.205093
     67          1           0        7.605072   -5.112370   -1.375394
     68          1           0        4.495227   -5.914855   -2.814467
     69          1           0        4.318974   -4.627748   -4.001958
     70          1           0        2.878191   -5.225754   -1.529465
     71          1           0        2.183523   -4.774383   -3.123325
     72          1           0        2.886380   -3.531690   -1.993541
     73          1           0        4.306215    0.743511   -6.190962
     74          1           0        4.981313   -0.866581   -5.754027
     75          1           0        6.075497    0.578518   -5.757164
     76          1           0        5.540798    4.526404   -2.548151
     77          1           0        3.029854    8.011801   -2.956403
     78          1           0        2.781071    7.560674   -1.163550
     79          1           0        1.829966    6.919612   -2.516388
     80         12           0       -4.247388   -1.110898    0.139866
     81          6           0       -6.850442    1.359469    0.118338
     82          6           0       -2.024089    1.451113    0.497138
     83          6           0       -1.908902   -3.212228   -0.288326
     84          6           0       -6.512066   -3.309086   -1.338287
     85          7           0       -4.523430    1.079288    0.278215
     86          6           0       -5.562977    1.898992    0.320280
     87          6           0       -5.209439    3.368480    0.674115
     88          6           0       -3.675235    3.367617    0.199702
     89          6           0       -3.368853    1.880600    0.365820
     90          6           0       -3.498074    3.731044   -1.265184
     91          6           0       -5.335369    3.660181    2.210689
     92          6           0       -5.306395    5.142857    2.588284
     93          1           0       -6.132235    5.592874    3.705412
     94          7           0       -2.317379   -0.993339    0.586895
     95          6           0       -1.578487    0.128753    0.714238
     96          6           0       -0.214067   -0.321662    1.029926
     97          6           0       -0.171620   -1.804892    0.916135
     98          6           0       -1.487779   -2.065010    0.368258
     99          6           0        0.870559    0.616798    1.472967
    100          6           0        0.884124   -2.819987    1.234229
    101          8           0        0.793232   -4.034152    0.833776
    102          6           0        2.071906   -2.328897    1.948016
    103          7           0       -4.145688   -2.918438   -0.882292
    104          6           0       -3.023883   -3.659526   -0.866302
    105          6           0       -3.271924   -5.036915   -1.433449
    106          6           0       -4.857259   -5.149131   -1.611506
    107          6           0       -5.261870   -3.722035   -1.181293
    108          6           0       -2.587625   -5.340778   -2.766035
    109          6           0       -5.558755   -6.354248   -0.927211
    110          6           0       -5.482848   -6.210232    0.575749
    111          7           0       -6.354846   -1.085931   -0.335556
    112          6           0       -7.096642   -2.101942   -0.977071
    113          6           0       -8.462670   -1.578971   -1.184133
    114          6           0       -8.414137   -0.276280   -0.665353
    115          6           0       -7.104495    0.000722   -0.188264
    116          6           0       -9.529625   -2.269697   -1.824946
    117          6           0       -9.170168    0.931248   -0.422487
    118          8           0      -10.351720    1.254346   -0.537729
    119          6           0       -8.158107    2.088637   -0.019286
    120          6           0       -8.705716    2.781121    1.198533
    121          8           0       -8.799983    2.175970    2.280901
    122          8           0       -8.823062    4.096702    0.941939
    123          6           0       -9.352081    4.828174    2.123852
    124          1           0       -1.230023    2.189337    0.381458
    125          1           0       -1.168198   -4.011807   -0.362558
    126          1           0       -7.302891   -3.967737   -1.703575
    127          1           0       -5.768501    4.115436    0.123412
    128          1           0       -3.055307    3.961450    0.866353
    129          1           0       -4.445320    3.814999   -1.776858
    130          1           0       -2.904569    2.935297   -1.695994
    131          1           0       -2.896536    4.639809   -1.358033
    132          1           0       -4.422265    3.319795    2.715779
    133          1           0       -6.216969    3.201602    2.614563
    134          1           0       -5.451257    5.793020    1.716935
    135          1           0       -4.303382    5.390844    2.943938
    136          1           0        0.590944    1.663797    1.302651
    137          1           0        1.726247    0.452738    0.809079
    138          1           0        1.184455    0.440981    2.504100
    139          1           0        2.547473   -1.546103    1.361894
    140          1           0        2.670609   -3.215924    2.163930
    141          1           0        1.749183   -1.866548    2.887534
    142          1           0       -2.940474   -5.804209   -0.744605
    143          1           0       -5.142298   -5.251274   -2.668937
    144          1           0       -1.933117   -6.231954   -2.727379
    145          1           0       -2.023936   -4.467779   -3.067164
    146          1           0       -3.261343   -5.482940   -3.609298
    147          1           0       -5.042269   -7.284485   -1.176340
    148          1           0       -6.596405   -6.473510   -1.220547
    149          1           0       -4.490745   -6.606539    0.811837
    150          1           0       -6.265564   -6.793579    1.056497
    151          1           0       -5.494980   -5.154635    0.871071
    152          1           0      -10.414818   -2.098841   -1.226842
    153          1           0       -9.313831   -3.331597   -1.922755
    154          1           0       -9.537416   -1.761544   -2.792930
    155          1           0       -8.076026    2.763795   -0.871929
    156          1           0      -10.243916    5.368791    1.792112
    157          1           0       -8.507634    5.434059    2.502758
    158          1           0       -9.753459    4.238565    2.939761
 ---------------------------------------------------------------------

 SCF Done:  E(RCAM-B3LYP) =  -4069.80729271     A.U. after   19 cycles

 Excitation energies and oscillator strengths:

 Excited State   1:      Singlet-A      1.6419 eV  755.12 nm  f=0.3250  <S**2>=0.000
     309 -> 315        0.13500
     311 -> 313        0.55548
     312 -> 314       -0.40535
 This state for optimization and/or second-order correction.
 Total Energy, E(TD-HF/TD-DFT) =  -4069.74695356
 Copying the excited state density for this state as the 1-particle RhoCI density.

 Excited State   2:      Singlet-A      1.6785 eV  738.68 nm  f=0.4688  <S**2>=0.000
     309 -> 315        0.10660
     310 -> 316       -0.14002
     311 -> 313        0.40305
     312 -> 314        0.55342

 Excited State   3:      Singlet-A      2.1720 eV  570.83 nm  f=0.0015  <S**2>=0.000
     309 -> 313        0.48166
     310 -> 314       -0.41663
     311 -> 315       -0.20085
     312 -> 313        0.11810
     312 -> 316       -0.16985

 Excited State   4:      Singlet-A      2.1892 eV  566.36 nm  f=0.1590  <S**2>=0.000
     309 -> 313        0.38409
     310 -> 314        0.48769
     311 -> 315       -0.17365
     312 -> 313        0.16603
     312 -> 316        0.20830

 Excited State   5:      Singlet-A      2.2237 eV  557.56 nm  f=0.0096  <S**2>=0.000
     309 -> 313       -0.17874
     312 -> 313        0.67565

 The electronic state is 1-A.
 Alpha  occ. eigenvalues --  -46.88243 -46.87432 -19.26748 -19.26204 -19.19517
 Alpha  occ. eigenvalues --  -19.19204 -19.19008 -19.18517 -19.18478 -19.17858
 Alpha  occ. eigenvalues --  -14.42834 -14.42249 -14.41721 -14.41139 -14.39730
 Alpha  occ. eigenvalues --  -14.39119 -14.38948 -14.38382 -10.39559 -10.38933
 Alpha  occ. eigenvalues --  -10.35765 -10.34988 -10.34741 -10.34035 -10.32145
 Alpha  occ. eigenvalues --  -10.31765 -10.31639 -10.31303 -10.31033 -10.30949
 Alpha  occ. eigenvalues --  -10.30782 -10.30715 -10.30439 -10.30169 -10.30156
 Alpha  occ. eigenvalues --  -10.30130 -10.29985 -10.29929 -10.29688 -10.29589
 Alpha  occ. eigenvalues --  -10.29214 -10.29197 -10.29197 -10.29080 -10.28730
 Alpha  occ. eigenvalues --  -10.28528 -10.28508 -10.28458 -10.28181 -10.28117
 Alpha  occ. eigenvalues --  -10.28086 -10.27926 -10.27821 -10.27797 -10.27785
 Alpha  occ. eigenvalues --  -10.27771 -10.27543 -10.27461 -10.27453 -10.27383
 Alpha  occ. eigenvalues --  -10.27358 -10.27354 -10.27300 -10.27261 -10.27232
 Alpha  occ. eigenvalues --  -10.27219 -10.26855 -10.26689 -10.26560 -10.26515
 Alpha  occ. eigenvalues --  -10.26250 -10.26075 -10.25999 -10.25855 -10.25723
 Alpha  occ. eigenvalues --  -10.25686 -10.25673 -10.25498 -10.25419 -10.25282
 Alpha  occ. eigenvalues --  -10.25174 -10.24971 -10.24661 -10.24596 -10.24468
 Alpha  occ. eigenvalues --  -10.23957  -3.16971  -3.16181  -1.91863  -1.91433
 Alpha  occ. eigenvalues --   -1.91277  -1.91064  -1.90652  -1.90489  -1.17101
 Alpha  occ. eigenvalues --   -1.16496  -1.08979  -1.08470  -1.07575  -1.07128
 Alpha  occ. eigenvalues --   -1.06792  -1.06671  -1.04955  -1.04247  -1.04077
 Alpha  occ. eigenvalues --   -1.03565  -1.03430  -1.02820  -1.02723  -1.01891
 Alpha  occ. eigenvalues --   -0.92323  -0.91769  -0.89681  -0.89562  -0.89302
 Alpha  occ. eigenvalues --   -0.88861  -0.88347  -0.88171  -0.88040  -0.88000
 Alpha  occ. eigenvalues --   -0.87621  -0.87591  -0.87444  -0.86902  -0.85386
 Alpha  occ. eigenvalues --   -0.84743  -0.83965  -0.83710  -0.83182  -0.82945
 Alpha  occ. eigenvalues --   -0.82644  -0.82364  -0.81932  -0.81406  -0.80925
 Alpha  occ. eigenvalues --   -0.80219  -0.79127  -0.78426  -0.77516  -0.77185
 Alpha  occ. eigenvalues --   -0.76936  -0.76688  -0.76260  -0.75594  -0.74990
 Alpha  occ. eigenvalues --   -0.74628  -0.73057  -0.72481  -0.71952  -0.71342
 Alpha  occ. eigenvalues --   -0.69767  -0.69590  -0.69218  -0.68584  -0.67960
 Alpha  occ. eigenvalues --   -0.67645  -0.67381  -0.66976  -0.65676  -0.65178
 Alpha  occ. eigenvalues --   -0.65034  -0.64918  -0.64554  -0.64433  -0.64315
 Alpha  occ. eigenvalues --   -0.64012  -0.62632  -0.62097  -0.60761  -0.60232
 Alpha  occ. eigenvalues --   -0.60141  -0.59535  -0.59272  -0.58796  -0.58773
 Alpha  occ. eigenvalues --   -0.58217  -0.57965  -0.57505  -0.57368  -0.57089
 Alpha  occ. eigenvalues --   -0.56632  -0.56375  -0.56001  -0.55862  -0.55708
 Alpha  occ. eigenvalues --   -0.55516  -0.55297  -0.55074  -0.54672  -0.54335
 Alpha  occ. eigenvalues --   -0.54295  -0.53705  -0.53588  -0.53559  -0.53268
 Alpha  occ. eigenvalues --   -0.53188  -0.52972  -0.52848  -0.52706  -0.52558
 Alpha  occ. eigenvalues --   -0.52278  -0.52244  -0.52127  -0.52019  -0.51703
 Alpha  occ. eigenvalues --   -0.51511  -0.51382  -0.51014  -0.50876  -0.50420
 Alpha  occ. eigenvalues --   -0.50247  -0.50047  -0.49939  -0.49755  -0.49609
 Alpha  occ. eigenvalues --   -0.49500  -0.49423  -0.49254  -0.48969  -0.48948
 Alpha  occ. eigenvalues --   -0.48885  -0.48687  -0.48512  -0.48333  -0.48219
 Alpha  occ. eigenvalues --   -0.48170  -0.47814  -0.47560  -0.47216  -0.47097
 Alpha  occ. eigenvalues --   -0.46950  -0.46899  -0.46579  -0.46491  -0.46325
 Alpha  occ. eigenvalues --   -0.46290  -0.46153  -0.46064  -0.45889  -0.45628
 Alpha  occ. eigenvalues --   -0.45288  -0.45018  -0.44901  -0.44774  -0.44475
 Alpha  occ. eigenvalues --   -0.44380  -0.44323  -0.44190  -0.44182  -0.43888
 Alpha  occ. eigenvalues --   -0.43864  -0.43820  -0.43690  -0.43566  -0.43377
 Alpha  occ. eigenvalues --   -0.43308  -0.43161  -0.43094  -0.42760  -0.42697
 Alpha  occ. eigenvalues --   -0.42690  -0.42366  -0.42084  -0.41992  -0.41781
 Alpha  occ. eigenvalues --   -0.41755  -0.41476  -0.41416  -0.41233  -0.41157
 Alpha  occ. eigenvalues --   -0.41119  -0.40750  -0.40731  -0.40586  -0.40483
 Alpha  occ. eigenvalues --   -0.40357  -0.40287  -0.40006  -0.39268  -0.39129
 Alpha  occ. eigenvalues --   -0.38568  -0.38171  -0.38158  -0.37665  -0.37473
 Alpha  occ. eigenvalues --   -0.37361  -0.37091  -0.37058  -0.36962  -0.36614
 Alpha  occ. eigenvalues --   -0.36376  -0.36022  -0.34608  -0.34219  -0.34031
 Alpha  occ. eigenvalues --   -0.33695  -0.33467  -0.32943  -0.31663  -0.31319
 Alpha  occ. eigenvalues --   -0.30932  -0.30726  -0.30377  -0.29792  -0.29764
 Alpha  occ. eigenvalues --   -0.29662  -0.29117  -0.29002  -0.24414  -0.23799
 Alpha  occ. eigenvalues --   -0.21404  -0.20893
 Alpha virt. eigenvalues --   -0.09127  -0.08575  -0.02125  -0.01460  -0.00460
 Alpha virt. eigenvalues --    0.00214   0.01885   0.02383   0.02847   0.03434
 Alpha virt. eigenvalues --    0.04328   0.04616   0.04967   0.05328   0.05534

 Mulliken charges:
               1
     1  Mg   0.775190
     2  C    0.000966
     3  C   -0.095092
     4  C   -0.036557
     5  C   -0.062239
     6  N   -0.254496
     7  C   -0.057686
     8  C   -0.012168
     9  C   -0.086217
    10  C    0.042988
    11  C    0.104561
    12  C    0.050562
    13  C   -0.071378
    14  H    0.034332
    15  N   -0.435541
    16  C    0.169354
    17  C   -0.181210
    18  C   -0.001326
    19  C    0.122250
    20  C    0.111851
    21  C    0.013644
    22  O   -0.247773
    23  C    0.064866
    24  N   -0.337810
    25  C    0.046668
    26  C   -0.027279
    27  C   -0.024642
    28  C    0.082283
    29  C    0.076657
    30  C    0.033820
    31  C   -0.003117
    32  N   -0.306333
    33  C    0.083301
    34  C   -0.169220
    35  C    0.009497
    36  C    0.077149
    37  C    0.127142
    38  C    0.046649
    39  O   -0.187481
    40  C   -0.008215
    41  C    0.213687
    42  O   -0.260439
    43  O   -0.303893
    44  C    0.157577
    45  H   -0.018254
    46  H   -0.014128
    47  H   -0.039791
    48  H    0.001663
    49  H   -0.004513
    50  H    0.025894
    51  H    0.017835
    52  H    0.017306
    53  H    0.010474
    54  H    0.040927
    55  H    0.019926
    56  H    0.018702
    57  H    0.005875
    58  H    0.027860
    59  H    0.038419
    60  H    0.037869
    61  H    0.038453
    62  H    0.029142
    63  H    0.024534
    64  H    0.008624
    65  H    0.024449
    66  H    0.011559
    67  H    0.004477
    68  H    0.005733
    69  H    0.001553
    70  H    0.020869
    71  H    0.014793
    72  H    0.028996
    73  H    0.047989
    74  H    0.010694
    75  H    0.046564
    76  H    0.036088
    77  H    0.044530
    78  H    0.046207
    79  H    0.052116
    80  Mg   0.838000
    81  C   -0.017002
    82  C   -0.090413
    83  C   -0.045881
    84  C   -0.065112
    85  N   -0.254586
    86  C   -0.049408
    87  C   -0.015251
    88  C   -0.089854
    89  C    0.044342
    90  C    0.113892
    91  C    0.062814
    92  C   -0.077051
    93  H    0.033240
    94  N   -0.424044
    95  C    0.164958
    96  C   -0.186817
    97  C   -0.003113
    98  C    0.152617
    99  C    0.113253
   100  C    0.032231
   101  O   -0.251433
   102  C    0.037459
   103  N   -0.349907
   104  C    0.037730
   105  C   -0.019831
   106  C   -0.034754
   107  C    0.088905
   108  C    0.073446
   109  C    0.034898
   110  C   -0.007586
   111  N   -0.323959
   112  C    0.078292
   113  C   -0.163546
   114  C    0.002162
   115  C    0.096052
   116  C    0.131553
   117  C    0.042055
   118  O   -0.188652
   119  C    0.001045
   120  C    0.211184
   121  O   -0.251522
   122  O   -0.305419
   123  C    0.152281
   124  H   -0.010631
   125  H   -0.015341
   126  H   -0.041099
   127  H   -0.000824
   128  H   -0.005167
   129  H    0.020714
   130  H    0.019746
   131  H    0.019517
   132  H    0.013004
   133  H    0.037032
   134  H    0.021063
   135  H    0.018675
   136  H    0.012799
   137  H    0.027944
   138  H    0.043379
   139  H    0.045396
   140  H    0.062468
   141  H    0.028770
   142  H    0.014136
   143  H    0.012117
   144  H    0.023651
   145  H    0.012297
   146  H    0.005431
   147  H    0.005624
   148  H    0.003377
   149  H    0.010914
   150  H    0.017432
   151  H    0.030321
   152  H    0.045437
   153  H    0.008063
   154  H    0.046856
   155  H    0.035337
   156  H    0.043577
   157  H    0.049272
   158  H    0.053130
 Sum of Mulliken charges =  -0.00000

 Dipole moment (field-independent basis, Debye):
    X=              6.1461    Y=              2.4068    Z=              3.3580  Tot=              7.4056
 Quadrupole moment (field-independent basis, Debye-Ang):
   XX=           -552.9989   YY=           -478.1051   ZZ=           -504.4484
   XY=             15.9488   XZ=             23.9637   YZ=             48.9565

 Normal termination of Gaussian 16 at Fri Sep 10 07:18:44 2021.
