 Gaussian 16, Revision A.03,
 Gaussian 16:  ES64L-G16RevA.03 25-Dec-2016

 -----------------------------------
 #p cam-b3lyp/Def2SVP td=(nstates=5)
 -----------------------------------

 --------------------------------
 TDDFT excited states in gaussian
 --------------------------------
 Symbolic Z-matrix:
 Charge =  0 Multiplicity = 1

                         Standard orientation:
 ---------------------------------------------------------------------
 Center     Atomic      Atomic             Coordinates (Angstroms)
 Number     Number       Type             X           Y           Z
 ---------------------------------------------------------------------
      1         12           0       -6.519688    0.660256    0.410208
      2          6           0       -6.878610   -2.236842   -1.661075
      3          6           0       -7.202457   -1.348838    3.082367
      4          6           0       -6.656846    3.273420    2.201627
      5          6           0       -6.990766    2.586108   -2.455946
      6          7           0       -6.965154   -1.502773    0.563551
      7          6           0       -7.013462   -2.513374   -0.298728
      8          6           0       -7.145551   -3.905637    0.387951
      9          6           0       -7.798266   -3.444903    1.767692
     10          6           0       -7.262355   -2.025360    1.827870
     11          6           0       -9.322306   -3.393525    1.733598
     12          6           0       -5.756242   -4.592057    0.612399
     13          6           0       -5.812985   -6.079102    0.974107
     14          1           0       -4.772544   -6.962639    0.469930
     15          7           0       -6.394907    0.878260    2.369737
     16          6           0       -6.697039   -0.050312    3.308756
     17          6           0       -6.439967    0.592692    4.615332
     18          6           0       -6.145597    2.030943    4.364584
     19          6           0       -6.416567    2.125352    2.952834
     20          6           0       -6.439786   -0.153874    5.913942
     21          6           0       -5.702164    3.146064    5.257895
     22          8           0       -5.728957    4.368482    4.884331
     23          6           0       -5.314039    2.773587    6.630361
     24          7           0       -7.002976    2.646887   -0.010938
     25          6           0       -6.926894    3.590735    0.933703
     26          6           0       -7.040673    4.964821    0.343041
     27          6           0       -6.967048    4.772803   -1.240456
     28          6           0       -6.902074    3.226258   -1.287867
     29          6           0       -8.312190    5.745225    0.703907
     30          6           0       -5.882500    5.580132   -1.997024
     31          6           0       -4.508390    5.077661   -1.614347
     32          7           0       -6.697042    0.281842   -1.719673
     33          6           0       -6.911461    1.230869   -2.729646
     34          6           0       -7.069834    0.488309   -3.993604
     35          6           0       -6.952295   -0.850716   -3.626126
     36          6           0       -6.760515   -0.940276   -2.217761
     37          6           0       -7.348865    1.059646   -5.266456
     38          6           0       -6.968710   -2.227833   -4.092107
     39          8           0       -7.001360   -2.768599   -5.198452
     40          6           0       -7.043482   -3.185666   -2.822150
     41          6           0       -6.008126   -4.262049   -3.003109
     42          8           0       -4.790719   -3.988288   -2.984649
     43          8           0       -6.599570   -5.464368   -2.931228
     44          6           0       -5.623212   -6.577298   -3.073579
     45          1           0       -7.634204   -1.829523    3.962411
     46          1           0       -6.602126    4.206778    2.765795
     47          1           0       -7.056295    3.123946   -3.403516
     48          1           0       -7.809137   -4.603371   -0.123171
     49          1           0       -7.424016   -4.027233    2.609446
     50          1           0       -9.704036   -3.557981    0.726047
     51          1           0       -9.587779   -2.395597    2.083108
     52          1           0       -9.749582   -4.088025    2.457394
     53          1           0       -5.302927   -4.197139    1.521578
     54          1           0       -5.114055   -4.457143   -0.258647
     55          1           0       -6.799585   -6.499723    0.777621
     56          1           0       -5.688335   -6.173192    2.052907
     57          1           0       -6.851187   -1.156009    5.799834
     58          1           0       -7.142470    0.354721    6.573696
     59          1           0       -5.452184   -0.175135    6.374943
     60          1           0       -6.156979    2.289381    7.123864
     61          1           0       -4.940986    3.685455    7.095312
     62          1           0       -4.518190    2.029747    6.582667
     63          1           0       -6.215136    5.598370    0.664800
     64          1           0       -7.899079    5.055372   -1.730502
     65          1           0       -8.115750    6.708888    1.174512
     66          1           0       -8.924231    5.113478    1.347019
     67          1           0       -8.989628    5.926188   -0.130208
     68          1           0       -5.928751    6.632061   -1.717289
     69          1           0       -5.979681    5.520663   -3.081123
     70          1           0       -4.302351    5.613571   -0.688506
     71          1           0       -3.780940    5.335382   -2.384806
     72          1           0       -4.525182    4.013529   -1.378070
     73          1           0       -6.701569    0.548299   -5.978847
     74          1           0       -7.167180    2.134166   -5.266598
     75          1           0       -8.405812    0.814853   -5.370353
     76          1           0       -8.054551   -3.590728   -2.794127
     77          1           0       -5.965713   -7.201115   -3.899278
     78          1           0       -5.536793   -7.041290   -2.090905
     79          1           0       -4.627026   -6.302934   -3.422403
     80         12           0        6.681694    0.647376   -0.555436
     81          6           0        6.603020   -2.466171    1.227469
     82          6           0        6.022741    2.192456    2.413247
     83          6           0        6.298233    3.355485   -2.163690
     84          6           0        6.195755   -1.177210   -3.484685
     85          7           0        6.374390   -0.142563    1.487557
     86          6           0        6.428877   -1.337816    2.055676
     87          6           0        6.369227   -1.316082    3.606650
     88          6           0        5.623131    0.092918    3.798880
     89          6           0        6.057544    0.778072    2.504839
     90          6           0        4.107891   -0.022683    3.792732
     91          6           0        7.795955   -1.304345    4.259583
     92          6           0        7.818010   -1.594130    5.762016
     93          1           0        8.942018   -2.349182    6.308808
     94          7           0        6.713871    2.529642    0.072719
     95          6           0        6.442284    2.977125    1.316614
     96          6           0        6.584603    4.440162    1.257859
     97          6           0        6.801097    4.833790   -0.160907
     98          6           0        6.587374    3.562424   -0.822757
     99          6           0        6.589916    5.307053    2.483379
    100          6           0        7.131565    6.141111   -0.815050
    101          8           0        7.039154    6.301809   -2.083302
    102          6           0        7.476429    7.254111    0.081489
    103          7           0        6.091791    1.057172   -2.506445
    104          6           0        6.059397    2.319588   -2.968168
    105          6           0        5.874390    2.347770   -4.466631
    106          6           0        6.032211    0.830755   -4.947604
    107          6           0        6.199834    0.145755   -3.573528
    108          6           0        4.538683    2.902012   -4.961692
    109          6           0        7.090858    0.548010   -6.048505
    110          6           0        8.480116    0.785572   -5.501767
    111          7           0        6.624244   -1.444328   -1.093520
    112          6           0        6.381240   -1.989505   -2.373296
    113          6           0        6.326712   -3.457602   -2.217937
    114          6           0        6.520396   -3.665117   -0.843926
    115          6           0        6.663929   -2.413634   -0.186138
    116          6           0        6.073377   -4.395391   -3.258374
    117          6           0        6.625459   -4.657795    0.201173
    118          8           0        6.668354   -5.887037    0.230544
    119          6           0        6.557361   -3.920175    1.607474
    120          6           0        7.669971   -4.455016    2.466864
    121          8           0        8.858191   -4.250913    2.161798
    122          8           0        7.151527   -4.928318    3.614724
    123          6           0        8.217506   -5.459777    4.505258
    124          1           0        5.594673    2.755716    3.242937
    125          1           0        6.265546    4.254707   -2.783212
    126          1           0        6.145748   -1.821274   -4.365230
    127          1           0        5.781903   -2.111315    4.049847
    128          1           0        6.008306    0.629273    4.662193
    129          1           0        3.780993   -1.020648    3.541032
    130          1           0        3.761750    0.686785    3.052543
    131          1           0        3.700077    0.316575    4.749249
    132          1           0        8.180716   -0.276384    4.260846
    133          1           0        8.453273   -1.982556    3.751067
    134          1           0        6.866960   -2.010688    6.115461
    135          1           0        7.910583   -0.645850    6.297000
    136          1           0        6.245282    4.756219    3.367240
    137          1           0        5.829022    6.080235    2.331429
    138          1           0        7.554766    5.789397    2.653935
    139          1           0        6.649645    7.437978    0.763465
    140          1           0        7.767766    8.077487   -0.573528
    141          1           0        8.331890    6.955045    0.697414
    142          1           0        6.641747    2.948088   -4.939799
    143          1           0        5.099190    0.441570   -5.381020
    144          1           0        4.650914    3.756315   -5.655692
    145          1           0        3.947121    3.186042   -4.101504
    146          1           0        3.893530    2.178384   -5.457013
    147          1           0        6.963242    1.241197   -6.883586
    148          1           0        7.035521   -0.457137   -6.452995
    149          1           0        8.605317    1.867332   -5.607592
    150          1           0        9.220041    0.243463   -6.087148
    151          1           0        8.527392    0.551357   -4.431929
    152          1           0        6.775521   -5.207350   -3.123439
    153          1           0        6.177350   -3.937847   -4.240017
    154          1           0        5.035731   -4.658081   -3.035762
    155          1           0        5.575228   -4.122693    2.036398
    156          1           0        7.949336   -6.493896    4.742670
    157          1           0        8.282153   -4.749356    5.350767
    158          1           0        9.206281   -5.589746    4.081136
 ---------------------------------------------------------------------

 SCF Done:  E(RCAM-B3LYP) =  -4069.81182635     A.U. after   19 cycles

 Excitation energies and oscillator strengths:

 Excited State   1:      Singlet-A      1.6714 eV  741.78 nm  f=0.2334  <S**2>=0.000
     310 -> 316        0.14295
     311 -> 313       -0.38426
     312 -> 314        0.56849
 This state for optimization and/or second-order correction.
 Total Energy, E(TD-HF/TD-DFT) =  -4069.75040179
 Copying the excited state density for this state as the 1-particle RhoCI density.

 Excited State   2:      Singlet-A      1.6823 eV  737.00 nm  f=0.4989  <S**2>=0.000
     309 -> 315        0.14570
     311 -> 313        0.56790
     312 -> 314        0.38400

 Excited State   3:      Singlet-A      2.1856 eV  567.27 nm  f=0.0917  <S**2>=0.000
     310 -> 314        0.63790
     312 -> 316       -0.27107

 Excited State   4:      Singlet-A      2.1918 eV  565.68 nm  f=0.1061  <S**2>=0.000
     309 -> 313        0.63617
     311 -> 315       -0.27574

 Excited State   5:      Singlet-A      2.6503 eV  467.82 nm  f=0.0000  <S**2>=0.000
     312 -> 313        0.70710

 The electronic state is 1-A.
 Alpha  occ. eigenvalues --  -46.87852 -46.87557 -19.26312 -19.26289 -19.19111
 Alpha  occ. eigenvalues --  -19.19035 -19.18904 -19.18623 -19.18214 -19.17966
 Alpha  occ. eigenvalues --  -14.42500 -14.42400 -14.41504 -14.41251 -14.39462
 Alpha  occ. eigenvalues --  -14.39251 -14.38640 -14.38496 -10.39096 -10.39039
 Alpha  occ. eigenvalues --  -10.35540 -10.35302 -10.34432 -10.34144 -10.31737
 Alpha  occ. eigenvalues --  -10.31664 -10.31449 -10.31215 -10.30959 -10.30937
 Alpha  occ. eigenvalues --  -10.30621 -10.30565 -10.30293 -10.30267 -10.30259
 Alpha  occ. eigenvalues --  -10.30027 -10.29974 -10.29781 -10.29690 -10.29331
 Alpha  occ. eigenvalues --  -10.29316 -10.29299 -10.28776 -10.28660 -10.28632
 Alpha  occ. eigenvalues --  -10.28526 -10.28420 -10.28309 -10.28148 -10.28076
 Alpha  occ. eigenvalues --  -10.27899 -10.27850 -10.27778 -10.27648 -10.27572
 Alpha  occ. eigenvalues --  -10.27557 -10.27555 -10.27506 -10.27453 -10.27389
 Alpha  occ. eigenvalues --  -10.27382 -10.27378 -10.27367 -10.27247 -10.27192
 Alpha  occ. eigenvalues --  -10.26976 -10.26717 -10.26648 -10.26528 -10.26336
 Alpha  occ. eigenvalues --  -10.26263 -10.26234 -10.26074 -10.26011 -10.25967
 Alpha  occ. eigenvalues --  -10.25893 -10.25820 -10.25717 -10.25489 -10.25248
 Alpha  occ. eigenvalues --  -10.24887 -10.24845 -10.24771 -10.24740 -10.24621
 Alpha  occ. eigenvalues --  -10.24585  -3.16594  -3.16307  -1.91476  -1.91189
 Alpha  occ. eigenvalues --   -1.91063  -1.90905  -1.90778  -1.90615  -1.16640
 Alpha  occ. eigenvalues --   -1.16603  -1.08669  -1.08576  -1.07308  -1.06897
 Alpha  occ. eigenvalues --   -1.06877  -1.06657  -1.04631  -1.04401  -1.03815
 Alpha  occ. eigenvalues --   -1.03561  -1.03290  -1.02931  -1.02466  -1.02007
 Alpha  occ. eigenvalues --   -0.92019  -0.91894  -0.89573  -0.89383  -0.89219
 Alpha  occ. eigenvalues --   -0.89083  -0.88340  -0.88103  -0.87923  -0.87720
 Alpha  occ. eigenvalues --   -0.87684  -0.87588  -0.87347  -0.87026  -0.85019
 Alpha  occ. eigenvalues --   -0.84925  -0.83987  -0.83762  -0.83050  -0.82837
 Alpha  occ. eigenvalues --   -0.82692  -0.82576  -0.81615  -0.81523  -0.80642
 Alpha  occ. eigenvalues --   -0.80360  -0.78861  -0.78536  -0.77266  -0.77057
 Alpha  occ. eigenvalues --   -0.76965  -0.76817  -0.75957  -0.75763  -0.74946
 Alpha  occ. eigenvalues --   -0.74692  -0.72827  -0.72595  -0.71718  -0.71484
 Alpha  occ. eigenvalues --   -0.69959  -0.69641  -0.68915  -0.68750  -0.67696
 Alpha  occ. eigenvalues --   -0.67508  -0.67259  -0.67131  -0.65321  -0.65198
 Alpha  occ. eigenvalues --   -0.64898  -0.64676  -0.64661  -0.64572  -0.64321
 Alpha  occ. eigenvalues --   -0.64094  -0.62324  -0.62206  -0.60510  -0.60239
 Alpha  occ. eigenvalues --   -0.59844  -0.59718  -0.59036  -0.58894  -0.58553
 Alpha  occ. eigenvalues --   -0.58331  -0.57621  -0.57477  -0.57361  -0.57135
 Alpha  occ. eigenvalues --   -0.56364  -0.56110  -0.55999  -0.55824  -0.55581
 Alpha  occ. eigenvalues --   -0.55382  -0.55371  -0.55147  -0.54559  -0.54397
 Alpha  occ. eigenvalues --   -0.53927  -0.53845  -0.53360  -0.53270  -0.53131
 Alpha  occ. eigenvalues --   -0.53063  -0.52956  -0.52825  -0.52819  -0.52587
 Alpha  occ. eigenvalues --   -0.52490  -0.52288  -0.51965  -0.51766  -0.51659
 Alpha  occ. eigenvalues --   -0.51588  -0.51239  -0.51111  -0.50658  -0.50385
 Alpha  occ. eigenvalues --   -0.50086  -0.49985  -0.49896  -0.49755  -0.49565
 Alpha  occ. eigenvalues --   -0.49406  -0.49265  -0.49131  -0.49121  -0.49025
 Alpha  occ. eigenvalues --   -0.48630  -0.48530  -0.48497  -0.48479  -0.48268
 Alpha  occ. eigenvalues --   -0.48249  -0.47745  -0.47508  -0.47351  -0.47021
 Alpha  occ. eigenvalues --   -0.46844  -0.46613  -0.46589  -0.46480  -0.46411
 Alpha  occ. eigenvalues --   -0.46207  -0.46169  -0.45980  -0.45856  -0.45735
 Alpha  occ. eigenvalues --   -0.45254  -0.45095  -0.44621  -0.44565  -0.44435
 Alpha  occ. eigenvalues --   -0.44392  -0.44199  -0.44126  -0.44069  -0.44046
 Alpha  occ. eigenvalues --   -0.43980  -0.43857  -0.43528  -0.43480  -0.43430
 Alpha  occ. eigenvalues --   -0.43299  -0.43074  -0.42866  -0.42808  -0.42738
 Alpha  occ. eigenvalues --   -0.42683  -0.42445  -0.42053  -0.41871  -0.41751
 Alpha  occ. eigenvalues --   -0.41579  -0.41568  -0.41380  -0.41187  -0.40917
 Alpha  occ. eigenvalues --   -0.40899  -0.40890  -0.40644  -0.40619  -0.40619
 Alpha  occ. eigenvalues --   -0.40385  -0.40258  -0.40171  -0.39493  -0.39308
 Alpha  occ. eigenvalues --   -0.38517  -0.38241  -0.37774  -0.37591  -0.37371
 Alpha  occ. eigenvalues --   -0.37299  -0.37161  -0.37116  -0.36739  -0.36710
 Alpha  occ. eigenvalues --   -0.36228  -0.36122  -0.34338  -0.34154  -0.33802
 Alpha  occ. eigenvalues --   -0.33793  -0.33237  -0.33074  -0.31433  -0.31182
 Alpha  occ. eigenvalues --   -0.31088  -0.30875  -0.30072  -0.29872  -0.29513
 Alpha  occ. eigenvalues --   -0.29377  -0.29228  -0.29108  -0.24133  -0.23933
 Alpha  occ. eigenvalues --   -0.21182  -0.21014
 Alpha virt. eigenvalues --   -0.08832  -0.08691  -0.01807  -0.01580  -0.00125
 Alpha virt. eigenvalues --    0.00062   0.02148   0.02306   0.03056   0.03319
 Alpha virt. eigenvalues --    0.04680   0.04817   0.05079   0.05221   0.06166

 Mulliken charges:
               1
     1  Mg   0.838512
     2  C   -0.002906
     3  C   -0.094090
     4  C   -0.046030
     5  C   -0.063972
     6  N   -0.256808
     7  C   -0.052291
     8  C   -0.014002
     9  C   -0.086985
    10  C    0.046299
    11  C    0.104794
    12  C    0.053455
    13  C   -0.072197
    14  H    0.037187
    15  N   -0.433073
    16  C    0.168256
    17  C   -0.177300
    18  C   -0.004298
    19  C    0.148612
    20  C    0.110183
    21  C    0.011879
    22  O   -0.249869
    23  C    0.062687
    24  N   -0.341139
    25  C    0.041258
    26  C   -0.028138
    27  C   -0.024027
    28  C    0.074930
    29  C    0.076168
    30  C    0.035115
    31  C   -0.004497
    32  N   -0.310504
    33  C    0.080499
    34  C   -0.169698
    35  C    0.008439
    36  C    0.083021
    37  C    0.127308
    38  C    0.046149
    39  O   -0.188177
    40  C   -0.005277
    41  C    0.212906
    42  O   -0.257077
    43  O   -0.304826
    44  C    0.157566
    45  H   -0.017540
    46  H   -0.017031
    47  H   -0.041386
    48  H    0.001122
    49  H   -0.003923
    50  H    0.025547
    51  H    0.016346
    52  H    0.016793
    53  H    0.011027
    54  H    0.044255
    55  H    0.017874
    56  H    0.017950
    57  H    0.006085
    58  H    0.026820
    59  H    0.038943
    60  H    0.037636
    61  H    0.035111
    62  H    0.030791
    63  H    0.016327
    64  H    0.009585
    65  H    0.023116
    66  H    0.012574
    67  H    0.004874
    68  H    0.006441
    69  H    0.004885
    70  H    0.008504
    71  H    0.018478
    72  H    0.028842
    73  H    0.047581
    74  H    0.009167
    75  H    0.046175
    76  H    0.035299
    77  H    0.043093
    78  H    0.046678
    79  H    0.053921
    80  Mg   0.838088
    81  C   -0.016941
    82  C   -0.087898
    83  C   -0.045375
    84  C   -0.064003
    85  N   -0.254521
    86  C   -0.049791
    87  C   -0.015066
    88  C   -0.090536
    89  C    0.045741
    90  C    0.114420
    91  C    0.062596
    92  C   -0.077657
    93  H    0.034574
    94  N   -0.423476
    95  C    0.162893
    96  C   -0.174652
    97  C   -0.007857
    98  C    0.152104
    99  C    0.099381
   100  C    0.015498
   101  O   -0.253277
   102  C    0.061222
   103  N   -0.349952
   104  C    0.037711
   105  C   -0.019984
   106  C   -0.035036
   107  C    0.088953
   108  C    0.073415
   109  C    0.034698
   110  C   -0.007637
   111  N   -0.324184
   112  C    0.078453
   113  C   -0.162612
   114  C    0.002233
   115  C    0.096347
   116  C    0.131422
   117  C    0.042496
   118  O   -0.188249
   119  C    0.000851
   120  C    0.211159
   121  O   -0.251034
   122  O   -0.305759
   123  C    0.152125
   124  H   -0.019849
   125  H   -0.015606
   126  H   -0.039889
   127  H   -0.001123
   128  H   -0.004672
   129  H    0.022336
   130  H    0.015084
   131  H    0.015453
   132  H    0.013973
   133  H    0.037663
   134  H    0.020339
   135  H    0.019474
   136  H    0.008588
   137  H    0.026246
   138  H    0.039505
   139  H    0.038288
   140  H    0.036183
   141  H    0.033744
   142  H    0.014136
   143  H    0.013608
   144  H    0.024737
   145  H    0.011819
   146  H    0.006817
   147  H    0.006314
   148  H    0.003905
   149  H    0.010761
   150  H    0.017747
   151  H    0.029913
   152  H    0.045584
   153  H    0.008758
   154  H    0.048054
   155  H    0.034826
   156  H    0.043548
   157  H    0.049287
   158  H    0.053566
 Sum of Mulliken charges =  -0.00000

 Dipole moment (field-independent basis, Debye):
    X=             -3.5716    Y=              1.9549    Z=              6.6540  Tot=              7.8009
 Quadrupole moment (field-independent basis, Debye-Ang):
   XX=           -518.7465   YY=           -521.1702   ZZ=           -477.8467
   XY=             30.8993   XZ=             -6.4072   YZ=            -20.3030

 Normal termination of Gaussian 16 at Sat Sep 11 12:17:40 2021.
