 Gaussian 16, Revision A.03,
 Gaussian 16:  ES64L-G16RevA.03 25-Dec-2016

 -----------------------------------
 #p cam-b3lyp/Def2SVP td=(nstates=5)
 -----------------------------------

 --------------------------------
 TDDFT excited states in gaussian
 --------------------------------
 Symbolic Z-matrix:
 Charge =  0 Multiplicity = 1

                         Standard orientation:
 ---------------------------------------------------------------------
 Center     Atomic      Atomic             Coordinates (Angstroms)
 Number     Number       Type             X           Y           Z
 ---------------------------------------------------------------------
      1         12           0       15.783091    0.537709    0.564539
      2          6           0       16.094370   -2.245874   -1.664134
      3          6           0       16.590755    2.547998   -2.071648
      4          6           0       15.959890    2.958759    2.605097
      5          6           0       16.121803   -1.721039    3.196837
      6          7           0       16.258328    0.089839   -1.550693
      7          6           0       16.284695   -1.013081   -2.292342
      8          6           0       16.458725   -0.730017   -3.814499
      9          6           0       17.158909    0.699651   -3.726236
     10          6           0       16.609851    1.156706   -2.386251
     11          6           0       18.679834    0.628621   -3.635435
     12          6           0       15.086867   -0.650694   -4.565129
     13          6           0       15.174153   -0.703347   -6.093188
     14          1           0       14.125021   -1.390281   -6.831288
     15          7           0       15.731460    2.486962    0.247367
     16          6           0       16.079924    3.131563   -0.892084
     17          6           0       15.866195    4.570727   -0.627872
     18          6           0       15.546295    4.725222    0.818464
     19          6           0       15.761601    3.382164    1.293031
     20          6           0       15.924404    5.620662   -1.694642
     21          6           0       15.125146    5.899539    1.644143
     22          8           0       15.123837    5.866934    2.922231
     23          6           0       14.794380    7.134173    0.909763
     24          7           0       16.227517    0.648748    2.601152
     25          6           0       16.177319    1.814001    3.255865
     26          6           0       16.252863    1.610111    4.740001
     27          6           0       16.120442    0.036618    4.977358
     28          6           0       16.071014   -0.421720    3.498928
     29          6           0       17.528520    2.123523    5.421998
     30          6           0       14.998580   -0.438169    5.934657
     31          6           0       13.645946   -0.157681    5.319185
     32          7           0       15.882485   -1.620376    0.773903
     33          6           0       16.047194   -2.345421    1.962959
     34          6           0       16.165060   -3.766898    1.589356
     35          6           0       16.076769   -3.768340    0.198655
     36          6           0       15.940404   -2.429941   -0.268662
     37          6           0       16.388431   -4.848557    2.486325
     38          6           0       16.090640   -4.586973   -1.002804
     39          8           0       16.086697   -5.798283   -1.226871
     40          6           0       16.225004   -3.623859   -2.263830
     41          6           0       15.195565   -4.051531   -3.274107
     42          8           0       13.976783   -3.918784   -3.041049
     43          8           0       15.802766   -4.325065   -4.439022
     44          6           0       14.834173   -4.727385   -5.493593
     45          1           0       17.061442    3.251560   -2.761137
     46          1           0       15.916496    3.754175    3.352004
     47          1           0       16.144751   -2.491242    3.969957
     48          1           0       17.109899   -1.431919   -4.335776
     49          1           0       16.823911    1.366576   -4.520408
     50          1           0       19.024281   -0.398527   -3.516085
     51          1           0       18.947382    1.223778   -2.762108
     52          1           0       19.142427    1.124549   -4.489156
     53          1           0       14.664522    0.346019   -4.437660
     54          1           0       14.410129   -1.431179   -4.215565
     55          1           0       16.157099   -1.039013   -6.424932
     56          1           0       15.092219    0.314262   -6.475232
     57          1           0       16.342300    5.227917   -2.620741
     58          1           0       16.646243    6.368308   -1.366492
     59          1           0       14.955595    6.092470   -1.859380
     60          1           0       15.661076    7.450627    0.329036
     61          1           0       14.429327    7.839161    1.655804
     62          1           0       14.005664    6.915846    0.189200
     63          1           0       15.433292    2.118012    5.246721
     64          1           0       17.029680   -0.391153    5.400409
     65          1           0       17.339576    2.841826    6.220149
     66          1           0       18.171918    2.552305    4.654225
     67          1           0       18.171251    1.345930    5.833900
     68          1           0       15.043791    0.111779    6.874050
     69          1           0       15.054584   -1.501140    6.169620
     70          1           0       13.469740    0.884463    5.583230
     71          1           0       12.886513   -0.805472    5.758320
     72          1           0       13.683744   -0.216269    4.231240
     73          1           0       15.719938   -5.649506    2.170784
     74          1           0       16.194854   -4.554221    3.517585
     75          1           0       17.443266   -5.050312    2.300653
     76          1           0       17.240875   -3.740042   -2.640167
     77          1           0       15.151574   -5.701358   -5.866242
     78          1           0       14.790877   -3.902861   -6.205416
     79          1           0       13.822278   -4.955620   -5.156968
     80         12           0      -15.953093   -0.632077    0.490697
     81          6           0      -15.831562    1.825020   -2.122141
     82          6           0      -15.173426    1.869220    2.674778
     83          6           0      -15.609357   -2.840586    2.742755
     84          6           0      -15.589293   -3.068955   -1.974055
     85          7           0      -15.576307    1.527168    0.194134
     86          6           0      -15.618583    2.360281   -0.834682
     87          6           0      -15.501462    3.860307   -0.452851
     88          6           0      -14.738381    3.692430    0.950149
     89          6           0      -15.215269    2.289797    1.321471
     90          6           0      -13.225304    3.661604    0.812348
     91          6           0      -16.902950    4.540869   -0.266628
     92          6           0      -16.871577    6.069281   -0.197723
     93          1           0      -17.980145    6.815456   -0.786593
     94          7           0      -15.948118   -0.460260    2.467827
     95          6           0      -15.627419    0.634650    3.188658
     96          6           0      -15.761001    0.240692    4.599726
     97          6           0      -16.026892   -1.222512    4.655066
     98          6           0      -15.847192   -1.575993    3.261210
     99          6           0      -15.714595    1.229249    5.728443
    100          6           0      -16.371652   -2.152229    5.778884
    101          8           0      -16.325005   -3.425335    5.637947
    102          6           0      -16.674896   -1.529208    7.075564
    103          7           0      -15.432722   -2.643856    0.424912
    104          6           0      -15.408097   -3.388523    1.544185
    105          6           0      -15.278417   -4.857540    1.219273
    106          6           0      -15.465117   -4.965164   -0.365387
    107          6           0      -15.586870   -3.464184   -0.708371
    108          6           0      -13.957863   -5.513792    1.621607
    109          6           0      -16.565803   -5.932668   -0.880256
    110          6           0      -17.932101   -5.409314   -0.499819
    111          7           0      -15.931039   -0.668326   -1.669457
    112          6           0      -15.739555   -1.792900   -2.501773
    113          6           0      -15.690172   -1.300865   -3.893854
    114          6           0      -15.834446    0.089409   -3.772184
    115          6           0      -15.944305    0.441185   -2.399704
    116          6           0      -15.482415   -2.101505   -5.052277
    117          6           0      -15.908116    1.340439   -4.492031
    118          8           0      -15.958980    1.657595   -5.679697
    119          6           0      -15.782625    2.532361   -3.448002
    120          6           0      -16.866618    3.530477   -3.750053
    121          8           0      -18.063774    3.227028   -3.603945
    122          8           0      -16.309603    4.738702   -3.950797
    123          6           0      -17.345823    5.764694   -4.243038
    124          1           0      -14.710823    2.529230    3.409130
    125          1           0      -15.592965   -3.653763    3.472113
    126          1           0      -15.576639   -3.775875   -2.806387
    127          1           0      -14.904043    4.456621   -1.132016
    128          1           0      -15.087397    4.419246    1.679041
    129          1           0      -12.915316    3.638939   -0.221835
    130          1           0      -12.901525    2.764767    1.324107
    131          1           0      -12.779898    4.497870    1.358791
    132          1           0      -17.279786    4.315148    0.739243
    133          1           0      -17.583614    4.227657   -1.034232
    134          1           0      -15.911212    6.477488   -0.535380
    135          1           0      -16.937288    6.370814    0.850503
    136          1           0      -15.341580    2.205000    5.393503
    137          1           0      -14.954142    0.874948    6.432756
    138          1           0      -16.668873    1.315343    6.252468
    139          1           0      -15.822127   -0.937762    7.400277
    140          1           0      -16.984157   -2.348066    7.728021
    141          1           0      -17.509178   -0.831554    6.941921
    142          1           0      -16.058282   -5.431301    1.704772
    143          1           0      -14.551667   -5.327352   -0.859615
    144          1           0      -14.089368   -6.383892    2.292209
    145          1           0      -13.332823   -4.764519    2.088986
    146          1           0      -13.336827   -5.848159    0.792314
    147          1           0      -16.464030   -6.910432   -0.402992
    148          1           0      -16.532890   -6.092815   -1.952752
    149          1           0      -18.053132   -5.760555    0.529296
    150          1           0      -18.697155   -5.826188   -1.151700
    151          1           0      -17.941518   -4.313385   -0.477335
    152          1           0      -16.185067   -1.756682   -5.799187
    153          1           0      -15.619233   -3.158715   -4.834659
    154          1           0      -14.439215   -1.859344   -5.272208
    155          1           0      -14.786826    2.962852   -3.560441
    156          1           0      -17.076698    6.227773   -5.197405
    157          1           0      -17.373911    6.422563   -3.354130
    158          1           0      -18.350543    5.416760   -4.452668
 ---------------------------------------------------------------------

 SCF Done:  E(RCAM-B3LYP) =  -4069.81177461     A.U. after   19 cycles

 Excitation energies and oscillator strengths:

 Excited State   1:      Singlet-A      1.6756 eV  739.95 nm  f=0.3887  <S**2>=0.000
     310 -> 316        0.17358
     312 -> 313        0.68586
     310 <- 316        0.10462
 This state for optimization and/or second-order correction.
 Total Energy, E(TD-HF/TD-DFT) =  -4069.75019832
 Copying the excited state density for this state as the 1-particle RhoCI density.

 Excited State   2:      Singlet-A      1.6798 eV  738.07 nm  f=0.3875  <S**2>=0.000
     309 -> 315        0.17548
     311 -> 314        0.68551
     309 <- 315        0.10508

 Excited State   3:      Singlet-A      2.1861 eV  567.14 nm  f=0.1023  <S**2>=0.000
     310 -> 313        0.64247
     312 -> 316       -0.27313

 Excited State   4:      Singlet-A      2.1925 eV  565.49 nm  f=0.0987  <S**2>=0.000
     309 -> 314        0.64070
     311 -> 315       -0.27826

 Excited State   5:      Singlet-A      3.0657 eV  404.43 nm  f=0.0000  <S**2>=0.000
     311 -> 313        0.70711

 The electronic state is 1-A.
 Alpha  occ. eigenvalues --  -46.87796 -46.87661 -19.26355 -19.26278 -19.19166
 Alpha  occ. eigenvalues --  -19.19015 -19.18816 -19.18713 -19.18168 -19.18054
 Alpha  occ. eigenvalues --  -14.42498 -14.42449 -14.41449 -14.41359 -14.39402
 Alpha  occ. eigenvalues --  -14.39352 -14.38601 -14.38586 -10.39095 -10.39075
 Alpha  occ. eigenvalues --  -10.35450 -10.35390 -10.34387 -10.34231 -10.31763
 Alpha  occ. eigenvalues --  -10.31672 -10.31403 -10.31310 -10.31024 -10.30907
 Alpha  occ. eigenvalues --  -10.30569 -10.30507 -10.30398 -10.30362 -10.30207
 Alpha  occ. eigenvalues --  -10.30140 -10.29921 -10.29894 -10.29630 -10.29437
 Alpha  occ. eigenvalues --  -10.29401 -10.29254 -10.28745 -10.28721 -10.28659
 Alpha  occ. eigenvalues --  -10.28530 -10.28406 -10.28364 -10.28142 -10.28113
 Alpha  occ. eigenvalues --  -10.28002 -10.27792 -10.27726 -10.27669 -10.27584
 Alpha  occ. eigenvalues --  -10.27515 -10.27503 -10.27484 -10.27480 -10.27467
 Alpha  occ. eigenvalues --  -10.27464 -10.27452 -10.27402 -10.27373 -10.27155
 Alpha  occ. eigenvalues --  -10.27053 -10.26699 -10.26696 -10.26412 -10.26412
 Alpha  occ. eigenvalues --  -10.26230 -10.26188 -10.26135 -10.26026 -10.26019
 Alpha  occ. eigenvalues --  -10.25934 -10.25853 -10.25843 -10.25438 -10.25392
 Alpha  occ. eigenvalues --  -10.24874 -10.24832 -10.24788 -10.24730 -10.24692
 Alpha  occ. eigenvalues --  -10.24690  -3.16539  -3.16411  -1.91420  -1.91293
 Alpha  occ. eigenvalues --   -1.91007  -1.90882  -1.90849  -1.90719  -1.16649
 Alpha  occ. eigenvalues --   -1.16627  -1.08662  -1.08625  -1.07218  -1.06965
 Alpha  occ. eigenvalues --   -1.06950  -1.06637  -1.04580  -1.04496  -1.03760
 Alpha  occ. eigenvalues --   -1.03664  -1.03233  -1.03039  -1.02411  -1.02112
 Alpha  occ. eigenvalues --   -0.91988  -0.91971  -0.89521  -0.89494  -0.89184
 Alpha  occ. eigenvalues --   -0.89153  -0.88288  -0.88219  -0.87870  -0.87795
 Alpha  occ. eigenvalues --   -0.87685  -0.87671  -0.87274  -0.87120  -0.85001
 Alpha  occ. eigenvalues --   -0.84979  -0.83938  -0.83875  -0.82968  -0.82930
 Alpha  occ. eigenvalues --   -0.82653  -0.82646  -0.81599  -0.81583  -0.80595
 Alpha  occ. eigenvalues --   -0.80444  -0.78797  -0.78636  -0.77217  -0.77145
 Alpha  occ. eigenvalues --   -0.76932  -0.76900  -0.75920  -0.75841  -0.74899
 Alpha  occ. eigenvalues --   -0.74802  -0.72774  -0.72700  -0.71671  -0.71581
 Alpha  occ. eigenvalues --   -0.69909  -0.69756  -0.68871  -0.68828  -0.67640
 Alpha  occ. eigenvalues --   -0.67602  -0.67217  -0.67201  -0.65284  -0.65274
 Alpha  occ. eigenvalues --   -0.64852  -0.64771  -0.64655  -0.64619  -0.64270
 Alpha  occ. eigenvalues --   -0.64203  -0.62294  -0.62281  -0.60442  -0.60339
 Alpha  occ. eigenvalues --   -0.59802  -0.59798  -0.58994  -0.58987  -0.58503
 Alpha  occ. eigenvalues --   -0.58426  -0.57582  -0.57557  -0.57308  -0.57237
 Alpha  occ. eigenvalues --   -0.56309  -0.56205  -0.55974  -0.55890  -0.55519
 Alpha  occ. eigenvalues --   -0.55453  -0.55339  -0.55248  -0.54522  -0.54489
 Alpha  occ. eigenvalues --   -0.53914  -0.53891  -0.53298  -0.53228  -0.53220
 Alpha  occ. eigenvalues --   -0.53143  -0.52913  -0.52904  -0.52755  -0.52668
 Alpha  occ. eigenvalues --   -0.52441  -0.52400  -0.51914  -0.51887  -0.51660
 Alpha  occ. eigenvalues --   -0.51614  -0.51203  -0.51195  -0.50573  -0.50474
 Alpha  occ. eigenvalues --   -0.50033  -0.49980  -0.49918  -0.49866  -0.49513
 Alpha  occ. eigenvalues --   -0.49488  -0.49213  -0.49204  -0.49106  -0.49093
 Alpha  occ. eigenvalues --   -0.48591  -0.48560  -0.48462  -0.48445  -0.48375
 Alpha  occ. eigenvalues --   -0.48338  -0.47693  -0.47595  -0.47296  -0.47118
 Alpha  occ. eigenvalues --   -0.46796  -0.46710  -0.46555  -0.46552  -0.46358
 Alpha  occ. eigenvalues --   -0.46271  -0.46162  -0.46086  -0.45825  -0.45820
 Alpha  occ. eigenvalues --   -0.45207  -0.45202  -0.44576  -0.44516  -0.44506
 Alpha  occ. eigenvalues --   -0.44477  -0.44145  -0.44129  -0.44086  -0.44078
 Alpha  occ. eigenvalues --   -0.44018  -0.43940  -0.43556  -0.43492  -0.43387
 Alpha  occ. eigenvalues --   -0.43384  -0.43026  -0.42933  -0.42903  -0.42697
 Alpha  occ. eigenvalues --   -0.42654  -0.42553  -0.42009  -0.41965  -0.41703
 Alpha  occ. eigenvalues --   -0.41671  -0.41531  -0.41460  -0.41140  -0.40990
 Alpha  occ. eigenvalues --   -0.40867  -0.40823  -0.40722  -0.40699  -0.40572
 Alpha  occ. eigenvalues --   -0.40493  -0.40229  -0.40229  -0.39444  -0.39424
 Alpha  occ. eigenvalues --   -0.38469  -0.38349  -0.37744  -0.37656  -0.37321
 Alpha  occ. eigenvalues --   -0.37266  -0.37261  -0.37201  -0.36775  -0.36710
 Alpha  occ. eigenvalues --   -0.36218  -0.36191  -0.34285  -0.34254  -0.33866
 Alpha  occ. eigenvalues --   -0.33766  -0.33185  -0.33176  -0.31346  -0.31272
 Alpha  occ. eigenvalues --   -0.31035  -0.30973  -0.30027  -0.29958  -0.29449
 Alpha  occ. eigenvalues --   -0.29327  -0.29321  -0.29213  -0.24080  -0.24037
 Alpha  occ. eigenvalues --   -0.21127  -0.21117
 Alpha virt. eigenvalues --   -0.08792  -0.08774  -0.01749  -0.01684  -0.00058
 Alpha virt. eigenvalues --   -0.00029   0.02201   0.02206   0.03122   0.03228
 Alpha virt. eigenvalues --    0.04720   0.04729   0.05102   0.05161   0.06180

 Mulliken charges:
               1
     1  Mg   0.838713
     2  C   -0.002945
     3  C   -0.094093
     4  C   -0.045871
     5  C   -0.063976
     6  N   -0.256758
     7  C   -0.052466
     8  C   -0.013996
     9  C   -0.086998
    10  C    0.046312
    11  C    0.104806
    12  C    0.053450
    13  C   -0.071841
    14  H    0.036205
    15  N   -0.433136
    16  C    0.168423
    17  C   -0.177151
    18  C   -0.004014
    19  C    0.148698
    20  C    0.110183
    21  C    0.012264
    22  O   -0.249666
    23  C    0.062480
    24  N   -0.341124
    25  C    0.041248
    26  C   -0.028176
    27  C   -0.023985
    28  C    0.074844
    29  C    0.076182
    30  C    0.035155
    31  C   -0.004504
    32  N   -0.310483
    33  C    0.080410
    34  C   -0.169721
    35  C    0.008358
    36  C    0.082977
    37  C    0.127311
    38  C    0.046121
    39  O   -0.188422
    40  C   -0.005314
    41  C    0.212861
    42  O   -0.257095
    43  O   -0.304797
    44  C    0.157682
    45  H   -0.017579
    46  H   -0.016871
    47  H   -0.041514
    48  H    0.000952
    49  H   -0.004000
    50  H    0.025478
    51  H    0.016431
    52  H    0.016685
    53  H    0.011214
    54  H    0.044128
    55  H    0.017876
    56  H    0.017976
    57  H    0.005906
    58  H    0.026818
    59  H    0.039563
    60  H    0.037362
    61  H    0.035606
    62  H    0.031514
    63  H    0.016518
    64  H    0.009455
    65  H    0.023176
    66  H    0.012559
    67  H    0.004746
    68  H    0.006325
    69  H    0.004724
    70  H    0.008748
    71  H    0.018111
    72  H    0.029015
    73  H    0.047572
    74  H    0.009089
    75  H    0.046012
    76  H    0.035162
    77  H    0.042961
    78  H    0.046428
    79  H    0.053703
    80  Mg   0.837911
    81  C   -0.016829
    82  C   -0.087795
    83  C   -0.045487
    84  C   -0.064850
    85  N   -0.254589
    86  C   -0.049853
    87  C   -0.015076
    88  C   -0.090522
    89  C    0.045764
    90  C    0.114372
    91  C    0.062524
    92  C   -0.077896
    93  H    0.034873
    94  N   -0.423500
    95  C    0.162933
    96  C   -0.174589
    97  C   -0.007785
    98  C    0.152105
    99  C    0.099353
   100  C    0.015596
   101  O   -0.253138
   102  C    0.061186
   103  N   -0.350076
   104  C    0.037536
   105  C   -0.019857
   106  C   -0.034832
   107  C    0.088931
   108  C    0.073624
   109  C    0.034747
   110  C   -0.007696
   111  N   -0.324109
   112  C    0.078429
   113  C   -0.163129
   114  C    0.002235
   115  C    0.096198
   116  C    0.131485
   117  C    0.042365
   118  O   -0.187919
   119  C    0.000914
   120  C    0.211257
   121  O   -0.251021
   122  O   -0.305637
   123  C    0.152035
   124  H   -0.019634
   125  H   -0.015517
   126  H   -0.040439
   127  H   -0.000673
   128  H   -0.004324
   129  H    0.022451
   130  H    0.014471
   131  H    0.016293
   132  H    0.013928
   133  H    0.037667
   134  H    0.020775
   135  H    0.019605
   136  H    0.008768
   137  H    0.026199
   138  H    0.039804
   139  H    0.038284
   140  H    0.036434
   141  H    0.033885
   142  H    0.014415
   143  H    0.012467
   144  H    0.025196
   145  H    0.011676
   146  H    0.005744
   147  H    0.006309
   148  H    0.003650
   149  H    0.010950
   150  H    0.017928
   151  H    0.030077
   152  H    0.045979
   153  H    0.008531
   154  H    0.046953
   155  H    0.035011
   156  H    0.043878
   157  H    0.049493
   158  H    0.053578
 Sum of Mulliken charges =  -0.00000

 Dipole moment (field-independent basis, Debye):
    X=              3.7942    Y=              5.5356    Z=              1.5350  Tot=              6.8844
 Quadrupole moment (field-independent basis, Debye-Ang):
   XX=           -517.8159   YY=           -503.5288   ZZ=           -495.2765
   XY=             27.8554   XZ=            -94.1745   YZ=              3.8989

 Normal termination of Gaussian 16 at Sat Sep  4 18:52:56 2021.
