 Gaussian 16, Revision A.03,
 Gaussian 16:  ES64L-G16RevA.03 25-Dec-2016

 -----------------------------------
 #p cam-b3lyp/Def2SVP td=(nstates=5)
 -----------------------------------

 --------------------------------
 TDDFT excited states in gaussian
 --------------------------------
 Symbolic Z-matrix:
 Charge =  0 Multiplicity = 1

                         Standard orientation:
 ---------------------------------------------------------------------
 Center     Atomic      Atomic             Coordinates (Angstroms)
 Number     Number       Type             X           Y           Z
 ---------------------------------------------------------------------
      1         12           0       15.663765   -0.756104    0.194526
      2          6           0       15.915052    2.152508   -1.876475
      3          6           0       16.515869    1.231882    2.833635
      4          6           0       15.892603   -3.381587    1.958356
      5          6           0       15.952354   -2.665680   -2.706491
      6          7           0       16.129811    1.403495    0.334445
      7          6           0       16.132386    2.419430   -0.522901
      8          6           0       16.313026    3.806468    0.163298
      9          6           0       17.044157    3.333302    1.498798
     10          6           0       16.504756    1.916246    1.582015
     11          6           0       18.563145    3.274099    1.373603
     12          6           0       14.943463    4.498737    0.474409
     13          6           0       15.030070    5.983070    0.841300
     14          1           0       13.966460    6.875360    0.405522
     15          7           0       15.654706   -0.986224    2.156620
     16          6           0       16.017492   -0.065406    3.081696
     17          6           0       15.835077   -0.715553    4.397262
     18          6           0       15.518155   -2.150563    4.155599
     19          6           0       15.704004   -2.237191    2.729649
     20          6           0       15.916483    0.022516    5.698176
     21          6           0       15.122421   -3.269130    5.066826
     22          8           0       15.119993   -4.489210    4.684761
     23          6           0       14.818861   -2.903570    6.462268
     24          7           0       16.109852   -2.742471   -0.266982
     25          6           0       16.084838   -3.692046    0.674648
     26          6           0       16.155448   -5.062831    0.069750
     27          6           0       15.988709   -4.860102   -1.505322
     28          6           0       15.929782   -3.312959   -1.539191
     29          6           0       17.441766   -5.852277    0.349340
     30          6           0       14.856465   -5.656739   -2.200888
     31          6           0       13.510459   -5.149525   -1.733877
     32          7           0       15.716061   -0.364746   -1.939753
     33          6           0       15.864557   -1.308284   -2.966573
     34          6           0       15.951553   -0.558342   -4.233098
     35          6           0       15.863697    0.778860   -3.850976
     36          6           0       15.756666    0.860242   -2.433156
     37          6           0       16.151024   -1.122829   -5.523834
     38          6           0       15.860118    2.158881   -4.308564
     39          8           0       15.829863    2.706673   -5.411515
     40          6           0       16.015832    3.108001   -3.039410
     41          6           0       14.977645    4.190995   -3.151660
     42          8           0       13.761969    3.923553   -3.062363
     43          8           0       15.579117    5.389679   -3.107712
     44          6           0       14.602328    6.508655   -3.184712
     45          1           0       17.001990    1.704529    3.689341
     46          1           0       15.866306   -4.318304    2.518988
     47          1           0       15.958273   -3.197664   -3.659597
     48          1           0       16.948924    4.504007   -0.382135
     49          1           0       16.724019    3.912097    2.364956
     50          1           0       18.885099    3.443106    0.346129
     51          1           0       18.843314    2.272524    1.700477
     52          1           0       19.036704    3.961596    2.074934
     53          1           0       14.542887    4.100296    1.406527
     54          1           0       14.249773    4.372901   -0.357628
     55          1           0       16.005578    6.399748    0.588966
     56          1           0       14.970443    6.070777    1.926175
     57          1           0       16.326022    1.023187    5.565961
     58          1           0       16.654332   -0.494076    6.311708
     59          1           0       14.958234    0.045985    6.217348
     60          1           0       15.692430   -2.427053    6.907640
     61          1           0       14.469012   -3.816468    6.942969
     62          1           0       14.025808   -2.155242    6.466708
     63          1           0       15.346971   -5.694097    0.436213
     64          1           0       16.888278   -5.144387   -2.051794
     65          1           0       17.268258   -6.817939    0.824836
     66          1           0       18.094598   -5.227980    0.958729
     67          1           0       18.067276   -6.031371   -0.524777
     68          1           0       14.913343   -6.710700   -1.930930
     69          1           0       14.889226   -5.590713   -3.288462
     70          1           0       13.356909   -5.690367   -0.800740
     71          1           0       12.736955   -5.398369   -2.461188
     72          1           0       13.547320   -4.087060   -1.492432
     73          1           0       15.465344   -0.603434   -6.193193
     74          1           0       15.963573   -2.196350   -5.519806
     75          1           0       17.201273   -0.882948   -5.689030
     76          1           0       17.029052    3.507527   -3.069195
     77          1           0       14.898558    7.136028   -4.025477
     78          1           0       14.577230    6.966676   -2.195777
     79          1           0       13.585594    6.241838   -3.475229
     80         12           0      -16.081839   -0.531173   -0.255020
     81          6           0      -14.145653    1.797319    1.670698
     82          6           0      -18.474366    1.887874   -0.497165
     83          6           0      -17.997295   -2.696092   -1.563283
     84          6           0      -14.104723   -3.069510    1.084233
     85          7           0      -16.181171    1.535259    0.527436
     86          6           0      -15.359889    2.333122    1.193234
     87          6           0      -15.832365    3.808744    1.287259
     88          6           0      -17.408194    3.569653    1.091116
     89          6           0      -17.360494    2.268181    0.293262
     90          6           0      -18.143428    3.304292    2.394329
     91          6           0      -15.239535    4.700412    0.140299
     92          6           0      -15.407464    6.207557    0.345413
     93          1           0      -14.344136    7.095585   -0.116347
     94          7           0      -17.725647   -0.301512   -1.343000
     95          6           0      -18.567387    0.753306   -1.332892
     96          6           0      -19.631876    0.427813   -2.294698
     97          6           0      -19.438534   -0.975356   -2.751281
     98          6           0      -18.368464   -1.394709   -1.868567
     99          6           0      -20.649261    1.431919   -2.753089
    100          6           0      -20.114620   -1.806704   -3.799110
    101          8           0      -19.946768   -3.075761   -3.863640
    102          6           0      -21.051568   -1.105236   -4.688810
    103          7           0      -16.197150   -2.599822   -0.082561
    104          6           0      -17.088515   -3.304835   -0.801142
    105          6           0      -16.803633   -4.785716   -0.722286
    106          6           0      -15.385233   -4.912203    0.005526
    107          6           0      -15.125708   -3.421456    0.314874
    108          6           0      -17.837814   -5.622952    0.029973
    109          6           0      -14.282579   -5.715935   -0.736653
    110          6           0      -13.860083   -4.978989   -1.987171
    111          7           0      -14.310568   -0.636636    0.977683
    112          6           0      -13.663069   -1.802267    1.442581
    113          6           0      -12.572892   -1.366480    2.339262
    114          6           0      -12.677133    0.032614    2.352062
    115          6           0      -13.768727    0.438992    1.537963
    116          6           0      -11.685419   -2.224601    3.047873
    117          6           0      -12.118562    1.257571    2.877597
    118          8           0      -11.129900    1.542159    3.552347
    119          6           0      -13.123001    2.447898    2.560398
    120          6           0      -12.325445    3.589849    1.992651
    121          8           0      -11.754258    3.477083    0.893730
    122          8           0      -12.546974    4.692304    2.731507
    123          6           0      -11.786061    5.854817    2.201035
    124          1           0      -19.380444    2.491863   -0.441529
    125          1           0      -18.558274   -3.479486   -2.078135
    126          1           0      -13.382204   -3.795309    1.463503
    127          1           0      -15.644635    4.285891    2.241650
    128          1           0      -17.857505    4.363197    0.499717
    129          1           0      -17.463467    3.202910    3.227105
    130          1           0      -18.692681    2.384713    2.240229
    131          1           0      -18.895648    4.079256    2.567306
    132          1           0      -15.843373    4.565753   -0.766330
    133          1           0      -14.204628    4.471209   -0.024196
    134          1           0      -15.693956    6.454034    1.375033
    135          1           0      -16.253412    6.547613   -0.256877
    136          1           0      -20.642443    2.328647   -2.121241
    137          1           0      -21.636006    0.987602   -2.583439
    138          1           0      -20.550107    1.678522   -3.812344
    139          1           0      -21.835012   -0.641029   -4.094510
    140          1           0      -21.365679   -1.846971   -5.425729
    141          1           0      -20.514925   -0.292986   -5.191672
    142          1           0      -16.730437   -5.218705   -1.712370
    143          1           0      -15.469111   -5.424408    0.975289
    144          1           0      -18.263704   -6.441840   -0.580049
    145          1           0      -18.620525   -4.963747    0.381166
    146          1           0      -17.482664   -6.073389    0.955269
    147          1           0      -14.673593   -6.682676   -1.063272
    148          1           0      -13.406812   -5.912077   -0.127090
    149          1           0      -14.619251   -5.275917   -2.716963
    150          1           0      -12.866823   -5.294165   -2.300430
    151          1           0      -13.940347   -3.894265   -1.850819
    152          1           0      -10.695454   -1.799778    2.947895
    153          1           0      -11.723300   -3.241415    2.662602
    154          1           0      -12.105408   -2.151171    4.054584
    155          1           0      -13.616511    2.717892    3.494806
    156          1           0      -11.178652    6.241948    3.024960
    157          1           0      -12.543579    6.536250    1.770248
    158          1           0      -11.026984    5.657852    1.453062
 ---------------------------------------------------------------------

 SCF Done:  E(RCAM-B3LYP) =  -4069.81175679     A.U. after   19 cycles

 Excitation energies and oscillator strengths:

 Excited State   1:      Singlet-A      1.6755 eV  739.98 nm  f=0.3367  <S**2>=0.000
     309 -> 315        0.17203
     311 -> 313        0.67986
     309 <- 315        0.10369
 This state for optimization and/or second-order correction.
 Total Energy, E(TD-HF/TD-DFT) =  -4069.75018288
 Copying the excited state density for this state as the 1-particle RhoCI density.

 Excited State   2:      Singlet-A      1.6800 eV  738.02 nm  f=0.4439  <S**2>=0.000
     310 -> 316        0.17399
     312 -> 314        0.67950
     310 <- 316        0.10419

 Excited State   3:      Singlet-A      2.1861 eV  567.15 nm  f=0.0948  <S**2>=0.000
     309 -> 313        0.64206
     311 -> 315       -0.27295

 Excited State   4:      Singlet-A      2.1925 eV  565.48 nm  f=0.1052  <S**2>=0.000
     310 -> 314        0.64028
     312 -> 316       -0.27813

 Excited State   5:      Singlet-A      3.0470 eV  406.90 nm  f=0.0000  <S**2>=0.000
     312 -> 313        0.70709

 The electronic state is 1-A.
 Alpha  occ. eigenvalues --  -46.87724 -46.87661 -19.26348 -19.26211 -19.19159
 Alpha  occ. eigenvalues --  -19.18945 -19.18742 -19.18714 -19.18099 -19.18052
 Alpha  occ. eigenvalues --  -14.42499 -14.42378 -14.41378 -14.41360 -14.39353
 Alpha  occ. eigenvalues --  -14.39331 -14.38600 -14.38515 -10.39089 -10.39006
 Alpha  occ. eigenvalues --  -10.35391 -10.35375 -10.34319 -10.34229 -10.31755
 Alpha  occ. eigenvalues --  -10.31606 -10.31334 -10.31310 -10.31024 -10.30837
 Alpha  occ. eigenvalues --  -10.30498 -10.30436 -10.30398 -10.30361 -10.30142
 Alpha  occ. eigenvalues --  -10.30136 -10.29895 -10.29850 -10.29559 -10.29438
 Alpha  occ. eigenvalues --  -10.29401 -10.29183 -10.28720 -10.28677 -10.28653
 Alpha  occ. eigenvalues --  -10.28463 -10.28406 -10.28293 -10.28142 -10.28046
 Alpha  occ. eigenvalues --  -10.28002 -10.27722 -10.27670 -10.27656 -10.27518
 Alpha  occ. eigenvalues --  -10.27512 -10.27485 -10.27468 -10.27465 -10.27432
 Alpha  occ. eigenvalues --  -10.27408 -10.27381 -10.27377 -10.27332 -10.27087
 Alpha  occ. eigenvalues --  -10.27051 -10.26692 -10.26629 -10.26414 -10.26335
 Alpha  occ. eigenvalues --  -10.26168 -10.26136 -10.26113 -10.26029 -10.25948
 Alpha  occ. eigenvalues --  -10.25935 -10.25852 -10.25775 -10.25401 -10.25370
 Alpha  occ. eigenvalues --  -10.24874 -10.24761 -10.24726 -10.24716 -10.24691
 Alpha  occ. eigenvalues --  -10.24612  -3.16467  -3.16411  -1.91349  -1.91293
 Alpha  occ. eigenvalues --   -1.90935  -1.90882  -1.90777  -1.90719  -1.16642
 Alpha  occ. eigenvalues --   -1.16560  -1.08659  -1.08557  -1.07143  -1.06966
 Alpha  occ. eigenvalues --   -1.06944  -1.06568  -1.04509  -1.04496  -1.03689
 Alpha  occ. eigenvalues --   -1.03664  -1.03162  -1.03040  -1.02340  -1.02112
 Alpha  occ. eigenvalues --   -0.91988  -0.91901  -0.89495  -0.89448  -0.89152
 Alpha  occ. eigenvalues --   -0.89116  -0.88221  -0.88216  -0.87800  -0.87795
 Alpha  occ. eigenvalues --   -0.87685  -0.87601  -0.87201  -0.87120  -0.85000
 Alpha  occ. eigenvalues --   -0.84910  -0.83876  -0.83866  -0.82931  -0.82894
 Alpha  occ. eigenvalues --   -0.82653  -0.82576  -0.81596  -0.81514  -0.80524
 Alpha  occ. eigenvalues --   -0.80443  -0.78725  -0.78636  -0.77147  -0.77145
 Alpha  occ. eigenvalues --   -0.76899  -0.76863  -0.75852  -0.75840  -0.74828
 Alpha  occ. eigenvalues --   -0.74804  -0.72703  -0.72700  -0.71602  -0.71582
 Alpha  occ. eigenvalues --   -0.69836  -0.69757  -0.68828  -0.68801  -0.67602
 Alpha  occ. eigenvalues --   -0.67569  -0.67200  -0.67146  -0.65272  -0.65214
 Alpha  occ. eigenvalues --   -0.64782  -0.64771  -0.64654  -0.64549  -0.64204
 Alpha  occ. eigenvalues --   -0.64198  -0.62278  -0.62225  -0.60370  -0.60340
 Alpha  occ. eigenvalues --   -0.59798  -0.59733  -0.58994  -0.58916  -0.58432
 Alpha  occ. eigenvalues --   -0.58426  -0.57555  -0.57513  -0.57237  -0.57237
 Alpha  occ. eigenvalues --   -0.56238  -0.56205  -0.55906  -0.55886  -0.55452
 Alpha  occ. eigenvalues --   -0.55448  -0.55269  -0.55248  -0.54488  -0.54452
 Alpha  occ. eigenvalues --   -0.53913  -0.53823  -0.53228  -0.53227  -0.53150
 Alpha  occ. eigenvalues --   -0.53142  -0.52902  -0.52842  -0.52683  -0.52668
 Alpha  occ. eigenvalues --   -0.52400  -0.52366  -0.51886  -0.51845  -0.51659
 Alpha  occ. eigenvalues --   -0.51544  -0.51202  -0.51124  -0.50499  -0.50475
 Alpha  occ. eigenvalues --   -0.49981  -0.49961  -0.49868  -0.49846  -0.49488
 Alpha  occ. eigenvalues --   -0.49442  -0.49203  -0.49143  -0.49106  -0.49025
 Alpha  occ. eigenvalues --   -0.48559  -0.48522  -0.48391  -0.48377  -0.48373
 Alpha  occ. eigenvalues --   -0.48339  -0.47623  -0.47595  -0.47226  -0.47119
 Alpha  occ. eigenvalues --   -0.46726  -0.46710  -0.46555  -0.46483  -0.46288
 Alpha  occ. eigenvalues --   -0.46271  -0.46092  -0.46086  -0.45823  -0.45751
 Alpha  occ. eigenvalues --   -0.45210  -0.45132  -0.44515  -0.44506  -0.44477
 Alpha  occ. eigenvalues --   -0.44434  -0.44128  -0.44078  -0.44073  -0.44017
 Alpha  occ. eigenvalues --   -0.43948  -0.43939  -0.43553  -0.43423  -0.43387
 Alpha  occ. eigenvalues --   -0.43314  -0.42956  -0.42930  -0.42902  -0.42627
 Alpha  occ. eigenvalues --   -0.42583  -0.42553  -0.41964  -0.41937  -0.41670
 Alpha  occ. eigenvalues --   -0.41633  -0.41461  -0.41459  -0.41070  -0.40991
 Alpha  occ. eigenvalues --   -0.40797  -0.40750  -0.40722  -0.40698  -0.40501
 Alpha  occ. eigenvalues --   -0.40494  -0.40227  -0.40160  -0.39424  -0.39369
 Alpha  occ. eigenvalues --   -0.38398  -0.38351  -0.37674  -0.37654  -0.37266
 Alpha  occ. eigenvalues --   -0.37249  -0.37200  -0.37191  -0.36770  -0.36641
 Alpha  occ. eigenvalues --   -0.36217  -0.36121  -0.34254  -0.34214  -0.33861
 Alpha  occ. eigenvalues --   -0.33696  -0.33176  -0.33114  -0.31273  -0.31272
 Alpha  occ. eigenvalues --   -0.30974  -0.30964  -0.29958  -0.29956  -0.29377
 Alpha  occ. eigenvalues --   -0.29328  -0.29250  -0.29212  -0.24037  -0.24009
 Alpha  occ. eigenvalues --   -0.21118  -0.21056
 Alpha virt. eigenvalues --   -0.08793  -0.08702  -0.01685  -0.01678  -0.00029
 Alpha virt. eigenvalues --    0.00014   0.02206   0.02271   0.03199   0.03230
 Alpha virt. eigenvalues --    0.04729   0.04790   0.05166   0.05172   0.06183

 Mulliken charges:
               1
     1  Mg   0.838759
     2  C   -0.002946
     3  C   -0.094092
     4  C   -0.045854
     5  C   -0.063966
     6  N   -0.256785
     7  C   -0.052434
     8  C   -0.014036
     9  C   -0.086972
    10  C    0.046337
    11  C    0.104825
    12  C    0.053444
    13  C   -0.071829
    14  H    0.036237
    15  N   -0.433110
    16  C    0.168453
    17  C   -0.177153
    18  C   -0.003982
    19  C    0.148742
    20  C    0.110197
    21  C    0.012331
    22  O   -0.249642
    23  C    0.062446
    24  N   -0.341131
    25  C    0.041243
    26  C   -0.028174
    27  C   -0.023974
    28  C    0.074863
    29  C    0.076210
    30  C    0.035132
    31  C   -0.004508
    32  N   -0.310453
    33  C    0.080408
    34  C   -0.169713
    35  C    0.008347
    36  C    0.083004
    37  C    0.127307
    38  C    0.046121
    39  O   -0.188493
    40  C   -0.005335
    41  C    0.212874
    42  O   -0.256991
    43  O   -0.304853
    44  C    0.157683
    45  H   -0.017642
    46  H   -0.016862
    47  H   -0.041537
    48  H    0.000877
    49  H   -0.004009
    50  H    0.025426
    51  H    0.016408
    52  H    0.016603
    53  H    0.011290
    54  H    0.044195
    55  H    0.017774
    56  H    0.017969
    57  H    0.005859
    58  H    0.026757
    59  H    0.039661
    60  H    0.037283
    61  H    0.035666
    62  H    0.031630
    63  H    0.016590
    64  H    0.009379
    65  H    0.023174
    66  H    0.012503
    67  H    0.004677
    68  H    0.006308
    69  H    0.004693
    70  H    0.008808
    71  H    0.018202
    72  H    0.029052
    73  H    0.047584
    74  H    0.009096
    75  H    0.045917
    76  H    0.035071
    77  H    0.042871
    78  H    0.046408
    79  H    0.053776
    80  Mg   0.837934
    81  C   -0.016816
    82  C   -0.087795
    83  C   -0.045527
    84  C   -0.064862
    85  N   -0.254587
    86  C   -0.049819
    87  C   -0.015105
    88  C   -0.090479
    89  C    0.045756
    90  C    0.114381
    91  C    0.062520
    92  C   -0.077924
    93  H    0.034972
    94  N   -0.423509
    95  C    0.162952
    96  C   -0.174622
    97  C   -0.007789
    98  C    0.152121
    99  C    0.099367
   100  C    0.015591
   101  O   -0.253173
   102  C    0.061182
   103  N   -0.350079
   104  C    0.037539
   105  C   -0.019839
   106  C   -0.034806
   107  C    0.088899
   108  C    0.073666
   109  C    0.034720
   110  C   -0.007680
   111  N   -0.324130
   112  C    0.078448
   113  C   -0.163103
   114  C    0.002242
   115  C    0.096231
   116  C    0.131480
   117  C    0.042393
   118  O   -0.187864
   119  C    0.000907
   120  C    0.211253
   121  O   -0.250926
   122  O   -0.305673
   123  C    0.152008
   124  H   -0.019672
   125  H   -0.015562
   126  H   -0.040441
   127  H   -0.000677
   128  H   -0.004307
   129  H    0.022430
   130  H    0.014408
   131  H    0.016267
   132  H    0.013949
   133  H    0.037723
   134  H    0.020744
   135  H    0.019602
   136  H    0.008760
   137  H    0.026134
   138  H    0.039841
   139  H    0.038237
   140  H    0.036427
   141  H    0.033936
   142  H    0.014439
   143  H    0.012388
   144  H    0.025155
   145  H    0.011605
   146  H    0.005648
   147  H    0.006271
   148  H    0.003671
   149  H    0.010943
   150  H    0.018020
   151  H    0.030108
   152  H    0.046071
   153  H    0.008545
   154  H    0.046879
   155  H    0.034973
   156  H    0.043879
   157  H    0.049491
   158  H    0.053663
 Sum of Mulliken charges =  -0.00000

 Dipole moment (field-independent basis, Debye):
    X=             -2.1623    Y=              2.6430    Z=              3.8403  Tot=              5.1390
 Quadrupole moment (field-independent basis, Debye-Ang):
   XX=           -335.2218   YY=           -465.3658   ZZ=           -525.6700
   XY=            -33.8765   XZ=             57.3706   YZ=             23.7736

 Normal termination of Gaussian 16 at Sun Sep 12 15:01:23 2021.
