 Gaussian 16, Revision A.03,
 Gaussian 16:  ES64L-G16RevA.03 25-Dec-2016

 -----------------------------------
 #p cam-b3lyp/Def2SVP td=(nstates=5)
 -----------------------------------

 --------------------------------
 TDDFT excited states in gaussian
 --------------------------------
 Symbolic Z-matrix:
 Charge =  0 Multiplicity = 1

                         Standard orientation:
 ---------------------------------------------------------------------
 Center     Atomic      Atomic             Coordinates (Angstroms)
 Number     Number       Type             X           Y           Z
 ---------------------------------------------------------------------
      1         12           0        6.489761   -0.592640    0.460085
      2          6           0        6.932407    2.236428   -1.687624
      3          6           0        7.526689    1.389061    3.037042
      4          6           0        6.543050   -3.183653    2.287770
      5          6           0        6.592457   -2.589578   -2.394272
      6          7           0        7.120250    1.527948    0.539050
      7          6           0        7.188065    2.519291   -0.344020
      8          6           0        7.482922    3.905017    0.304206
      9          6           0        8.194429    3.410564    1.642590
     10          6           0        7.550242    2.041224    1.768515
     11          6           0        9.702666    3.232693    1.500869
     12          6           0        6.174279    4.707113    0.613765
     13          6           0        6.378350    6.189118    0.941438
     14          1           0        5.379603    7.148865    0.495635
     15          7           0        6.490393   -0.772969    2.427401
     16          6           0        6.934772    0.140041    3.324187
     17          6           0        6.721749   -0.461688    4.658063
     18          6           0        6.293523   -1.873889    4.457048
     19          6           0        6.452529   -2.009549    3.031673
     20          6           0        6.876914    0.299869    5.938572
     21          6           0        5.826677   -2.936240    5.401291
     22          8           0        5.726378   -4.161631    5.050675
     23          6           0        5.571058   -2.514324    6.790423
     24          7           0        6.777387   -2.617997    0.044354
     25          6           0        6.693401   -3.539406    1.010241
     26          6           0        6.651405   -4.926077    0.439875
     27          6           0        6.478771   -4.750112   -1.137778
     28          6           0        6.536968   -3.204285   -1.210581
     29          6           0        7.877843   -5.804134    0.724263
     30          6           0        5.279825   -5.475038   -1.799163
     31          6           0        3.982780   -4.855355   -1.329305
     32          7           0        6.542093   -0.259130   -1.683995
     33          6           0        6.604342   -1.236263   -2.687992
     34          6           0        6.730482   -0.526577   -3.974267
     35          6           0        6.749655    0.822442   -3.625521
     36          6           0        6.668723    0.946666   -2.209078
     37          6           0        6.868672   -1.136267   -5.252397
     38          6           0        6.844493    2.187023   -4.118250
     39          8           0        6.840652    2.708175   -5.234440
     40          6           0        7.089322    3.152507   -2.875783
     41          6           0        6.134868    4.308381   -3.003376
     42          8           0        4.903753    4.136654   -2.892781
     43          8           0        6.826126    5.458454   -2.997330
     44          6           0        5.936105    6.646384   -3.091341
     45          1           0        8.059063    1.844230    3.874503
     46          1           0        6.453493   -4.101537    2.872497
     47          1           0        6.544806   -3.143795   -3.333434
     48          1           0        8.162321    4.538405   -0.266460
     49          1           0        7.931147    4.033248    2.497382
     50          1           0       10.022281    3.351294    0.465639
     51          1           0        9.910508    2.221040    1.849944
     52          1           0       10.236687    3.899174    2.178660
     53          1           0        5.757546    4.363457    1.560494
     54          1           0        5.461602    4.614044   -0.206452
     55          1           0        7.379085    6.523888    0.666906
     56          1           0        6.340557    6.307828    2.024341
     57          1           0        7.359347    1.262852    5.775886
     58          1           0        7.581841   -0.256177    6.556309
     59          1           0        5.930479    0.409093    6.468349
     60          1           0        6.484347   -2.094941    7.212999
     61          1           0        5.159616   -3.385776    7.298494
     62          1           0        4.837222   -1.707847    6.785129
     63          1           0        5.802496   -5.484663    0.831999
     64          1           0        7.346528   -5.115515   -1.687461
     65          1           0        7.638139   -6.741749    1.226384
     66          1           0        8.584534   -5.216580    1.309633
     67          1           0        8.475810   -6.051871   -0.152366
     68          1           0        5.260278   -6.523294   -1.502980
     69          1           0        5.302462   -5.438527   -2.888385
     70          1           0        3.801544   -5.359757   -0.380851
     71          1           0        3.182640   -5.062372   -2.040734
     72          1           0        4.103503   -3.793163   -1.115624
     73          1           0        6.215198   -0.582779   -5.926632
     74          1           0        6.600363   -2.191953   -5.218625
     75          1           0        7.931713   -0.981276   -5.436184
     76          1           0        8.129432    3.472790   -2.927863
     77          1           0        6.267441    7.228440   -3.951377
     78          1           0        5.959516    7.129221   -2.114241
     79          1           0        4.898135    6.450756   -3.362794
     80         12           0       -6.685874    0.495476    0.434016
     81          6           0       -6.335947   -1.738308   -2.352882
     82          6           0       -7.095383   -2.261246    2.400573
     83          6           0       -7.444653    2.437032    2.826092
     84          6           0       -7.386268    3.024539   -1.859239
     85          7           0       -6.693688   -1.666682   -0.032125
     86          6           0       -6.489205   -2.399405   -1.116398
     87          6           0       -6.366465   -3.923535   -0.848970
     88          6           0       -7.181023   -3.991500    0.533327
     89          6           0       -6.951464   -2.563073    1.022797
     90          6           0       -8.674586   -4.196708    0.342279
     91          6           0       -4.876876   -4.379341   -0.660919
     92          6           0       -4.657212   -5.893149   -0.704269
     93          1           0       -3.426554   -6.400995   -1.304324
     94          7           0       -6.710989    0.172189    2.391932
     95          6           0       -6.864165   -1.012921    3.019090
     96          6           0       -6.832147   -0.713217    4.458982
     97          6           0       -6.812857    0.764983    4.630116
     98          6           0       -7.014156    1.191623    3.259888
     99          6           0       -6.742452   -1.780740    5.510534
    100          6           0       -6.654002    1.648324    5.830396
    101          8           0       -6.906669    2.903918    5.780547
    102          6           0       -6.284028    0.984215    7.088791
    103          7           0       -7.529406    2.394701    0.495138
    104          6           0       -7.704101    3.036283    1.663812
    105          6           0       -8.066451    4.485341    1.441735
    106          6           0       -7.861210    4.744592   -0.122953
    107          6           0       -7.484978    3.314650   -0.569176
    108          6           0       -9.486688    4.884712    1.841512
    109          6           0       -6.923011    5.915319   -0.525227
    110          6           0       -5.498835    5.593362   -0.133493
    111          7           0       -6.660541    0.695225   -1.717154
    112          6           0       -7.014520    1.834810   -2.472208
    113          6           0       -6.947801    1.450868   -3.897187
    114          6           0       -6.579053    0.097410   -3.871430
    115          6           0       -6.446383   -0.337263   -2.524973
    116          6           0       -7.256350    2.294498   -5.001363
    117          6           0       -6.282231   -1.065255   -4.676915
    118          8           0       -6.150555   -1.276730   -5.881770
    119          6           0       -6.234880   -2.339101   -3.727462
    120          6           0       -4.993908   -3.121013   -4.060827
    121          8           0       -3.867226   -2.639061   -3.848925
    122          8           0       -5.338750   -4.384502   -4.369149
    123          6           0       -4.140527   -5.202367   -4.696526
    124          1           0       -7.460601   -3.042725    3.067507
    125          1           0       -7.612958    3.177596    3.611403
    126          1           0       -7.494988    3.782425   -2.637990
    127          1           0       -6.840390   -4.554578   -1.591231
    128          1           0       -6.734833   -4.706191    1.219989
    129          1           0       -8.958566   -4.144582   -0.698284
    130          1           0       -9.154425   -3.406984    0.905429
    131          1           0       -8.989127   -5.134174    0.809776
    132          1           0       -4.567282   -4.174067    0.371917
    133          1           0       -4.238601   -3.900899   -1.378087
    134          1           0       -5.528438   -6.424741   -1.105930
    135          1           0       -4.568402   -6.260417    0.321024
    136          1           0       -6.940941   -2.775197    5.092135
    137          1           0       -7.568019   -1.610663    6.210091
    138          1           0       -5.800212   -1.750808    6.061858
    139          1           0       -7.035182    0.238475    7.337982
    140          1           0       -6.130291    1.789335    7.809913
    141          1           0       -5.342999    0.444133    6.935828
    142          1           0       -7.404157    5.138920    1.996078
    143          1           0       -8.809497    4.990563   -0.623036
    144          1           0       -9.517121    5.709896    2.577869
    145          1           0       -9.990780    4.009721    2.229874
    146          1           0      -10.133838    5.176913    1.016269
    147          1           0       -7.196472    6.823451    0.017612
    148          1           0       -6.955550    6.150752   -1.583762
    149          1           0       -5.462752    5.878653    0.922147
    150          1           0       -4.797313    6.178510   -0.724691
    151          1           0       -5.309205    4.515180   -0.190240
    152          1           0       -6.488285    2.127658   -5.744830
    153          1           0       -7.301300    3.339762   -4.702721
    154          1           0       -8.239544    1.903615   -5.276701
    155          1           0       -7.142881   -2.915860   -3.907570
    156          1           0       -4.305998   -5.627568   -5.691265
    157          1           0       -4.026081   -5.913889   -3.857251
    158          1           0       -3.202183   -4.680354   -4.843069
 ---------------------------------------------------------------------

 SCF Done:  E(RCAM-B3LYP) =  -4069.81148989     A.U. after   19 cycles

 Excitation energies and oscillator strengths:

 Excited State   1:      Singlet-A      1.6654 eV  744.48 nm  f=0.0088  <S**2>=0.000
     309 -> 315        0.11056
     310 -> 316       -0.13066
     311 -> 313        0.52520
     312 -> 314        0.44228
 This state for optimization and/or second-order correction.
 Total Energy, E(TD-HF/TD-DFT) =  -4069.75028841
 Copying the excited state density for this state as the 1-particle RhoCI density.

 Excited State   2:      Singlet-A      1.6889 eV  734.10 nm  f=0.7361  <S**2>=0.000
     309 -> 315        0.13588
     310 -> 316        0.11388
     311 -> 313       -0.44140
     312 -> 314        0.52400

 Excited State   3:      Singlet-A      2.1846 eV  567.54 nm  f=0.0425  <S**2>=0.000
     309 -> 314        0.20827
     310 -> 313        0.60837
     311 -> 316        0.25741

 Excited State   4:      Singlet-A      2.1923 eV  565.54 nm  f=0.1477  <S**2>=0.000
     309 -> 314        0.60610
     310 -> 313       -0.20679
     312 -> 315       -0.26353

 Excited State   5:      Singlet-A      2.7064 eV  458.12 nm  f=0.0000  <S**2>=0.000
     312 -> 313        0.70710

 The electronic state is 1-A.
 Alpha  occ. eigenvalues --  -46.87666 -46.87563 -19.26247 -19.26128 -19.19043
 Alpha  occ. eigenvalues --  -19.18852 -19.18733 -19.18651 -19.18024 -19.17945
 Alpha  occ. eigenvalues --  -14.42403 -14.42322 -14.41325 -14.41265 -14.39278
 Alpha  occ. eigenvalues --  -14.39258 -14.38498 -14.38450 -10.38976 -10.38916
 Alpha  occ. eigenvalues --  -10.35370 -10.35331 -10.34243 -10.34122 -10.31670
 Alpha  occ. eigenvalues --  -10.31529 -10.31270 -10.31209 -10.30935 -10.30788
 Alpha  occ. eigenvalues --  -10.30433 -10.30379 -10.30301 -10.30259 -10.30094
 Alpha  occ. eigenvalues --  -10.30055 -10.29798 -10.29794 -10.29504 -10.29347
 Alpha  occ. eigenvalues --  -10.29306 -10.29134 -10.28630 -10.28623 -10.28571
 Alpha  occ. eigenvalues --  -10.28410 -10.28310 -10.28237 -10.28053 -10.27993
 Alpha  occ. eigenvalues --  -10.27904 -10.27663 -10.27602 -10.27576 -10.27464
 Alpha  occ. eigenvalues --  -10.27431 -10.27394 -10.27394 -10.27389 -10.27385
 Alpha  occ. eigenvalues --  -10.27376 -10.27350 -10.27295 -10.27274 -10.27015
 Alpha  occ. eigenvalues --  -10.26949 -10.26597 -10.26569 -10.26378 -10.26361
 Alpha  occ. eigenvalues --  -10.26122 -10.26071 -10.26040 -10.25948 -10.25892
 Alpha  occ. eigenvalues --  -10.25838 -10.25732 -10.25682 -10.25354 -10.25332
 Alpha  occ. eigenvalues --  -10.24773 -10.24697 -10.24668 -10.24615 -10.24599
 Alpha  occ. eigenvalues --  -10.24550  -3.16408  -3.16312  -1.91290  -1.91194
 Alpha  occ. eigenvalues --   -1.90876  -1.90783  -1.90718  -1.90620  -1.16538
 Alpha  occ. eigenvalues --   -1.16475  -1.08549  -1.08478  -1.07138  -1.06905
 Alpha  occ. eigenvalues --   -1.06830  -1.06477  -1.04453  -1.04401  -1.03636
 Alpha  occ. eigenvalues --   -1.03569  -1.03105  -1.02944  -1.02283  -1.02016
 Alpha  occ. eigenvalues --   -0.91889  -0.91838  -0.89400  -0.89399  -0.89062
 Alpha  occ. eigenvalues --   -0.89062  -0.88172  -0.88131  -0.87729  -0.87690
 Alpha  occ. eigenvalues --   -0.87591  -0.87548  -0.87169  -0.87042  -0.84911
 Alpha  occ. eigenvalues --   -0.84859  -0.83819  -0.83784  -0.82879  -0.82863
 Alpha  occ. eigenvalues --   -0.82569  -0.82530  -0.81501  -0.81448  -0.80470
 Alpha  occ. eigenvalues --   -0.80352  -0.78680  -0.78547  -0.77095  -0.77054
 Alpha  occ. eigenvalues --   -0.76808  -0.76807  -0.75794  -0.75748  -0.74784
 Alpha  occ. eigenvalues --   -0.74717  -0.72645  -0.72603  -0.71551  -0.71492
 Alpha  occ. eigenvalues --   -0.69789  -0.69663  -0.68751  -0.68739  -0.67519
 Alpha  occ. eigenvalues --   -0.67511  -0.67116  -0.67101  -0.65179  -0.65157
 Alpha  occ. eigenvalues --   -0.64723  -0.64676  -0.64561  -0.64494  -0.64149
 Alpha  occ. eigenvalues --   -0.64111  -0.62182  -0.62157  -0.60334  -0.60258
 Alpha  occ. eigenvalues --   -0.59705  -0.59677  -0.58899  -0.58861  -0.58376
 Alpha  occ. eigenvalues --   -0.58331  -0.57451  -0.57441  -0.57188  -0.57147
 Alpha  occ. eigenvalues --   -0.56184  -0.56111  -0.55839  -0.55793  -0.55408
 Alpha  occ. eigenvalues --   -0.55369  -0.55214  -0.55154  -0.54392  -0.54390
 Alpha  occ. eigenvalues --   -0.53823  -0.53769  -0.53185  -0.53141  -0.53102
 Alpha  occ. eigenvalues --   -0.53054  -0.52807  -0.52783  -0.52654  -0.52598
 Alpha  occ. eigenvalues --   -0.52316  -0.52302  -0.51774  -0.51765  -0.51573
 Alpha  occ. eigenvalues --   -0.51495  -0.51104  -0.51063  -0.50486  -0.50407
 Alpha  occ. eigenvalues --   -0.49920  -0.49897  -0.49816  -0.49782  -0.49409
 Alpha  occ. eigenvalues --   -0.49400  -0.49112  -0.49088  -0.49013  -0.48971
 Alpha  occ. eigenvalues --   -0.48464  -0.48460  -0.48361  -0.48326  -0.48289
 Alpha  occ. eigenvalues --   -0.48262  -0.47578  -0.47509  -0.47183  -0.47035
 Alpha  occ. eigenvalues --   -0.46671  -0.46615  -0.46467  -0.46431  -0.46233
 Alpha  occ. eigenvalues --   -0.46178  -0.46031  -0.45990  -0.45722  -0.45679
 Alpha  occ. eigenvalues --   -0.45122  -0.45090  -0.44445  -0.44422  -0.44396
 Alpha  occ. eigenvalues --   -0.44385  -0.44040  -0.44025  -0.43987  -0.43970
 Alpha  occ. eigenvalues --   -0.43893  -0.43857  -0.43458  -0.43356  -0.43295
 Alpha  occ. eigenvalues --   -0.43266  -0.42900  -0.42835  -0.42803  -0.42569
 Alpha  occ. eigenvalues --   -0.42517  -0.42463  -0.41881  -0.41868  -0.41576
 Alpha  occ. eigenvalues --   -0.41573  -0.41410  -0.41369  -0.41021  -0.40901
 Alpha  occ. eigenvalues --   -0.40754  -0.40726  -0.40649  -0.40613  -0.40453
 Alpha  occ. eigenvalues --   -0.40402  -0.40143  -0.40110  -0.39329  -0.39322
 Alpha  occ. eigenvalues --   -0.38355  -0.38263  -0.37620  -0.37565  -0.37201
 Alpha  occ. eigenvalues --   -0.37174  -0.37134  -0.37107  -0.36667  -0.36568
 Alpha  occ. eigenvalues --   -0.36122  -0.36058  -0.34156  -0.34156  -0.33747
 Alpha  occ. eigenvalues --   -0.33609  -0.33079  -0.33055  -0.31263  -0.31209
 Alpha  occ. eigenvalues --   -0.30911  -0.30881  -0.29881  -0.29848  -0.29329
 Alpha  occ. eigenvalues --   -0.29238  -0.29185  -0.29110  -0.23951  -0.23940
 Alpha  occ. eigenvalues --   -0.21023  -0.21000
 Alpha virt. eigenvalues --   -0.08698  -0.08649  -0.01628  -0.01593   0.00052
 Alpha virt. eigenvalues --    0.00053   0.02307   0.02336   0.03290   0.03355
 Alpha virt. eigenvalues --    0.04820   0.04844   0.05257   0.05276   0.06266

 Mulliken charges:
               1
     1  Mg   0.839450
     2  C   -0.002727
     3  C   -0.094173
     4  C   -0.046044
     5  C   -0.063714
     6  N   -0.256730
     7  C   -0.052336
     8  C   -0.014024
     9  C   -0.086981
    10  C    0.046289
    11  C    0.104880
    12  C    0.053479
    13  C   -0.071743
    14  H    0.036218
    15  N   -0.432989
    16  C    0.168304
    17  C   -0.177377
    18  C   -0.004371
    19  C    0.148667
    20  C    0.110253
    21  C    0.011939
    22  O   -0.250297
    23  C    0.062635
    24  N   -0.341176
    25  C    0.041224
    26  C   -0.027983
    27  C   -0.024019
    28  C    0.075060
    29  C    0.076320
    30  C    0.035117
    31  C   -0.004356
    32  N   -0.310708
    33  C    0.081016
    34  C   -0.168829
    35  C    0.008582
    36  C    0.083594
    37  C    0.127114
    38  C    0.046711
    39  O   -0.187957
    40  C   -0.005602
    41  C    0.212847
    42  O   -0.256218
    43  O   -0.305030
    44  C    0.157651
    45  H   -0.017909
    46  H   -0.017402
    47  H   -0.041315
    48  H    0.000852
    49  H   -0.004155
    50  H    0.025388
    51  H    0.016301
    52  H    0.016405
    53  H    0.011290
    54  H    0.044576
    55  H    0.017656
    56  H    0.017809
    57  H    0.005836
    58  H    0.026402
    59  H    0.039156
    60  H    0.037357
    61  H    0.034789
    62  H    0.031277
    63  H    0.016077
    64  H    0.009259
    65  H    0.022643
    66  H    0.012469
    67  H    0.004583
    68  H    0.005513
    69  H    0.004986
    70  H    0.007743
    71  H    0.018848
    72  H    0.030054
    73  H    0.048635
    74  H    0.009314
    75  H    0.045674
    76  H    0.034910
    77  H    0.042775
    78  H    0.046144
    79  H    0.054091
    80  Mg   0.838454
    81  C   -0.016641
    82  C   -0.087791
    83  C   -0.045611
    84  C   -0.064781
    85  N   -0.254558
    86  C   -0.049702
    87  C   -0.015165
    88  C   -0.090523
    89  C    0.045762
    90  C    0.114433
    91  C    0.062495
    92  C   -0.077663
    93  H    0.034507
    94  N   -0.423388
    95  C    0.162835
    96  C   -0.174798
    97  C   -0.008058
    98  C    0.152079
    99  C    0.099440
   100  C    0.015315
   101  O   -0.253582
   102  C    0.061321
   103  N   -0.350131
   104  C    0.037508
   105  C   -0.019737
   106  C   -0.034856
   107  C    0.089105
   108  C    0.073783
   109  C    0.034728
   110  C   -0.007670
   111  N   -0.324271
   112  C    0.078884
   113  C   -0.162494
   114  C    0.002396
   115  C    0.096706
   116  C    0.131324
   117  C    0.042932
   118  O   -0.187505
   119  C    0.000673
   120  C    0.211208
   121  O   -0.250149
   122  O   -0.305813
   123  C    0.152076
   124  H   -0.019893
   125  H   -0.015925
   126  H   -0.040284
   127  H   -0.000783
   128  H   -0.004356
   129  H    0.022355
   130  H    0.014319
   131  H    0.016071
   132  H    0.014191
   133  H    0.038030
   134  H    0.020553
   135  H    0.019674
   136  H    0.008765
   137  H    0.025791
   138  H    0.039534
   139  H    0.038222
   140  H    0.035797
   141  H    0.033687
   142  H    0.014199
   143  H    0.012254
   144  H    0.024795
   145  H    0.011508
   146  H    0.005530
   147  H    0.005836
   148  H    0.003866
   149  H    0.010384
   150  H    0.018576
   151  H    0.030671
   152  H    0.046835
   153  H    0.008690
   154  H    0.046654
   155  H    0.034781
   156  H    0.043700
   157  H    0.049134
   158  H    0.053766
 Sum of Mulliken charges =  -0.00000

 Dipole moment (field-independent basis, Debye):
    X=              0.4638    Y=             -1.4126    Z=              7.0187  Tot=              7.1744
 Quadrupole moment (field-independent basis, Debye-Ang):
   XX=           -468.9853   YY=           -461.7308   ZZ=           -538.2874
   XY=             22.5628   XZ=             12.8988   YZ=             10.9754

 Normal termination of Gaussian 16 at Sat Sep 11 07:36:54 2021.
