 Gaussian 16, Revision A.03,
 Gaussian 16:  ES64L-G16RevA.03 25-Dec-2016

 -----------------------------------
 #p cam-b3lyp/Def2SVP td=(nstates=5)
 -----------------------------------

 --------------------------------
 TDDFT excited states in gaussian
 --------------------------------
 Symbolic Z-matrix:
 Charge =  0 Multiplicity = 1

                         Standard orientation:
 ---------------------------------------------------------------------
 Center     Atomic      Atomic             Coordinates (Angstroms)
 Number     Number       Type             X           Y           Z
 ---------------------------------------------------------------------
      1         12           0       -5.060947   -1.091757    0.317754
      2          6           0       -5.489742    2.460438    0.419020
      3          6           0       -6.090475   -0.973923   -2.933285
      4          6           0       -5.126839   -4.262230    0.337358
      5          6           0       -5.170943   -1.056168    3.800898
      6          7           0       -5.682007    0.590015   -0.980928
      7          6           0       -5.744896    1.910280   -0.839101
      8          6           0       -6.033929    2.661860   -2.172878
      9          6           0       -6.748394    1.484163   -2.975726
     10          6           0       -6.110398    0.294369   -2.280545
     11          6           0       -8.257330    1.427841   -2.760221
     12          6           0       -4.721893    3.129212   -2.888333
     13          6           0       -4.919531    4.145158   -4.017113
     14          1           0       -3.916257    5.181227   -4.210375
     15          7           0       -5.063498   -2.382435   -1.177905
     16          6           0       -5.504304   -2.159373   -2.439341
     17          6           0       -5.294724   -3.425385   -3.174168
     18          6           0       -4.872694   -4.459080   -2.188542
     19          6           0       -5.031497   -3.739975   -0.950379
     20          6           0       -5.447211   -3.549813   -4.659097
     21          6           0       -4.411130   -5.874267   -2.337994
     22          8           0       -4.316104   -6.667695   -1.339987
     23          6           0       -4.154416   -6.339799   -3.712919
     24          7           0       -5.357378   -2.496592    1.833076
     25          6           0       -5.278054   -3.808185    1.583241
     26          6           0       -5.241926   -4.604807    2.853684
     27          6           0       -5.067615   -3.544947    4.035237
     28          6           0       -5.118869   -2.244783    3.195465
     29          6           0       -6.472433   -5.479655    3.130278
     30          6           0       -3.871544   -3.754867    4.997404
     31          6           0       -2.572011   -3.529083    4.257583
     32          7           0       -5.110577    0.426535    1.868034
     33          6           0       -5.176619    0.215656    3.252896
     34          6           0       -5.298862    1.541472    3.886407
     35          6           0       -5.312209    2.436242    2.818206
     36          6           0       -5.231525    1.713335    1.593793
     37          6           0       -5.439049    1.789230    5.280465
     38          6           0       -5.400674    3.833281    2.425381
     39          8           0       -5.393875    4.906299    3.030426
     40          6           0       -5.641894    3.897233    0.852629
     41          6           0       -4.682216    4.908001    0.286346
     42          8           0       -3.451943    4.699106    0.298857
     43          8           0       -5.368336    5.842857   -0.388801
     44          6           0       -4.472967    6.860432   -1.001182
     45          1           0       -6.621285   -1.088489   -3.880416
     46          1           0       -5.041711   -5.349337    0.395580
     47          1           0       -5.125236   -0.961123    4.887328
     48          1           0       -6.710171    3.511677   -2.078367
     49          1           0       -6.482819    1.492648   -4.032665
     50          1           0       -8.575826    2.127570   -1.987653
     51          1           0       -8.469884    0.402657   -2.456393
     52          1           0       -8.788753    1.578040   -3.700330
     53          1           0       -4.307235    2.297468   -3.457826
     54          1           0       -4.009175    3.527621   -2.165402
     55          1           0       -5.918606    4.581110   -3.990568
     56          1           0       -4.881821    3.611887   -4.967061
     57          1           0       -5.925249   -2.669873   -5.087735
     58          1           0       -6.154963   -4.358597   -4.839831
     59          1           0       -4.500599   -3.772764   -5.151590
     60          1           0       -5.066062   -6.240718   -4.302524
     61          1           0       -3.747156   -7.345832   -3.618646
     62          1           0       -3.416984   -5.683523   -4.176001
     63          1           0       -4.395742   -5.290620    2.861294
     64          1           0       -5.936684   -3.519146    4.693057
     65          1           0       -6.237202   -6.535374    3.267498
     66          1           0       -7.176825   -5.339241    2.310884
     67          1           0       -7.071004   -5.169081    3.986241
     68          1           0       -3.856845   -4.779973    5.366031
     69          1           0       -3.893401   -3.091702    5.862266
     70          1           0       -2.393566   -4.491670    3.779654
     71          1           0       -1.772401   -3.286981    4.958455
     72          1           0       -2.688111   -2.788718    3.465834
     73          1           0       -4.782729    2.628988    5.508542
     74          1           0       -5.175476    0.909682    5.867430
     75          1           0       -6.501283    2.026403    5.337590
     76          1           0       -6.680534    4.192202    0.706537
     77          1           0       -4.801214    7.835375   -0.640662
     78          1           0       -4.494775    6.685160   -2.076918
     79          1           0       -3.435728    6.855015   -0.664368
     80         12           0        5.494798   -0.404048   -0.158190
     81          6           0        4.434311    3.017416    0.060998
     82          6           0        3.922862   -0.541459   -3.182212
     83          6           0        6.023025   -3.532624   -0.179014
     84          6           0        5.969885   -0.332779    3.293612
     85          7           0        4.360339    1.108374   -1.306171
     86          6           0        4.075127    2.392524   -1.151417
     87          6           0        3.436473    3.064143   -2.396649
     88          6           0        2.819506    1.752308   -3.087521
     89          6           0        3.777406    0.705247   -2.522934
     90          6           0        1.415580    1.423260   -2.607864
     91          6           0        4.504090    3.750896   -3.318913
     92          6           0        3.927519    4.686509   -4.383780
     93          1           0        4.679159    5.888182   -4.735180
     94          7           0        5.477245   -1.699468   -1.661564
     95          6           0        4.802557   -1.586840   -2.824918
     96          6           0        5.103522   -2.810131   -3.584609
     97          6           0        5.878547   -3.728644   -2.706886
     98          6           0        5.803456   -3.015624   -1.447497
     99          6           0        4.733004   -2.982835   -5.029016
    100          6           0        6.561890   -5.038990   -2.956325
    101          8           0        6.972200   -5.778501   -1.993205
    102          6           0        6.653011   -5.474568   -4.357564
    103          7           0        5.730350   -1.804334    1.360376
    104          6           0        6.002493   -3.090591    1.078567
    105          6           0        6.401167   -3.848911    2.322113
    106          6           0        6.574885   -2.741939    3.463170
    107          6           0        6.140844   -1.490112    2.669494
    108          6           0        5.414849   -4.916550    2.795087
    109          6           0        7.936575   -2.708425    4.209721
    110          6           0        9.032639   -2.271375    3.264722
    111          7           0        5.433912    1.102318    1.389460
    112          6           0        5.638682    0.911922    2.773618
    113          6           0        5.381499    2.208081    3.434116
    114          6           0        5.019704    3.063681    2.382667
    115          6           0        5.029721    2.345976    1.156168
    116          6           0        5.446666    2.455625    4.834329
    117          6           0        4.621285    4.408126    2.032788
    118          8           0        4.525498    5.472293    2.642802
    119          6           0        4.101838    4.406495    0.530607
    120          6           0        4.747140    5.561323   -0.185270
    121          8           0        5.976612    5.582286   -0.371196
    122          8           0        3.788527    6.339237   -0.720317
    123          6           0        4.379492    7.492356   -1.450315
    124          1           0        3.272333   -0.759180   -4.029735
    125          1           0        6.317834   -4.583927   -0.142867
    126          1           0        6.191465   -0.203711    4.355170
    127          1           0        2.648155    3.773780   -2.175859
    128          1           0        2.902027    1.800166   -4.170231
    129          1           0        1.108988    2.060455   -1.791696
    130          1           0        1.448299    0.389618   -2.289193
    131          1           0        0.713148    1.458285   -3.445540
    132          1           0        4.961575    2.990429   -3.964786
    133          1           0        5.232665    4.276233   -2.732536
    134          1           0        2.876596    4.933486   -4.190105
    135          1           0        3.906390    4.154820   -5.338182
    136          1           0        4.026247   -2.211056   -5.358044
    137          1           0        4.168209   -3.918332   -5.104598
    138          1           0        5.605292   -3.042787   -5.683369
    139          1           0        5.652999   -5.550528   -4.777882
    140          1           0        7.251783   -6.387306   -4.341514
    141          1           0        7.177441   -4.701855   -4.930719
    142          1           0        7.346813   -4.357113    2.178642
    143          1           0        5.840594   -2.871572    4.271778
    144          1           0        5.866636   -5.923292    2.875259
    145          1           0        4.574122   -4.930158    2.114269
    146          1           0        4.935109   -4.711230    3.750541
    147          1           0        8.204632   -3.710406    4.553731
    148          1           0        7.936921   -2.058796    5.078615
    149          1           0        9.297128   -3.198721    2.747839
    150          1           0        9.880027   -1.872966    3.819018
    151          1           0        8.648318   -1.572780    2.512461
    152          1           0        5.959903    3.399715    4.960037
    153          1           0        5.959440    1.650806    5.356917
    154          1           0        4.381029    2.488743    5.076344
    155          1           0        3.015411    4.498298    0.559557
    156          1           0        3.938522    8.399389   -1.025447
    157          1           0        4.191331    7.295336   -2.522478
    158          1           0        5.436626    7.685585   -1.310381
 ---------------------------------------------------------------------

 SCF Done:  E(RCAM-B3LYP) =  -4069.81142768     A.U. after   19 cycles

 Excitation energies and oscillator strengths:

 Excited State   1:      Singlet-A      1.6563 eV  748.54 nm  f=0.0022  <S**2>=0.000
     309 -> 315       -0.11433
     310 -> 316        0.12435
     311 -> 313       -0.46285
     312 -> 314        0.50793
 This state for optimization and/or second-order correction.
 Total Energy, E(TD-HF/TD-DFT) =  -4069.75055835
 Copying the excited state density for this state as the 1-particle RhoCI density.

 Excited State   2:      Singlet-A      1.6969 eV  730.64 nm  f=0.7170  <S**2>=0.000
     309 -> 315        0.13319
     310 -> 316        0.12030
     311 -> 313        0.50597
     312 -> 314        0.46116

 Excited State   3:      Singlet-A      2.1826 eV  568.07 nm  f=0.0273  <S**2>=0.000
     309 -> 313       -0.26696
     310 -> 314        0.58617
     311 -> 315        0.11135
     312 -> 316       -0.24587

 Excited State   4:      Singlet-A      2.1945 eV  564.96 nm  f=0.1557  <S**2>=0.000
     309 -> 313        0.58240
     310 -> 314        0.26383
     311 -> 315       -0.25546
     312 -> 316       -0.11655

 Excited State   5:      Singlet-A      2.4627 eV  503.44 nm  f=0.0000  <S**2>=0.000
     312 -> 313        0.70703

 The electronic state is 1-A.
 Alpha  occ. eigenvalues --  -46.87925 -46.87472 -19.26389 -19.26103 -19.19131
 Alpha  occ. eigenvalues --  -19.18936 -19.18927 -19.18566 -19.18256 -19.17802
 Alpha  occ. eigenvalues --  -14.42585 -14.42306 -14.41570 -14.41174 -14.39531
 Alpha  occ. eigenvalues --  -14.39168 -14.38707 -14.38404 -10.39191 -10.38849
 Alpha  occ. eigenvalues --  -10.35571 -10.35247 -10.34479 -10.33973 -10.31777
 Alpha  occ. eigenvalues --  -10.31549 -10.31535 -10.31103 -10.31054 -10.30830
 Alpha  occ. eigenvalues --  -10.30691 -10.30622 -10.30329 -10.30206 -10.30163
 Alpha  occ. eigenvalues --  -10.30027 -10.29980 -10.29748 -10.29705 -10.29380
 Alpha  occ. eigenvalues --  -10.29265 -10.29216 -10.28922 -10.28783 -10.28524
 Alpha  occ. eigenvalues --  -10.28495 -10.28491 -10.28274 -10.28206 -10.27925
 Alpha  occ. eigenvalues --  -10.27907 -10.27860 -10.27808 -10.27708 -10.27645
 Alpha  occ. eigenvalues --  -10.27596 -10.27541 -10.27530 -10.27490 -10.27375
 Alpha  occ. eigenvalues --  -10.27363 -10.27288 -10.27280 -10.27265 -10.27224
 Alpha  occ. eigenvalues --  -10.26940 -10.26763 -10.26554 -10.26524 -10.26369
 Alpha  occ. eigenvalues --  -10.26310 -10.26269 -10.26136 -10.26014 -10.25908
 Alpha  occ. eigenvalues --  -10.25758 -10.25741 -10.25645 -10.25516 -10.25254
 Alpha  occ. eigenvalues --  -10.24944 -10.24904 -10.24771 -10.24669 -10.24610
 Alpha  occ. eigenvalues --  -10.24503  -3.16668  -3.16222  -1.91550  -1.91136
 Alpha  occ. eigenvalues --   -1.91104  -1.90978  -1.90693  -1.90530  -1.16739
 Alpha  occ. eigenvalues --   -1.16400  -1.08711  -1.08400  -1.07336  -1.06820
 Alpha  occ. eigenvalues --   -1.06751  -1.06710  -1.04715  -1.04299  -1.03884
 Alpha  occ. eigenvalues --   -1.03475  -1.03355  -1.02854  -1.02532  -1.01921
 Alpha  occ. eigenvalues --   -0.92091  -0.91769  -0.89626  -0.89351  -0.89323
 Alpha  occ. eigenvalues --   -0.88943  -0.88392  -0.88058  -0.87973  -0.87811
 Alpha  occ. eigenvalues --   -0.87595  -0.87501  -0.87408  -0.86969  -0.85139
 Alpha  occ. eigenvalues --   -0.84810  -0.84034  -0.83715  -0.83095  -0.82793
 Alpha  occ. eigenvalues --   -0.82789  -0.82468  -0.81700  -0.81389  -0.80720
 Alpha  occ. eigenvalues --   -0.80249  -0.78924  -0.78466  -0.77348  -0.77068
 Alpha  occ. eigenvalues --   -0.76967  -0.76707  -0.76051  -0.75629  -0.75002
 Alpha  occ. eigenvalues --   -0.74631  -0.72890  -0.72511  -0.71792  -0.71384
 Alpha  occ. eigenvalues --   -0.70005  -0.69609  -0.69020  -0.68641  -0.67763
 Alpha  occ. eigenvalues --   -0.67417  -0.67392  -0.67036  -0.65437  -0.65070
 Alpha  occ. eigenvalues --   -0.64972  -0.64746  -0.64581  -0.64459  -0.64378
 Alpha  occ. eigenvalues --   -0.64034  -0.62406  -0.62067  -0.60567  -0.60179
 Alpha  occ. eigenvalues --   -0.59951  -0.59593  -0.59105  -0.58802  -0.58620
 Alpha  occ. eigenvalues --   -0.58229  -0.57692  -0.57420  -0.57314  -0.57052
 Alpha  occ. eigenvalues --   -0.56428  -0.56101  -0.56020  -0.55680  -0.55644
 Alpha  occ. eigenvalues --   -0.55439  -0.55272  -0.55064  -0.54626  -0.54299
 Alpha  occ. eigenvalues --   -0.54058  -0.53713  -0.53420  -0.53363  -0.53054
 Alpha  occ. eigenvalues --   -0.53035  -0.52955  -0.52902  -0.52711  -0.52533
 Alpha  occ. eigenvalues --   -0.52513  -0.52254  -0.52002  -0.51773  -0.51679
 Alpha  occ. eigenvalues --   -0.51478  -0.51308  -0.51002  -0.50718  -0.50345
 Alpha  occ. eigenvalues --   -0.50145  -0.50050  -0.49806  -0.49707  -0.49655
 Alpha  occ. eigenvalues --   -0.49335  -0.49311  -0.49231  -0.49001  -0.48886
 Alpha  occ. eigenvalues --   -0.48708  -0.48577  -0.48550  -0.48356  -0.48211
 Alpha  occ. eigenvalues --   -0.48164  -0.47824  -0.47419  -0.47416  -0.46955
 Alpha  occ. eigenvalues --   -0.46919  -0.46713  -0.46531  -0.46474  -0.46370
 Alpha  occ. eigenvalues --   -0.46268  -0.46098  -0.45926  -0.45895  -0.45611
 Alpha  occ. eigenvalues --   -0.45305  -0.45039  -0.44689  -0.44642  -0.44313
 Alpha  occ. eigenvalues --   -0.44295  -0.44260  -0.44234  -0.44134  -0.43928
 Alpha  occ. eigenvalues --   -0.43915  -0.43754  -0.43603  -0.43521  -0.43353
 Alpha  occ. eigenvalues --   -0.43193  -0.43143  -0.42805  -0.42756  -0.42728
 Alpha  occ. eigenvalues --   -0.42682  -0.42396  -0.42127  -0.41820  -0.41795
 Alpha  occ. eigenvalues --   -0.41687  -0.41456  -0.41278  -0.41265  -0.41016
 Alpha  occ. eigenvalues --   -0.40964  -0.40793  -0.40680  -0.40568  -0.40526
 Alpha  occ. eigenvalues --   -0.40433  -0.40320  -0.40055  -0.39539  -0.39282
 Alpha  occ. eigenvalues --   -0.38586  -0.38188  -0.37930  -0.37484  -0.37435
 Alpha  occ. eigenvalues --   -0.37416  -0.37094  -0.37010  -0.36821  -0.36556
 Alpha  occ. eigenvalues --   -0.36309  -0.36030  -0.34408  -0.34061  -0.33884
 Alpha  occ. eigenvalues --   -0.33636  -0.33307  -0.32986  -0.31465  -0.31159
 Alpha  occ. eigenvalues --   -0.31124  -0.30779  -0.30115  -0.29701  -0.29573
 Alpha  occ. eigenvalues --   -0.29432  -0.29150  -0.29007  -0.24205  -0.23841
 Alpha  occ. eigenvalues --   -0.21251  -0.20930
 Alpha virt. eigenvalues --   -0.08896  -0.08603  -0.01874  -0.01501  -0.00186
 Alpha virt. eigenvalues --    0.00148   0.02098   0.02424   0.02936   0.03398
 Alpha virt. eigenvalues --    0.04568   0.04913   0.04988   0.05404   0.05983

 Mulliken charges:
               1
     1  Mg   0.837980
     2  C   -0.003412
     3  C   -0.095051
     4  C   -0.045575
     5  C   -0.063650
     6  N   -0.256697
     7  C   -0.052835
     8  C   -0.013747
     9  C   -0.086835
    10  C    0.045831
    11  C    0.104774
    12  C    0.053803
    13  C   -0.071434
    14  H    0.034907
    15  N   -0.433108
    16  C    0.167962
    17  C   -0.177806
    18  C   -0.004108
    19  C    0.148558
    20  C    0.110273
    21  C    0.012261
    22  O   -0.249087
    23  C    0.062701
    24  N   -0.341098
    25  C    0.041145
    26  C   -0.028241
    27  C   -0.024067
    28  C    0.074923
    29  C    0.076069
    30  C    0.035019
    31  C   -0.004480
    32  N   -0.310622
    33  C    0.080601
    34  C   -0.169088
    35  C    0.008817
    36  C    0.083004
    37  C    0.127117
    38  C    0.046639
    39  O   -0.187124
    40  C   -0.005530
    41  C    0.213390
    42  O   -0.257548
    43  O   -0.304758
    44  C    0.157252
    45  H   -0.017729
    46  H   -0.016533
    47  H   -0.040983
    48  H    0.001416
    49  H   -0.004705
    50  H    0.025775
    51  H    0.016734
    52  H    0.016701
    53  H    0.009496
    54  H    0.043444
    55  H    0.018899
    56  H    0.017339
    57  H    0.005547
    58  H    0.027169
    59  H    0.038144
    60  H    0.037432
    61  H    0.036057
    62  H    0.030243
    63  H    0.016798
    64  H    0.009747
    65  H    0.023467
    66  H    0.012548
    67  H    0.004953
    68  H    0.006589
    69  H    0.004956
    70  H    0.008979
    71  H    0.018100
    72  H    0.028898
    73  H    0.048629
    74  H    0.009325
    75  H    0.046271
    76  H    0.035391
    77  H    0.043821
    78  H    0.045572
    79  H    0.054345
    80  Mg   0.837727
    81  C   -0.016425
    82  C   -0.087907
    83  C   -0.045583
    84  C   -0.065203
    85  N   -0.254560
    86  C   -0.048819
    87  C   -0.015417
    88  C   -0.090874
    89  C    0.045985
    90  C    0.113573
    91  C    0.062598
    92  C   -0.077311
    93  H    0.033991
    94  N   -0.423401
    95  C    0.162795
    96  C   -0.175151
    97  C   -0.008099
    98  C    0.151949
    99  C    0.099723
   100  C    0.015345
   101  O   -0.253485
   102  C    0.061348
   103  N   -0.350026
   104  C    0.037369
   105  C   -0.019707
   106  C   -0.034783
   107  C    0.089166
   108  C    0.073774
   109  C    0.034805
   110  C   -0.007580
   111  N   -0.324342
   112  C    0.078922
   113  C   -0.163005
   114  C    0.003241
   115  C    0.095995
   116  C    0.131279
   117  C    0.043519
   118  O   -0.186689
   119  C    0.000172
   120  C    0.210770
   121  O   -0.251928
   122  O   -0.304368
   123  C    0.152406
   124  H   -0.020989
   125  H   -0.015959
   126  H   -0.040756
   127  H    0.001968
   128  H   -0.005883
   129  H    0.028818
   130  H    0.013333
   131  H    0.014005
   132  H    0.013290
   133  H    0.037613
   134  H    0.020977
   135  H    0.018559
   136  H    0.007752
   137  H    0.025086
   138  H    0.039145
   139  H    0.037757
   140  H    0.035970
   141  H    0.033565
   142  H    0.014037
   143  H    0.012089
   144  H    0.024748
   145  H    0.012125
   146  H    0.005103
   147  H    0.005878
   148  H    0.003486
   149  H    0.010760
   150  H    0.017630
   151  H    0.030321
   152  H    0.045915
   153  H    0.007840
   154  H    0.048270
   155  H    0.040220
   156  H    0.043960
   157  H    0.048641
   158  H    0.052972
 Sum of Mulliken charges =  -0.00000

 Dipole moment (field-independent basis, Debye):
    X=             -4.6469    Y=             -3.0781    Z=             -6.6698  Tot=              8.6923
 Quadrupole moment (field-independent basis, Debye-Ang):
   XX=           -516.8280   YY=           -556.7501   ZZ=           -447.7345
   XY=             -5.7898   XZ=             18.1343   YZ=            -41.8081

 Normal termination of Gaussian 16 at Fri Sep 10 22:31:46 2021.
