 Gaussian 16, Revision A.03,
 Gaussian 16:  ES64L-G16RevA.03 25-Dec-2016

 -----------------------------------
 #p cam-b3lyp/Def2SVP td=(nstates=5)
 -----------------------------------

 --------------------------------
 TDDFT excited states in gaussian
 --------------------------------
 Symbolic Z-matrix:
 Charge =  0 Multiplicity = 1

                         Standard orientation:
 ---------------------------------------------------------------------
 Center     Atomic      Atomic             Coordinates (Angstroms)
 Number     Number       Type             X           Y           Z
 ---------------------------------------------------------------------
      1         12           0        4.823258    1.012459    0.516019
      2          6           0        5.449068   -2.159087   -1.020818
      3          6           0        5.776242    2.457931   -2.424303
      4          6           0        4.715233    3.819898    1.986815
      5          6           0        5.021947   -0.606630    3.595749
      6          7           0        5.503221    0.152429   -1.407167
      7          6           0        5.642111   -1.079861   -1.886063
      8          6           0        5.938643   -1.118701   -3.415094
      9          6           0        6.567026    0.336526   -3.586691
     10          6           0        5.882141    1.035322   -2.425425
     11          6           0        8.075492    0.378839   -3.364788
     12          6           0        4.636834   -1.284941   -4.269137
     13          6           0        4.861786   -1.657627   -5.737421
     14          1           0        3.912473   -2.548738   -6.387092
     15          7           0        4.717524    2.842064   -0.221691
     16          6           0        5.138303    3.248100   -1.443725
     17          6           0        4.841170    4.694820   -1.517177
     18          6           0        4.387687    5.135238   -0.168667
     19          6           0        4.616634    3.940238    0.602654
     20          6           0        4.949477    5.494007   -2.779444
     21          6           0        3.845439    6.431180    0.345756
     22          8           0        3.731881    6.672515    1.596131
     23          6           0        3.529286    7.457932   -0.663635
     24          7           0        5.079744    1.582997    2.507586
     25          6           0        4.922228    2.856035    2.886464
     26          6           0        4.874084    2.979067    4.380614
     27          6           0        4.787845    1.487616    4.944432
     28          6           0        4.889517    0.721710    3.602299
     29          6           0        6.061159    3.702726    5.031139
     30          6           0        3.606430    1.161350    5.892181
     31          6           0        2.303214    1.221304    5.127242
     32          7           0        4.994954   -1.040909    1.198107
     33          6           0        5.083849   -1.483679    2.525784
     34          6           0        5.294563   -2.942346    2.481516
     35          6           0        5.330410   -3.246377    1.122058
     36          6           0        5.179574   -2.049588    0.364935
     37          6           0        5.482908   -3.791699    3.607375
     38          6           0        5.485707   -4.300531    0.132867
     39          8           0        5.553007   -5.529700    0.178778
     40          6           0        5.690748   -3.622905   -1.293530
     41          6           0        4.774250   -4.318221   -2.263002
     42          8           0        3.535050   -4.212824   -2.159850
     43          8           0        5.493658   -4.797138   -3.289468
     44          6           0        4.640575   -5.473516   -4.302837
     45          1           0        6.276147    3.025044   -3.211970
     46          1           0        4.571955    4.752461    2.536575
     47          1           0        5.008664   -1.190930    4.517633
     48          1           0        6.662726   -1.875030   -3.718565
     49          1           0        6.276022    0.796721   -4.530757
     50          1           0        8.451156   -0.576252   -2.997910
     51          1           0        8.238886    1.162014   -2.624225
     52          1           0        8.590739    0.707911   -4.267567
     53          1           0        4.162996   -0.311484   -4.395310
     54          1           0        3.965361   -2.012202   -3.811379
     55          1           0        5.883666   -1.996255   -5.910629
     56          1           0        4.771120   -0.752082   -6.337395
     57          1           0        5.464315    4.938438   -3.562279
     58          1           0        5.606967    6.336849   -2.567236
     59          1           0        3.980042    5.860104   -3.117826
     60          1           0        4.429999    7.694857   -1.230319
     61          1           0        3.069819    8.282653   -0.119966
     62          1           0        2.817717    7.043244   -1.378235
     63          1           0        3.991933    3.532928    4.699162
     64          1           0        5.673165    1.216062    5.519879
     65          1           0        5.771747    4.562239    5.636270
     66          1           0        6.751533    3.995658    4.240655
     67          1           0        6.697075    3.071562    5.651348
     68          1           0        3.544607    1.901096    6.689615
     69          1           0        3.686289    0.178567    6.356951
     70          1           0        2.060251    2.283165    5.143133
     71          1           0        1.535865    0.637556    5.636775
     72          1           0        2.440040    0.933911    4.084567
     73          1           0        4.879641   -4.680584    3.423202
     74          1           0        5.186116   -3.296008    4.531393
     75          1           0        6.557668   -3.964184    3.552645
     76          1           0        6.740061   -3.755075   -1.555434
     77          1           0        5.030815   -6.483570   -4.428289
     78          1           0        4.625858   -4.824384   -5.178517
     79          1           0        3.613336   -5.685404   -4.004136
     80         12           0       -5.676613   -0.015155   -0.253168
     81          6           0       -2.933657   -2.182796    0.557125
     82          6           0       -3.414923    2.531476   -0.437685
     83          6           0       -8.114350    1.997724   -0.523723
     84          6           0       -7.800149   -2.427543    1.094666
     85          7           0       -3.485226    0.041828    0.041497
     86          6           0       -2.541882   -0.855268    0.285783
     87          6           0       -1.092178   -0.315423    0.157396
     88          6           0       -1.391437    1.241060    0.415596
     89          6           0       -2.843948    1.291836   -0.053769
     90          6           0       -1.350620    1.626055    1.885110
     91          6           0       -0.489420   -0.555166   -1.271314
     92          6           0        1.021155   -0.334498   -1.377312
     93          1           0        1.788588   -1.192685   -2.275671
     94          7           0       -5.732283    1.851583   -0.924563
     95          6           0       -4.716071    2.739369   -0.945734
     96          6           0       -5.273684    3.975624   -1.515723
     97          6           0       -6.742382    3.797248   -1.676460
     98          6           0       -6.927056    2.521665   -1.013992
     99          6           0       -4.419862    5.140991   -1.923549
    100          6           0       -7.806725    4.641781   -2.309019
    101          8           0       -9.052730    4.404717   -2.124343
    102          6           0       -7.347882    5.809978   -3.074710
    103          7           0       -7.647111   -0.090486    0.405483
    104          6           0       -8.513644    0.893584    0.107761
    105          6           0       -9.930021    0.494199    0.446548
    106          6           0       -9.862248   -1.061517    0.810862
    107          6           0       -8.337372   -1.280901    0.701280
    108          6           0      -10.579018    1.258923    1.599970
    109          6           0      -10.804243   -2.010978    0.021025
    110          6           0      -10.378516   -2.072074   -1.428253
    111          7           0       -5.464398   -2.030879    0.495063
    112          6           0       -6.478444   -2.850801    1.036839
    113          6           0       -5.828755   -4.088733    1.514175
    114          6           0       -4.467808   -3.891866    1.235667
    115          6           0       -4.279800   -2.612586    0.646090
    116          6           0       -6.483273   -5.177165    2.156849
    117          6           0       -3.146125   -4.470997    1.316065
    118          8           0       -2.697137   -5.568686    1.643518
    119          6           0       -2.077819   -3.338455    0.995997
    120          6           0       -1.092217   -3.896069    0.005955
    121          8           0       -1.454225   -4.197216   -1.145070
    122          8           0        0.150704   -3.778496    0.507630
    123          6           0        1.164613   -4.307974   -0.442877
    124          1           0       -2.826796    3.438952   -0.298151
    125          1           0       -9.004546    2.607865   -0.693285
    126          1           0       -8.406155   -3.268790    1.437806
    127          1           0       -0.400437   -0.689656    0.902529
    128          1           0       -0.766219    1.872601   -0.210188
    129          1           0       -1.243287    0.762770    2.524926
    130          1           0       -2.287653    2.129762    2.083377
    131          1           0       -0.566623    2.368743    2.058574
    132          1           0       -0.842563    0.235162   -1.946157
    133          1           0       -0.737492   -1.535197   -1.629956
    134          1           0        1.500381   -0.283353   -0.392088
    135          1           0        1.198031    0.651887   -1.812930
    136          1           0       -3.399118    5.048113   -1.532569
    137          1           0       -4.824284    6.025530   -1.419673
    138          1           0       -4.429504    5.313242   -3.001938
    139          1           0       -6.766554    6.461157   -2.426265
    140          1           0       -8.246897    6.236453   -3.523899
    141          1           0       -6.670670    5.466499   -3.864654
    142          1           0      -10.583895    0.627169   -0.406599
    143          1           0      -10.131614   -1.246150    1.861190
    144          1           0      -11.524435    1.758207    1.315397
    145          1           0       -9.865724    1.980758    1.975072
    146          1           0      -10.793153    0.663790    2.486062
    147          1           0      -11.825819   -1.623065    0.028325
    148          1           0      -10.839201   -3.017809    0.423601
    149          1           0      -10.849506   -1.184602   -1.861431
    150          1           0      -10.745837   -2.982595   -1.897359
    151          1           0       -9.293461   -1.949926   -1.525186
    152          1           0       -6.081252   -6.082707    1.722243
    153          1           0       -7.562766   -5.121076    2.033040
    154          1           0       -6.179320   -5.003464    3.192563
    155          1           0       -1.600940   -3.062497    1.937281
    156          1           0        1.743523   -5.064331    0.096074
    157          1           0        1.714877   -3.423764   -0.815898
    158          1           0        0.806263   -4.880255   -1.290542
 ---------------------------------------------------------------------

 SCF Done:  E(RCAM-B3LYP) =  -4069.81721022     A.U. after   19 cycles

 Excitation energies and oscillator strengths:

 Excited State   1:      Singlet-A      1.6500 eV  751.44 nm  f=0.0045  <S**2>=0.000
     309 -> 315        0.12417
     310 -> 316       -0.11202
     311 -> 313        0.50703
     312 -> 314       -0.46439
 This state for optimization and/or second-order correction.
 Total Energy, E(TD-HF/TD-DFT) =  -4069.75657524
 Copying the excited state density for this state as the 1-particle RhoCI density.

 Excited State   2:      Singlet-A      1.6974 eV  730.43 nm  f=0.7010  <S**2>=0.000
     309 -> 315        0.12173
     310 -> 316        0.13138
     311 -> 313        0.46222
     312 -> 314        0.50481

 Excited State   3:      Singlet-A      2.1812 eV  568.42 nm  f=0.1106  <S**2>=0.000
     310 -> 314        0.64079
     312 -> 316       -0.26937

 Excited State   4:      Singlet-A      2.1930 eV  565.36 nm  f=0.0924  <S**2>=0.000
     309 -> 313        0.63854
     311 -> 315       -0.27651

 Excited State   5:      Singlet-A      2.2960 eV  540.01 nm  f=0.0000  <S**2>=0.000
     312 -> 313        0.70623

 The electronic state is 1-A.
 Alpha  occ. eigenvalues --  -46.88279 -46.87293 -19.27112 -19.24524 -19.20166
 Alpha  occ. eigenvalues --  -19.19274 -19.18708 -19.18425 -19.17855 -19.17506
 Alpha  occ. eigenvalues --  -14.42881 -14.42128 -14.41899 -14.40991 -14.39866
 Alpha  occ. eigenvalues --  -14.39044 -14.38990 -14.38217 -10.40113 -10.37798
 Alpha  occ. eigenvalues --  -10.35905 -10.35111 -10.34938 -10.33645 -10.32214
 Alpha  occ. eigenvalues --  -10.31844 -10.31391 -10.31021 -10.30961 -10.30898
 Alpha  occ. eigenvalues --  -10.30630 -10.30609 -10.30353 -10.30076 -10.30026
 Alpha  occ. eigenvalues --  -10.29962 -10.29829 -10.29689 -10.29532 -10.29196
 Alpha  occ. eigenvalues --  -10.29105 -10.29035 -10.28900 -10.28879 -10.28857
 Alpha  occ. eigenvalues --  -10.28526 -10.28240 -10.28236 -10.28154 -10.28126
 Alpha  occ. eigenvalues --  -10.28039 -10.27990 -10.27902 -10.27897 -10.27869
 Alpha  occ. eigenvalues --  -10.27828 -10.27789 -10.27726 -10.27622 -10.27310
 Alpha  occ. eigenvalues --  -10.27246 -10.27216 -10.27195 -10.27109 -10.27095
 Alpha  occ. eigenvalues --  -10.27038 -10.26866 -10.26594 -10.26526 -10.26435
 Alpha  occ. eigenvalues --  -10.26278 -10.26204 -10.26160 -10.26120 -10.25900
 Alpha  occ. eigenvalues --  -10.25764 -10.25637 -10.25586 -10.25522 -10.25294
 Alpha  occ. eigenvalues --  -10.25238 -10.25151 -10.25083 -10.24500 -10.24468
 Alpha  occ. eigenvalues --  -10.24321  -3.16991  -3.16044  -1.91875  -1.91459
 Alpha  occ. eigenvalues --   -1.91302  -1.90926  -1.90515  -1.90351  -1.17500
 Alpha  occ. eigenvalues --   -1.14972  -1.09197  -1.08053  -1.07730  -1.07676
 Alpha  occ. eigenvalues --   -1.06684  -1.05583  -1.05027  -1.04203  -1.04105
 Alpha  occ. eigenvalues --   -1.03686  -1.03292  -1.02859  -1.02676  -1.01737
 Alpha  occ. eigenvalues --   -0.92490  -0.91484  -0.89946  -0.89612  -0.89139
 Alpha  occ. eigenvalues --   -0.88718  -0.88695  -0.88262  -0.88106  -0.87896
 Alpha  occ. eigenvalues --   -0.87719  -0.87426  -0.87297  -0.86810  -0.85422
 Alpha  occ. eigenvalues --   -0.84562  -0.84359  -0.83514  -0.83408  -0.83112
 Alpha  occ. eigenvalues --   -0.82644  -0.82178  -0.82106  -0.81072  -0.80732
 Alpha  occ. eigenvalues --   -0.79497  -0.79230  -0.78290  -0.77632  -0.77384
 Alpha  occ. eigenvalues --   -0.76760  -0.76380  -0.76277  -0.75310  -0.75072
 Alpha  occ. eigenvalues --   -0.74151  -0.73197  -0.72323  -0.72109  -0.71094
 Alpha  occ. eigenvalues --   -0.70299  -0.69448  -0.69312  -0.68382  -0.68103
 Alpha  occ. eigenvalues --   -0.67664  -0.67146  -0.66798  -0.65747  -0.65350
 Alpha  occ. eigenvalues --   -0.65083  -0.64793  -0.64695  -0.64367  -0.63998
 Alpha  occ. eigenvalues --   -0.63675  -0.62889  -0.61023  -0.60882  -0.60233
 Alpha  occ. eigenvalues --   -0.60009  -0.59451  -0.59380  -0.58998  -0.58548
 Alpha  occ. eigenvalues --   -0.58235  -0.57925  -0.57770  -0.56974  -0.56792
 Alpha  occ. eigenvalues --   -0.56549  -0.56529  -0.56007  -0.55879  -0.55823
 Alpha  occ. eigenvalues --   -0.55239  -0.55137  -0.54851  -0.54440  -0.54329
 Alpha  occ. eigenvalues --   -0.53744  -0.53737  -0.53584  -0.53515  -0.53443
 Alpha  occ. eigenvalues --   -0.53208  -0.52845  -0.52716  -0.52668  -0.52335
 Alpha  occ. eigenvalues --   -0.52270  -0.52207  -0.52064  -0.51778  -0.51640
 Alpha  occ. eigenvalues --   -0.51481  -0.51122  -0.51008  -0.50564  -0.50421
 Alpha  occ. eigenvalues --   -0.50347  -0.50201  -0.49979  -0.49710  -0.49639
 Alpha  occ. eigenvalues --   -0.49537  -0.49516  -0.49107  -0.49101  -0.48938
 Alpha  occ. eigenvalues --   -0.48877  -0.48701  -0.48639  -0.48152  -0.48070
 Alpha  occ. eigenvalues --   -0.47893  -0.47804  -0.47743  -0.47235  -0.47094
 Alpha  occ. eigenvalues --   -0.47032  -0.46836  -0.46652  -0.46528  -0.46309
 Alpha  occ. eigenvalues --   -0.46245  -0.46079  -0.45882  -0.45615  -0.45480
 Alpha  occ. eigenvalues --   -0.45097  -0.44977  -0.44925  -0.44808  -0.44593
 Alpha  occ. eigenvalues --   -0.44514  -0.44474  -0.44114  -0.44014  -0.43901
 Alpha  occ. eigenvalues --   -0.43815  -0.43721  -0.43654  -0.43504  -0.43447
 Alpha  occ. eigenvalues --   -0.43256  -0.43074  -0.42978  -0.42458  -0.42412
 Alpha  occ. eigenvalues --   -0.42367  -0.42240  -0.42158  -0.41955  -0.41589
 Alpha  occ. eigenvalues --   -0.41564  -0.41297  -0.41271  -0.41151  -0.41029
 Alpha  occ. eigenvalues --   -0.40994  -0.40963  -0.40710  -0.40544  -0.40400
 Alpha  occ. eigenvalues --   -0.40259  -0.40024  -0.39833  -0.39803  -0.39143
 Alpha  occ. eigenvalues --   -0.38863  -0.38199  -0.38010  -0.37795  -0.37729
 Alpha  occ. eigenvalues --   -0.37497  -0.37125  -0.36907  -0.36752  -0.36640
 Alpha  occ. eigenvalues --   -0.36035  -0.35120  -0.34743  -0.34612  -0.33860
 Alpha  occ. eigenvalues --   -0.33657  -0.32950  -0.32524  -0.31803  -0.31503
 Alpha  occ. eigenvalues --   -0.30980  -0.30564  -0.30542  -0.29907  -0.29769
 Alpha  occ. eigenvalues --   -0.29378  -0.28978  -0.28814  -0.24546  -0.23636
 Alpha  occ. eigenvalues --   -0.21567  -0.20754
 Alpha virt. eigenvalues --   -0.09228  -0.08416  -0.02202  -0.01328  -0.00524
 Alpha virt. eigenvalues --    0.00315   0.01715   0.02252   0.02652   0.03570
 Alpha virt. eigenvalues --    0.03936   0.04285   0.05207   0.05715   0.06325

 Mulliken charges:
               1
     1  Mg   0.823847
     2  C   -0.003927
     3  C   -0.092960
     4  C   -0.046293
     5  C   -0.061996
     6  N   -0.254840
     7  C   -0.055459
     8  C   -0.013242
     9  C   -0.087399
    10  C    0.047013
    11  C    0.104511
    12  C    0.043723
    13  C   -0.072607
    14  H    0.039178
    15  N   -0.432870
    16  C    0.167715
    17  C   -0.177435
    18  C   -0.004748
    19  C    0.148263
    20  C    0.110142
    21  C    0.010766
    22  O   -0.249197
    23  C    0.063009
    24  N   -0.338826
    25  C    0.041761
    26  C   -0.028192
    27  C   -0.024339
    28  C    0.073153
    29  C    0.075851
    30  C    0.035033
    31  C   -0.005628
    32  N   -0.310630
    33  C    0.080212
    34  C   -0.167663
    35  C    0.009135
    36  C    0.081892
    37  C    0.127152
    38  C    0.044529
    39  O   -0.187219
    40  C   -0.008550
    41  C    0.224385
    42  O   -0.259197
    43  O   -0.301653
    44  C    0.154853
    45  H   -0.017170
    46  H   -0.016402
    47  H   -0.040050
    48  H    0.000892
    49  H   -0.003221
    50  H    0.025832
    51  H    0.017103
    52  H    0.017761
    53  H    0.013351
    54  H    0.048194
    55  H    0.018573
    56  H    0.019110
    57  H    0.006713
    58  H    0.027803
    59  H    0.038906
    60  H    0.038610
    61  H    0.036120
    62  H    0.029674
    63  H    0.016243
    64  H    0.010669
    65  H    0.023902
    66  H    0.012878
    67  H    0.005758
    68  H    0.007492
    69  H    0.006524
    70  H    0.008332
    71  H    0.020100
    72  H    0.026992
    73  H    0.049919
    74  H    0.010672
    75  H    0.046646
    76  H    0.037589
    77  H    0.046671
    78  H    0.049244
    79  H    0.055927
    80  Mg   0.836504
    81  C   -0.015504
    82  C   -0.088326
    83  C   -0.046323
    84  C   -0.066239
    85  N   -0.254086
    86  C   -0.049774
    87  C   -0.018057
    88  C   -0.091005
    89  C    0.045080
    90  C    0.112093
    91  C    0.075614
    92  C   -0.115465
    93  H    0.060561
    94  N   -0.423283
    95  C    0.162163
    96  C   -0.175232
    97  C   -0.008766
    98  C    0.151872
    99  C    0.099700
   100  C    0.014913
   101  O   -0.254159
   102  C    0.061522
   103  N   -0.350345
   104  C    0.037189
   105  C   -0.019494
   106  C   -0.034785
   107  C    0.089428
   108  C    0.073986
   109  C    0.034949
   110  C   -0.007524
   111  N   -0.324232
   112  C    0.079036
   113  C   -0.163964
   114  C    0.002926
   115  C    0.095530
   116  C    0.131576
   117  C    0.041232
   118  O   -0.185962
   119  C    0.003550
   120  C    0.211194
   121  O   -0.255724
   122  O   -0.310019
   123  C    0.148902
   124  H   -0.019972
   125  H   -0.016679
   126  H   -0.041302
   127  H    0.001671
   128  H   -0.005171
   129  H    0.022607
   130  H    0.013733
   131  H    0.018498
   132  H    0.008666
   133  H    0.040873
   134  H    0.031430
   135  H    0.021603
   136  H    0.007811
   137  H    0.025403
   138  H    0.037780
   139  H    0.037805
   140  H    0.035366
   141  H    0.033027
   142  H    0.013695
   143  H    0.011843
   144  H    0.024317
   145  H    0.011510
   146  H    0.004993
   147  H    0.005528
   148  H    0.003341
   149  H    0.010519
   150  H    0.017332
   151  H    0.030625
   152  H    0.046229
   153  H    0.007656
   154  H    0.046347
   155  H    0.033040
   156  H    0.041007
   157  H    0.064706
   158  H    0.044300
 Sum of Mulliken charges =  -0.00000

 Dipole moment (field-independent basis, Debye):
    X=              4.8386    Y=              6.6862    Z=             -2.3363  Tot=              8.5776
 Quadrupole moment (field-independent basis, Debye-Ang):
   XX=           -489.1222   YY=           -551.7527   ZZ=           -470.8151
   XY=             24.9251   XZ=            -30.9561   YZ=            -10.6137

 Normal termination of Gaussian 16 at Fri Sep 10 19:02:21 2021.
