 Gaussian 16, Revision A.03,
 Gaussian 16:  ES64L-G16RevA.03 25-Dec-2016

 -----------------------------------
 #p cam-b3lyp/Def2SVP td=(nstates=5)
 -----------------------------------

 --------------------------------
 TDDFT excited states in gaussian
 --------------------------------
 Symbolic Z-matrix:
 Charge =  0 Multiplicity = 1

                         Standard orientation:
 ---------------------------------------------------------------------
 Center     Atomic      Atomic             Coordinates (Angstroms)
 Number     Number       Type             X           Y           Z
 ---------------------------------------------------------------------
      1         12           0       15.653332    0.645349    0.277399
      2          6           0       15.937853   -2.574433   -1.260217
      3          6           0       16.586261    1.992282   -2.715673
      4          6           0       15.850499    3.458343    1.728197
      5          6           0       15.858644   -0.971147    3.358056
      6          7           0       16.168098   -0.277455   -1.667876
      7          6           0       16.180382   -1.519168   -2.142396
      8          6           0       16.400934   -1.589628   -3.683099
      9          6           0       17.140765   -0.193386   -3.895599
     10          6           0       16.571994    0.565820   -2.709838
     11          6           0       18.656152   -0.277535   -3.743860
     12          6           0       15.051334   -1.649185   -4.474783
     13          6           0       15.175401   -2.045989   -5.948726
     14          1           0       14.125245   -2.856669   -6.546486
     15          7           0       15.667515    2.474083   -0.469851
     16          6           0       16.063471    2.837776   -1.713326
     17          6           0       15.885939    4.304071   -1.785035
     18          6           0       15.534507    4.787122   -0.420758
     19          6           0       15.697896    3.580474    0.349102
     20          6           0       16.002052    5.085700   -3.057561
     21          6           0       15.127745    6.126452    0.107323
     22          8           0       15.093344    6.382015    1.359553
     23          6           0       14.852299    7.171763   -0.894923
     24          7           0       16.049523    1.200978    2.250201
     25          6           0       16.017460    2.484423    2.625332
     26          6           0       16.049596    2.617661    4.119037
     27          6           0       15.864650    1.141305    4.698625
     28          6           0       15.838829    0.363646    3.359652
     29          6           0       17.322370    3.241429    4.708079
     30          6           0       14.705494    0.920073    5.702534
     31          6           0       13.377670    1.086411    4.998039
     32          7           0       15.683394   -1.412159    0.967907
     33          6           0       15.796590   -1.854997    2.293711
     34          6           0       15.881607   -3.326423    2.251913
     35          6           0       15.828296   -3.638381    0.894826
     36          6           0       15.743469   -2.436479    0.135531
     37          6           0       16.050188   -4.183671    3.374918
     38          6           0       15.848081   -4.706228   -0.091668
     39          8           0       15.813854   -5.936477   -0.038681
     40          6           0       16.042601   -4.054611   -1.531593
     41          6           0       15.026652   -4.674375   -2.451946
     42          8           0       13.806870   -4.464333   -2.292634
     43          8           0       15.654564   -5.216806   -3.506477
     44          6           0       14.701280   -5.823245   -4.473760
     45          1           0       17.094786    2.511713   -3.530249
     46          1           0       15.811950    4.402083    2.276199
     47          1           0       15.839302   -1.548175    4.284403
     48          1           0       17.043905   -2.405689   -4.013336
     49          1           0       16.845759    0.285560   -4.829036
     50          1           0       18.966881   -1.259293   -3.386762
     51          1           0       18.919195    0.492314   -3.018164
     52          1           0       19.154561    0.002905   -4.672148
     53          1           0       14.655660   -0.639782   -4.587066
     54          1           0       14.343177   -2.315168   -3.980508
     55          1           0       16.155990   -2.470399   -6.166054
     56          1           0       15.133308   -1.138676   -6.551396
     57          1           0       16.431264    4.485225   -3.858656
     58          1           0       16.737268    5.870982   -2.882923
     59          1           0       15.052107    5.530801   -3.353908
     60          1           0       15.742322    7.329339   -1.504496
     61          1           0       14.489675    8.034701   -0.337525
     62          1           0       14.075818    6.815454   -1.572470
     63          1           0       15.232968    3.245383    4.473310
     64          1           0       16.749881    0.798552    5.234870
     65          1           0       17.134807    4.124956    5.318739
     66          1           0       17.997296    3.471575    3.884186
     67          1           0       17.931203    2.561595    5.303532
     68          1           0       14.743365    1.665903    6.495786
     69          1           0       14.724028   -0.063887    6.171289
     70          1           0       13.225863    2.165046    5.016281
     71          1           0       12.588564    0.571747    5.547260
     72          1           0       13.441049    0.783907    3.952591
     73          1           0       15.366380   -5.019284    3.226166
     74          1           0       15.839563   -3.660638    4.307482
     75          1           0       17.102910   -4.446472    3.272116
     76          1           0       17.063718   -4.276006   -1.840503
     77          1           0       14.998926   -6.863168   -4.608665
     78          1           0       14.700360   -5.179050   -5.353201
     79          1           0       13.674921   -5.946378   -4.126248
     80         12           0      -16.074416    0.223557   -0.522649
     81          6           0      -14.697354   -1.349306    2.394352
     82          6           0      -15.380159    3.221321    0.949095
     83          6           0      -17.682350    1.633977   -2.866290
     84          6           0      -17.665562   -2.795519   -1.229167
     85          7           0      -15.155729    0.739627    1.422077
     86          6           0      -14.615054    0.058508    2.421129
     87          6           0      -13.877803    0.932673    3.470823
     88          6           0      -14.650123    2.317346    3.215729
     89          6           0      -15.061626    2.103215    1.760568
     90          6           0      -15.910503    2.466305    4.051540
     91          6           0      -12.344247    1.065833    3.166741
     92          6           0      -11.509488    1.644144    4.311517
     93          1           0      -10.153760    1.138593    4.508727
     94          7           0      -16.049526    2.108108   -1.144262
     95          6           0      -15.720558    3.199151   -0.421294
     96          6           0      -15.881401    4.346244   -1.328201
     97          6           0      -16.490222    3.860017   -2.596128
     98          6           0      -16.790041    2.488782   -2.235706
     99          6           0      -15.400326    5.726750   -0.987322
    100          6           0      -16.769538    4.523443   -3.910668
    101          8           0      -17.521995    3.978351   -4.793573
    102          6           0      -16.212316    5.871236   -4.096309
    103          7           0      -17.637180   -0.408275   -1.739567
    104          6           0      -18.116471    0.382494   -2.715726
    105          6           0      -19.041687   -0.382039   -3.632156
    106          6           0      -18.893969   -1.917084   -3.208608
    107          6           0      -17.934264   -1.757404   -2.009086
    108          6           0      -20.515023    0.021259   -3.577315
    109          6           0      -18.514891   -2.923142   -4.329677
    110          6           0      -17.105798   -2.656229   -4.807814
    111          7           0      -16.038744   -1.779831    0.285577
    112          6           0      -16.802976   -2.886749   -0.144262
    113          6           0      -16.517991   -3.999607    0.784588
    114          6           0      -15.618198   -3.451797    1.711284
    115          6           0      -15.376205   -2.087655    1.394974
    116          6           0      -17.101522   -5.296868    0.732448
    117          6           0      -14.826296   -3.714334    2.891391
    118          8           0      -14.564415   -4.715545    3.556761
    119          6           0      -14.292714   -2.329413    3.460312
    120          6           0      -12.824862   -2.481490    3.751517
    121          8           0      -12.014028   -2.674204    2.828469
    122          8           0      -12.595069   -2.159315    5.037503
    123          6           0      -11.151208   -2.284015    5.371488
    124          1           0      -15.414242    4.206963    1.414098
    125          1           0      -18.180123    2.040184   -3.749868
    126          1           0      -18.046507   -3.797299   -1.438895
    127          1           0      -14.010374    0.616870    4.498676
    128          1           0      -13.977007    3.166507    3.300625
    129          1           0      -16.143341    1.562107    4.594083
    130          1           0      -16.701495    2.701862    3.351618
    131          1           0      -15.824404    3.333775    4.712151
    132          1           0      -12.195553    1.848550    2.411765
    133          1           0      -11.933402    0.123602    2.860099
    134          1           0      -12.059321    1.649941    5.260516
    135          1           0      -11.321114    2.700386    4.104444
    136          1           0      -15.145445    5.812732    0.076185
    137          1           0      -16.251690    6.403438   -1.118164
    138          1           0      -14.582818    6.058777   -1.630832
    139          1           0      -16.592752    6.529519   -3.318887
    140          1           0      -16.442105    6.142847   -5.128440
    141          1           0      -15.125824    5.822009   -3.963148
    142          1           0      -18.739258   -0.272186   -4.666364
    143          1           0      -19.834722   -2.321217   -2.806743
    144          1           0      -20.920948    0.326241   -4.560314
    145          1           0      -20.623462    0.820756   -2.856497
    146          1           0      -21.187403   -0.738510   -3.182536
    147          1           0      -19.167320   -2.788429   -5.195902
    148          1           0      -18.595557   -3.960970   -4.024058
    149          1           0      -17.239721   -1.845388   -5.530086
    150          1           0      -16.687878   -3.542046   -5.281856
    151          1           0      -16.480010   -2.272485   -3.993706
    152          1           0      -16.301693   -6.005129    0.903183
    153          1           0      -17.593131   -5.473626   -0.221939
    154          1           0      -17.817458   -5.221901    1.555294
    155          1           0      -14.866924   -2.101430    4.359137
    156          1           0      -11.078826   -2.960538    6.228661
    157          1           0      -10.787169   -1.249205    5.514359
    158          1           0      -10.511947   -2.783711    4.653097
 ---------------------------------------------------------------------

 SCF Done:  E(RCAM-B3LYP) =  -4069.81175459     A.U. after   19 cycles

 Excitation energies and oscillator strengths:

 Excited State   1:      Singlet-A      1.6753 eV  740.06 nm  f=0.2107  <S**2>=0.000
     310 -> 316        0.16842
     311 -> 313        0.66590
     312 -> 314       -0.16506
     310 <- 316        0.10153
 This state for optimization and/or second-order correction.
 Total Energy, E(TD-HF/TD-DFT) =  -4069.75018769
 Copying the excited state density for this state as the 1-particle RhoCI density.

 Excited State   2:      Singlet-A      1.6801 eV  737.95 nm  f=0.5667  <S**2>=0.000
     309 -> 315        0.17042
     311 -> 313        0.16501
     312 -> 314        0.66553
     309 <- 315        0.10203

 Excited State   3:      Singlet-A      2.1861 eV  567.16 nm  f=0.0978  <S**2>=0.000
     310 -> 313        0.64220
     311 -> 316       -0.27297

 Excited State   4:      Singlet-A      2.1925 eV  565.50 nm  f=0.1028  <S**2>=0.000
     309 -> 314        0.64043
     312 -> 315       -0.27814

 Excited State   5:      Singlet-A      3.0625 eV  404.84 nm  f=0.0000  <S**2>=0.000
     312 -> 313        0.70711

 The electronic state is 1-A.
 Alpha  occ. eigenvalues --  -46.87773 -46.87660 -19.26337 -19.26251 -19.19150
 Alpha  occ. eigenvalues --  -19.18988 -19.18795 -19.18715 -19.18143 -19.18047
 Alpha  occ. eigenvalues --  -14.42496 -14.42426 -14.41426 -14.41359 -14.39379
 Alpha  occ. eigenvalues --  -14.39351 -14.38599 -14.38562 -10.39080 -10.39048
 Alpha  occ. eigenvalues --  -10.35429 -10.35393 -10.34362 -10.34224 -10.31740
 Alpha  occ. eigenvalues --  -10.31643 -10.31380 -10.31307 -10.31021 -10.30884
 Alpha  occ. eigenvalues --  -10.30545 -10.30484 -10.30397 -10.30360 -10.30185
 Alpha  occ. eigenvalues --  -10.30142 -10.29897 -10.29895 -10.29607 -10.29437
 Alpha  occ. eigenvalues --  -10.29400 -10.29231 -10.28722 -10.28714 -10.28643
 Alpha  occ. eigenvalues --  -10.28506 -10.28404 -10.28340 -10.28137 -10.28090
 Alpha  occ. eigenvalues --  -10.28000 -10.27769 -10.27703 -10.27668 -10.27561
 Alpha  occ. eigenvalues --  -10.27520 -10.27482 -10.27481 -10.27468 -10.27465
 Alpha  occ. eigenvalues --  -10.27459 -10.27430 -10.27379 -10.27378 -10.27130
 Alpha  occ. eigenvalues --  -10.27045 -10.26684 -10.26675 -10.26417 -10.26393
 Alpha  occ. eigenvalues --  -10.26209 -10.26164 -10.26140 -10.26024 -10.25996
 Alpha  occ. eigenvalues --  -10.25934 -10.25850 -10.25818 -10.25417 -10.25402
 Alpha  occ. eigenvalues --  -10.24871 -10.24808 -10.24765 -10.24732 -10.24690
 Alpha  occ. eigenvalues --  -10.24667  -3.16515  -3.16410  -1.91397  -1.91292
 Alpha  occ. eigenvalues --   -1.90984  -1.90880  -1.90826  -1.90717  -1.16632
 Alpha  occ. eigenvalues --   -1.16600  -1.08654  -1.08600  -1.07196  -1.06968
 Alpha  occ. eigenvalues --   -1.06935  -1.06610  -1.04556  -1.04494  -1.03737
 Alpha  occ. eigenvalues --   -1.03663  -1.03210  -1.03038  -1.02387  -1.02111
 Alpha  occ. eigenvalues --   -0.91985  -0.91947  -0.89497  -0.89495  -0.89161
 Alpha  occ. eigenvalues --   -0.89148  -0.88265  -0.88221  -0.87846  -0.87793
 Alpha  occ. eigenvalues --   -0.87682  -0.87648  -0.87252  -0.87121  -0.84996
 Alpha  occ. eigenvalues --   -0.84956  -0.83915  -0.83877  -0.82947  -0.82933
 Alpha  occ. eigenvalues --   -0.82650  -0.82623  -0.81590  -0.81558  -0.80571
 Alpha  occ. eigenvalues --   -0.80439  -0.78774  -0.78635  -0.77194  -0.77143
 Alpha  occ. eigenvalues --   -0.76908  -0.76895  -0.75897  -0.75835  -0.74876
 Alpha  occ. eigenvalues --   -0.74803  -0.72750  -0.72698  -0.71648  -0.71580
 Alpha  occ. eigenvalues --   -0.69886  -0.69759  -0.68848  -0.68824  -0.67617
 Alpha  occ. eigenvalues --   -0.67600  -0.67196  -0.67194  -0.65268  -0.65260
 Alpha  occ. eigenvalues --   -0.64828  -0.64768  -0.64650  -0.64595  -0.64247
 Alpha  occ. eigenvalues --   -0.64204  -0.62272  -0.62269  -0.60420  -0.60340
 Alpha  occ. eigenvalues --   -0.59794  -0.59779  -0.58992  -0.58963  -0.58479
 Alpha  occ. eigenvalues --   -0.58424  -0.57557  -0.57549  -0.57285  -0.57236
 Alpha  occ. eigenvalues --   -0.56285  -0.56203  -0.55949  -0.55879  -0.55497
 Alpha  occ. eigenvalues --   -0.55449  -0.55315  -0.55246  -0.54497  -0.54484
 Alpha  occ. eigenvalues --   -0.53909  -0.53868  -0.53275  -0.53227  -0.53197
 Alpha  occ. eigenvalues --   -0.53139  -0.52898  -0.52888  -0.52733  -0.52668
 Alpha  occ. eigenvalues --   -0.52417  -0.52402  -0.51890  -0.51884  -0.51655
 Alpha  occ. eigenvalues --   -0.51591  -0.51199  -0.51171  -0.50552  -0.50476
 Alpha  occ. eigenvalues --   -0.50010  -0.49979  -0.49896  -0.49868  -0.49490
 Alpha  occ. eigenvalues --   -0.49486  -0.49200  -0.49190  -0.49101  -0.49070
 Alpha  occ. eigenvalues --   -0.48567  -0.48555  -0.48440  -0.48421  -0.48376
 Alpha  occ. eigenvalues --   -0.48338  -0.47670  -0.47593  -0.47273  -0.47118
 Alpha  occ. eigenvalues --   -0.46773  -0.46708  -0.46550  -0.46529  -0.46335
 Alpha  occ. eigenvalues --   -0.46269  -0.46138  -0.46084  -0.45818  -0.45795
 Alpha  occ. eigenvalues --   -0.45210  -0.45180  -0.44552  -0.44511  -0.44484
 Alpha  occ. eigenvalues --   -0.44474  -0.44125  -0.44121  -0.44077  -0.44063
 Alpha  occ. eigenvalues --   -0.43994  -0.43937  -0.43547  -0.43467  -0.43383
 Alpha  occ. eigenvalues --   -0.43361  -0.43002  -0.42925  -0.42897  -0.42672
 Alpha  occ. eigenvalues --   -0.42629  -0.42554  -0.41985  -0.41963  -0.41679
 Alpha  occ. eigenvalues --   -0.41667  -0.41508  -0.41456  -0.41117  -0.40988
 Alpha  occ. eigenvalues --   -0.40844  -0.40801  -0.40721  -0.40696  -0.40549
 Alpha  occ. eigenvalues --   -0.40493  -0.40221  -0.40206  -0.39427  -0.39420
 Alpha  occ. eigenvalues --   -0.38447  -0.38351  -0.37720  -0.37648  -0.37298
 Alpha  occ. eigenvalues --   -0.37266  -0.37237  -0.37196  -0.36763  -0.36684
 Alpha  occ. eigenvalues --   -0.36215  -0.36166  -0.34262  -0.34252  -0.33853
 Alpha  occ. eigenvalues --   -0.33740  -0.33174  -0.33162  -0.31325  -0.31274
 Alpha  occ. eigenvalues --   -0.31011  -0.30972  -0.30002  -0.29952  -0.29426
 Alpha  occ. eigenvalues --   -0.29327  -0.29297  -0.29210  -0.24056  -0.24035
 Alpha  occ. eigenvalues --   -0.21116  -0.21104
 Alpha virt. eigenvalues --   -0.08791  -0.08750  -0.01726  -0.01684  -0.00035
 Alpha virt. eigenvalues --   -0.00028   0.02209   0.02225   0.03148   0.03231
 Alpha virt. eigenvalues --    0.04732   0.04743   0.05129   0.05174   0.06191

 Mulliken charges:
               1
     1  Mg   0.838781
     2  C   -0.002939
     3  C   -0.094096
     4  C   -0.045921
     5  C   -0.063986
     6  N   -0.256777
     7  C   -0.052460
     8  C   -0.014002
     9  C   -0.087021
    10  C    0.046331
    11  C    0.104821
    12  C    0.053469
    13  C   -0.071851
    14  H    0.036251
    15  N   -0.433147
    16  C    0.168410
    17  C   -0.177161
    18  C   -0.004031
    19  C    0.148728
    20  C    0.110185
    21  C    0.012262
    22  O   -0.249691
    23  C    0.062482
    24  N   -0.341166
    25  C    0.041264
    26  C   -0.028158
    27  C   -0.023991
    28  C    0.074868
    29  C    0.076194
    30  C    0.035153
    31  C   -0.004503
    32  N   -0.310470
    33  C    0.080430
    34  C   -0.169697
    35  C    0.008372
    36  C    0.083017
    37  C    0.127304
    38  C    0.046159
    39  O   -0.188367
    40  C   -0.005347
    41  C    0.212882
    42  O   -0.257041
    43  O   -0.304818
    44  C    0.157654
    45  H   -0.017617
    46  H   -0.016896
    47  H   -0.041498
    48  H    0.000949
    49  H   -0.004017
    50  H    0.025472
    51  H    0.016416
    52  H    0.016650
    53  H    0.011212
    54  H    0.044168
    55  H    0.017853
    56  H    0.017947
    57  H    0.005886
    58  H    0.026777
    59  H    0.039544
    60  H    0.037336
    61  H    0.035574
    62  H    0.031518
    63  H    0.016510
    64  H    0.009441
    65  H    0.023149
    66  H    0.012540
    67  H    0.004729
    68  H    0.006302
    69  H    0.004741
    70  H    0.008731
    71  H    0.018154
    72  H    0.029032
    73  H    0.047631
    74  H    0.009101
    75  H    0.045997
    76  H    0.035143
    77  H    0.042973
    78  H    0.046407
    79  H    0.053770
    80  Mg   0.837908
    81  C   -0.016830
    82  C   -0.087782
    83  C   -0.045532
    84  C   -0.064904
    85  N   -0.254573
    86  C   -0.049819
    87  C   -0.015096
    88  C   -0.090498
    89  C    0.045753
    90  C    0.114381
    91  C    0.062525
    92  C   -0.077962
    93  H    0.035076
    94  N   -0.423493
    95  C    0.162927
    96  C   -0.174630
    97  C   -0.007806
    98  C    0.152119
    99  C    0.099370
   100  C    0.015555
   101  O   -0.253212
   102  C    0.061199
   103  N   -0.350066
   104  C    0.037504
   105  C   -0.019826
   106  C   -0.034811
   107  C    0.088922
   108  C    0.073673
   109  C    0.034735
   110  C   -0.007678
   111  N   -0.324119
   112  C    0.078465
   113  C   -0.163129
   114  C    0.002276
   115  C    0.096208
   116  C    0.131479
   117  C    0.042400
   118  O   -0.187788
   119  C    0.000917
   120  C    0.211268
   121  O   -0.250950
   122  O   -0.305657
   123  C    0.151983
   124  H   -0.019661
   125  H   -0.015593
   126  H   -0.040460
   127  H   -0.000630
   128  H   -0.004292
   129  H    0.022454
   130  H    0.014388
   131  H    0.016290
   132  H    0.013921
   133  H    0.037730
   134  H    0.020771
   135  H    0.019594
   136  H    0.008780
   137  H    0.026118
   138  H    0.039807
   139  H    0.038242
   140  H    0.036372
   141  H    0.033915
   142  H    0.014397
   143  H    0.012396
   144  H    0.025122
   145  H    0.011622
   146  H    0.005651
   147  H    0.006241
   148  H    0.003661
   149  H    0.010916
   150  H    0.017964
   151  H    0.030131
   152  H    0.046071
   153  H    0.008509
   154  H    0.046919
   155  H    0.035016
   156  H    0.043962
   157  H    0.049513
   158  H    0.053681
 Sum of Mulliken charges =  -0.00000

 Dipole moment (field-independent basis, Debye):
    X=              1.4425    Y=              7.3424    Z=             -1.7058  Tot=              7.6747
 Quadrupole moment (field-independent basis, Debye-Ang):
   XX=           -425.6041   YY=           -535.3521   ZZ=           -470.7529
   XY=              1.2914   XZ=            -57.3627   YZ=             18.2919

 Normal termination of Gaussian 16 at Sun Sep 12 14:11:14 2021.
