 Gaussian 16, Revision A.03,
 Gaussian 16:  ES64L-G16RevA.03 25-Dec-2016

 -----------------------------------
 #p cam-b3lyp/Def2SVP td=(nstates=5)
 -----------------------------------

 --------------------------------
 TDDFT excited states in gaussian
 --------------------------------
 Symbolic Z-matrix:
 Charge =  0 Multiplicity = 1

                         Standard orientation:
 ---------------------------------------------------------------------
 Center     Atomic      Atomic             Coordinates (Angstroms)
 Number     Number       Type             X           Y           Z
 ---------------------------------------------------------------------
      1         12           0       -4.442744   -0.593590    0.165464
      2          6           0       -4.490390    2.978584    0.387981
      3          6           0       -5.369784   -0.253902   -3.100768
      4          6           0       -4.848913   -3.737146    0.066939
      5          6           0       -4.637774   -0.665559    3.644321
      6          7           0       -4.846187    1.188943   -1.083718
      7          6           0       -4.770678    2.502633   -0.894810
      8          6           0       -4.943025    3.326273   -2.206027
      9          6           0       -5.758854    2.260921   -3.067099
     10          6           0       -5.270281    0.986017   -2.402389
     11          6           0       -7.270160    2.360767   -2.886855
     12          6           0       -3.570466    3.673210   -2.874942
     13          6           0       -3.628879    4.742610   -3.969623
     14          1           0       -2.515597    5.670110   -4.102646
     15          7           0       -4.545321   -1.824467   -1.376375
     16          6           0       -4.927080   -1.511998   -2.638084
     17          6           0       -4.835730   -2.767351   -3.414244
     18          6           0       -4.552520   -3.873751   -2.458333
     19          6           0       -4.665020   -3.184495   -1.198314
     20          6           0       -4.962471   -2.823659   -4.905725
     21          6           0       -4.241775   -5.324604   -2.649634
     22          8           0       -4.258112   -6.157347   -1.679662
     23          6           0       -4.001239   -5.767831   -4.034818
     24          7           0       -4.927044   -2.009169    1.621220
     25          6           0       -4.982510   -3.312323    1.325082
     26          6           0       -5.064730   -4.151197    2.565836
     27          6           0       -4.808134   -3.157470    3.789119
     28          6           0       -4.697990   -1.831411    2.996841
     29          6           0       -6.388701   -4.896796    2.783079
     30          6           0       -3.666618   -3.528316    4.768830
     31          6           0       -2.331779   -3.419201    4.066408
     32          7           0       -4.369010    0.867206    1.769111
     33          6           0       -4.492870    0.617428    3.143499
     34          6           0       -4.488396    1.926222    3.822546
     35          6           0       -4.378201    2.853224    2.787960
     36          6           0       -4.344103    2.168168    1.539830
     37          6           0       -4.636974    2.139824    5.221379
     38          6           0       -4.306134    4.264259    2.444970
     39          8           0       -4.199798    5.308907    3.089095
     40          6           0       -4.498596    4.407717    0.870738
     41          6           0       -3.421772    5.327563    0.363153
     42          8           0       -2.221744    4.986543    0.394864
     43          8           0       -3.986045    6.353694   -0.291975
     44          6           0       -2.971221    7.288835   -0.846772
     45          1           0       -5.885302   -0.277906   -4.062852
     46          1           0       -4.882444   -4.828435    0.086964
     47          1           0       -4.610071   -0.613258    4.734252
     48          1           0       -5.526386    4.240501   -2.095116
     49          1           0       -5.466824    2.276809   -4.116951
     50          1           0       -7.531491    3.063979   -2.096210
     51          1           0       -7.599223    1.354786   -2.625679
     52          1           0       -7.758061    2.599645   -3.832195
     53          1           0       -3.232944    2.821486   -3.465455
     54          1           0       -2.837933    3.967228   -2.122430
     55          1           0       -4.575761    5.282882   -3.948903
     56          1           0       -3.624201    4.241217   -4.937499
     57          1           0       -5.332159   -1.883030   -5.312041
     58          1           0       -5.748035   -3.544498   -5.131530
     59          1           0       -4.032901   -3.130682   -5.385274
     60          1           0       -4.881535   -5.550620   -4.640168
     61          1           0       -3.706832   -6.814640   -3.968749
     62          1           0       -3.185991   -5.179688   -4.457202
     63          1           0       -4.297492   -4.924353    2.566702
     64          1           0       -5.686037   -3.060369    4.428284
     65          1           0       -6.271707   -5.975836    2.886466
     66          1           0       -7.052666   -4.653066    1.954202
     67          1           0       -6.972295   -4.552793    3.636599
     68          1           0       -3.771473   -4.561013    5.099717
     69          1           0       -3.639417   -2.896671    5.656825
     70          1           0       -2.245421   -4.378514    3.557397
     71          1           0       -1.529088   -3.289124    4.793030
     72          1           0       -2.347383   -2.643958    3.300092
     73          1           0       -3.900421    2.895380    5.494498
     74          1           0       -4.484467    1.217358    5.781202
     75          1           0       -5.668744    2.488385    5.263955
     76          1           0       -5.495491    4.818105    0.712927
     77          1           0       -3.202124    8.280643   -0.457882
     78          1           0       -2.984053    7.153874   -1.928449
     79          1           0       -1.949552    7.159754   -0.487788
     80         12           0        4.550689   -0.969976   -0.021286
     81          6           0        4.499774    2.611556    0.200298
     82          6           0        3.621689   -0.632102   -3.285853
     83          6           0        4.148479   -4.115457   -0.129009
     84          6           0        4.349232   -1.049389    3.457049
     85          7           0        4.144636    0.811820   -1.267311
     86          6           0        4.217304    2.122704   -1.092247
     87          6           0        4.052723    2.955277   -2.391977
     88          6           0        3.229653    1.884526   -3.260838
     89          6           0        3.717070    0.600747   -2.592249
     90          6           0        1.725408    1.981943   -3.068241
     91          6           0        5.430258    3.299664   -3.059667
     92          6           0        5.365098    4.365885   -4.155423
     93          1           0        6.484294    5.294072   -4.290846
     94          7           0        4.451643   -2.199530   -1.575942
     95          6           0        4.076332   -1.890800   -2.834952
     96          6           0        4.152969   -3.146791   -3.597040
     97          6           0        4.445357   -4.254614   -2.647329
     98          6           0        4.336866   -3.553892   -1.383483
     99          6           0        4.035044   -3.199604   -5.092609
    100          6           0        4.756832   -5.707438   -2.843506
    101          8           0        4.742254   -6.537093   -1.866628
    102          6           0        4.987751   -6.147388   -4.227201
    103          7           0        4.074362   -2.381017    1.429376
    104          6           0        4.013403   -3.689777    1.127123
    105          6           0        3.928264   -4.534620    2.375875
    106          6           0        4.189529   -3.530300    3.592700
    107          6           0        4.296733   -2.204396    2.807920
    108          6           0        2.604098   -5.265946    2.595270
    109          6           0        5.331860   -3.900508    4.577939
    110          6           0        6.668501   -3.803091    3.878449
    111          7           0        4.628411    0.484165    1.574800
    112          6           0        4.497892    0.238843    2.959308
    113          6           0        4.502505    1.551815    3.636442
    114          6           0        4.613120    2.478345    2.588683
    115          6           0        4.652870    1.792212    1.344843
    116          6           0        4.364176    1.766087    5.036824
    117          6           0        4.694595    3.881295    2.251352
    118          8           0        4.793472    4.925177    2.894989
    119          6           0        4.497474    4.035919    0.681758
    120          6           0        5.573925    4.951434    0.166394
    121          8           0        6.768973    4.610229    0.211666
    122          8           0        5.002566    5.978125   -0.489216
    123          6           0        6.030294    6.908022   -1.028555
    124          1           0        3.112755   -0.646921   -4.250038
    125          1           0        4.114988   -5.207055   -0.101275
    126          1           0        4.388933   -0.993599    4.546997
    127          1           0        3.475223    3.864910   -2.278686
    128          1           0        3.530233    1.908437   -4.305080
    129          1           0        1.463666    2.679290   -2.286358
    130          1           0        1.396575    0.983693   -2.810535
    131          1           0        1.238731    2.223934   -4.017408
    132          1           0        5.765048    2.439726   -3.653944
    133          1           0        6.151539    3.586118   -2.319177
    134          1           0        4.413221    4.910638   -4.144396
    135          1           0        5.376626    3.866082   -5.127061
    136          1           0        3.658274   -2.253336   -5.500067
    137          1           0        3.250373   -3.927404   -5.325986
    138          1           0        4.962385   -3.512031   -5.577476
    139          1           0        4.109295   -5.924879   -4.828256
    140          1           0        5.283153   -7.195912   -4.155021
    141          1           0        5.813116   -5.561848   -4.647357
    142          1           0        4.696412   -5.298189    2.379309
    143          1           0        3.307144   -3.440016    4.243148
    144          1           0        2.722158   -6.361225    2.697737
    145          1           0        1.943373   -5.030107    1.771645
    146          1           0        2.028564   -4.930737    3.456431
    147          1           0        5.227958   -4.937778    4.905707
    148          1           0        5.351360   -3.281680    5.468817
    149          1           0        6.749258   -4.766039    3.365324
    150          1           0        7.470840   -3.672823    4.601859
    151          1           0        6.654881   -3.020653    3.110819
    152          1           0        5.093270    2.517143    5.310388
    153          1           0        4.512064    0.844863    5.596508
    154          1           0        3.327511    2.110663    5.079945
    155          1           0        3.499443    4.443176    0.515473
    156          1           0        5.795963    7.903684   -0.639411
    157          1           0        6.004395    6.777486   -2.126753
    158          1           0        7.050341    6.781414   -0.685151
 ---------------------------------------------------------------------

 SCF Done:  E(RCAM-B3LYP) =  -4069.81127011     A.U. after   19 cycles

 Excitation energies and oscillator strengths:

 Excited State   1:      Singlet-A      1.6475 eV  752.56 nm  f=0.0012  <S**2>=0.000
     309 -> 315       -0.11417
     310 -> 316        0.12147
     311 -> 313       -0.46866
     312 -> 314        0.50330
 This state for optimization and/or second-order correction.
 Total Energy, E(TD-HF/TD-DFT) =  -4069.75072603
 Copying the excited state density for this state as the 1-particle RhoCI density.

 Excited State   2:      Singlet-A      1.7046 eV  727.37 nm  f=0.6963  <S**2>=0.000
     309 -> 315        0.13337
     310 -> 316        0.12307
     311 -> 313        0.50064
     312 -> 314        0.46623

 Excited State   3:      Singlet-A      2.1802 eV  568.68 nm  f=0.0137  <S**2>=0.000
     309 -> 313       -0.31684
     310 -> 314        0.56205
     311 -> 315        0.13082
     312 -> 316       -0.23364

 Excited State   4:      Singlet-A      2.1963 eV  564.51 nm  f=0.1601  <S**2>=0.000
     309 -> 313        0.55705
     310 -> 314        0.31215
     311 -> 315       -0.24586
     312 -> 316       -0.13909

 Excited State   5:      Singlet-A      2.3475 eV  528.16 nm  f=0.0000  <S**2>=0.000
     312 -> 313        0.70709

 The electronic state is 1-A.
 Alpha  occ. eigenvalues --  -46.87899 -46.87430 -19.26369 -19.26091 -19.19111
 Alpha  occ. eigenvalues --  -19.18903 -19.18889 -19.18526 -19.18230 -19.17744
 Alpha  occ. eigenvalues --  -14.42563 -14.42267 -14.41551 -14.41132 -14.39503
 Alpha  occ. eigenvalues --  -14.39126 -14.38682 -14.38354 -10.39171 -10.38822
 Alpha  occ. eigenvalues --  -10.35524 -10.35209 -10.34453 -10.33915 -10.31757
 Alpha  occ. eigenvalues --  -10.31546 -10.31517 -10.31062 -10.31030 -10.30796
 Alpha  occ. eigenvalues --  -10.30671 -10.30597 -10.30311 -10.30156 -10.30115
 Alpha  occ. eigenvalues --  -10.30010 -10.29947 -10.29724 -10.29656 -10.29354
 Alpha  occ. eigenvalues --  -10.29226 -10.29169 -10.28910 -10.28789 -10.28519
 Alpha  occ. eigenvalues --  -10.28479 -10.28464 -10.28262 -10.28159 -10.27906
 Alpha  occ. eigenvalues --  -10.27882 -10.27840 -10.27759 -10.27681 -10.27623
 Alpha  occ. eigenvalues --  -10.27602 -10.27536 -10.27507 -10.27455 -10.27351
 Alpha  occ. eigenvalues --  -10.27347 -10.27245 -10.27242 -10.27237 -10.27184
 Alpha  occ. eigenvalues --  -10.26936 -10.26706 -10.26509 -10.26501 -10.26357
 Alpha  occ. eigenvalues --  -10.26305 -10.26288 -10.26121 -10.25995 -10.25899
 Alpha  occ. eigenvalues --  -10.25730 -10.25719 -10.25575 -10.25508 -10.25202
 Alpha  occ. eigenvalues --  -10.24919 -10.24881 -10.24836 -10.24616 -10.24589
 Alpha  occ. eigenvalues --  -10.24456  -3.16642  -3.16180  -1.91523  -1.91110
 Alpha  occ. eigenvalues --   -1.91062  -1.90952  -1.90651  -1.90487  -1.16719
 Alpha  occ. eigenvalues --   -1.16385  -1.08685  -1.08342  -1.07287  -1.06781
 Alpha  occ. eigenvalues --   -1.06730  -1.06685  -1.04693  -1.04259  -1.03863
 Alpha  occ. eigenvalues --   -1.03433  -1.03331  -1.02810  -1.02510  -1.01876
 Alpha  occ. eigenvalues --   -0.92068  -0.91721  -0.89623  -0.89339  -0.89286
 Alpha  occ. eigenvalues --   -0.88921  -0.88387  -0.88021  -0.87954  -0.87794
 Alpha  occ. eigenvalues --   -0.87541  -0.87465  -0.87378  -0.86936  -0.85125
 Alpha  occ. eigenvalues --   -0.84782  -0.84038  -0.83679  -0.83066  -0.82772
 Alpha  occ. eigenvalues --   -0.82764  -0.82440  -0.81682  -0.81358  -0.80699
 Alpha  occ. eigenvalues --   -0.80215  -0.78899  -0.78428  -0.77339  -0.77060
 Alpha  occ. eigenvalues --   -0.76935  -0.76680  -0.76035  -0.75600  -0.74994
 Alpha  occ. eigenvalues --   -0.74592  -0.72873  -0.72468  -0.71775  -0.71346
 Alpha  occ. eigenvalues --   -0.70019  -0.69579  -0.69004  -0.68612  -0.67740
 Alpha  occ. eigenvalues --   -0.67376  -0.67374  -0.67010  -0.65422  -0.65041
 Alpha  occ. eigenvalues --   -0.64955  -0.64733  -0.64544  -0.64428  -0.64372
 Alpha  occ. eigenvalues --   -0.63999  -0.62388  -0.62041  -0.60542  -0.60141
 Alpha  occ. eigenvalues --   -0.59935  -0.59563  -0.59088  -0.58762  -0.58602
 Alpha  occ. eigenvalues --   -0.58190  -0.57671  -0.57404  -0.57269  -0.57012
 Alpha  occ. eigenvalues --   -0.56407  -0.56083  -0.55981  -0.55657  -0.55619
 Alpha  occ. eigenvalues --   -0.55434  -0.55241  -0.55030  -0.54620  -0.54271
 Alpha  occ. eigenvalues --   -0.54045  -0.53690  -0.53398  -0.53343  -0.53020
 Alpha  occ. eigenvalues --   -0.53018  -0.52925  -0.52876  -0.52682  -0.52552
 Alpha  occ. eigenvalues --   -0.52490  -0.52227  -0.51988  -0.51754  -0.51616
 Alpha  occ. eigenvalues --   -0.51452  -0.51295  -0.50963  -0.50687  -0.50321
 Alpha  occ. eigenvalues --   -0.50145  -0.50028  -0.49776  -0.49672  -0.49632
 Alpha  occ. eigenvalues --   -0.49314  -0.49280  -0.49217  -0.48965  -0.48852
 Alpha  occ. eigenvalues --   -0.48691  -0.48551  -0.48530  -0.48321  -0.48172
 Alpha  occ. eigenvalues --   -0.48127  -0.47808  -0.47399  -0.47389  -0.46925
 Alpha  occ. eigenvalues --   -0.46909  -0.46698  -0.46497  -0.46459  -0.46345
 Alpha  occ. eigenvalues --   -0.46253  -0.46062  -0.45911  -0.45852  -0.45571
 Alpha  occ. eigenvalues --   -0.45298  -0.44995  -0.44668  -0.44630  -0.44283
 Alpha  occ. eigenvalues --   -0.44260  -0.44252  -0.44218  -0.44112  -0.43897
 Alpha  occ. eigenvalues --   -0.43881  -0.43715  -0.43587  -0.43507  -0.43324
 Alpha  occ. eigenvalues --   -0.43160  -0.43126  -0.42794  -0.42755  -0.42697
 Alpha  occ. eigenvalues --   -0.42651  -0.42362  -0.42129  -0.41802  -0.41764
 Alpha  occ. eigenvalues --   -0.41676  -0.41411  -0.41251  -0.41248  -0.41008
 Alpha  occ. eigenvalues --   -0.40931  -0.40758  -0.40678  -0.40538  -0.40500
 Alpha  occ. eigenvalues --   -0.40419  -0.40286  -0.40038  -0.39561  -0.39253
 Alpha  occ. eigenvalues --   -0.38583  -0.38154  -0.37922  -0.37461  -0.37427
 Alpha  occ. eigenvalues --   -0.37398  -0.37059  -0.36978  -0.36806  -0.36533
 Alpha  occ. eigenvalues --   -0.36296  -0.35998  -0.34387  -0.34019  -0.33863
 Alpha  occ. eigenvalues --   -0.33606  -0.33286  -0.32944  -0.31420  -0.31137
 Alpha  occ. eigenvalues --   -0.31084  -0.30737  -0.30090  -0.29644  -0.29542
 Alpha  occ. eigenvalues --   -0.29407  -0.29109  -0.28950  -0.24183  -0.23796
 Alpha  occ. eigenvalues --   -0.21230  -0.20887
 Alpha virt. eigenvalues --   -0.08871  -0.08558  -0.01850  -0.01460  -0.00153
 Alpha virt. eigenvalues --    0.00188   0.02121   0.02469   0.02845   0.03499
 Alpha virt. eigenvalues --    0.04580   0.04945   0.05010   0.05434   0.05971

 Mulliken charges:
               1
     1  Mg   0.838643
     2  C   -0.003324
     3  C   -0.095148
     4  C   -0.045364
     5  C   -0.063853
     6  N   -0.256646
     7  C   -0.052911
     8  C   -0.013772
     9  C   -0.086843
    10  C    0.045929
    11  C    0.104792
    12  C    0.053710
    13  C   -0.071303
    14  H    0.034532
    15  N   -0.433175
    16  C    0.168197
    17  C   -0.177786
    18  C   -0.003814
    19  C    0.148858
    20  C    0.110330
    21  C    0.012912
    22  O   -0.248753
    23  C    0.062552
    24  N   -0.341050
    25  C    0.041059
    26  C   -0.028323
    27  C   -0.024009
    28  C    0.074835
    29  C    0.076047
    30  C    0.035125
    31  C   -0.005295
    32  N   -0.310623
    33  C    0.080619
    34  C   -0.169339
    35  C    0.008851
    36  C    0.083156
    37  C    0.127139
    38  C    0.046674
    39  O   -0.187072
    40  C   -0.005607
    41  C    0.213489
    42  O   -0.257612
    43  O   -0.304788
    44  C    0.157170
    45  H   -0.017816
    46  H   -0.016410
    47  H   -0.041312
    48  H    0.001398
    49  H   -0.004845
    50  H    0.025785
    51  H    0.016756
    52  H    0.016629
    53  H    0.009639
    54  H    0.043413
    55  H    0.018994
    56  H    0.017148
    57  H    0.005380
    58  H    0.027178
    59  H    0.038100
    60  H    0.037120
    61  H    0.036484
    62  H    0.030373
    63  H    0.016875
    64  H    0.009764
    65  H    0.023538
    66  H    0.012642
    67  H    0.004873
    68  H    0.006524
    69  H    0.004758
    70  H    0.009453
    71  H    0.016549
    72  H    0.029921
    73  H    0.048513
    74  H    0.008991
    75  H    0.046270
    76  H    0.035334
    77  H    0.043956
    78  H    0.045382
    79  H    0.054491
    80  Mg   0.837737
    81  C   -0.015681
    82  C   -0.088147
    83  C   -0.045412
    84  C   -0.065139
    85  N   -0.254554
    86  C   -0.048229
    87  C   -0.015153
    88  C   -0.091014
    89  C    0.046043
    90  C    0.112911
    91  C    0.062651
    92  C   -0.077187
    93  H    0.034097
    94  N   -0.423369
    95  C    0.162727
    96  C   -0.175710
    97  C   -0.008064
    98  C    0.151710
    99  C    0.099977
   100  C    0.015249
   101  O   -0.253308
   102  C    0.061468
   103  N   -0.350024
   104  C    0.037225
   105  C   -0.019727
   106  C   -0.034639
   107  C    0.089322
   108  C    0.073404
   109  C    0.034827
   110  C   -0.007550
   111  N   -0.324594
   112  C    0.079308
   113  C   -0.162403
   114  C    0.004087
   115  C    0.096024
   116  C    0.130855
   117  C    0.044573
   118  O   -0.186596
   119  C   -0.000340
   120  C    0.210632
   121  O   -0.251945
   122  O   -0.304761
   123  C    0.152338
   124  H   -0.021550
   125  H   -0.015774
   126  H   -0.040942
   127  H    0.000976
   128  H   -0.006037
   129  H    0.030421
   130  H    0.013427
   131  H    0.012676
   132  H    0.013363
   133  H    0.037651
   134  H    0.020398
   135  H    0.018656
   136  H    0.007548
   137  H    0.024161
   138  H    0.039117
   139  H    0.037286
   140  H    0.035961
   141  H    0.033516
   142  H    0.013952
   143  H    0.011522
   144  H    0.024737
   145  H    0.013144
   146  H    0.004774
   147  H    0.005677
   148  H    0.003289
   149  H    0.010791
   150  H    0.017531
   151  H    0.030428
   152  H    0.045734
   153  H    0.007359
   154  H    0.049764
   155  H    0.041397
   156  H    0.043700
   157  H    0.048593
   158  H    0.053075
 Sum of Mulliken charges =  -0.00000

 Dipole moment (field-independent basis, Debye):
    X=             -4.4144    Y=             -1.8796    Z=             -7.2036  Tot=              8.6551
 Quadrupole moment (field-independent basis, Debye-Ang):
   XX=           -518.6950   YY=           -550.7713   ZZ=           -448.7248
   XY=             -6.5291   XZ=             -0.1748   YZ=            -48.0684

 Normal termination of Gaussian 16 at Fri Sep 10 04:41:46 2021.
