 Gaussian 16, Revision A.03,
 Gaussian 16:  ES64L-G16RevA.03 25-Dec-2016

 -----------------------------------
 #p cam-b3lyp/Def2SVP td=(nstates=5)
 -----------------------------------

 --------------------------------
 TDDFT excited states in gaussian
 --------------------------------
 Symbolic Z-matrix:
 Charge =  0 Multiplicity = 1

                         Standard orientation:
 ---------------------------------------------------------------------
 Center     Atomic      Atomic             Coordinates (Angstroms)
 Number     Number       Type             X           Y           Z
 ---------------------------------------------------------------------
      1         12           0        3.934815    1.239135    0.687740
      2          6           0        4.844981   -1.936073   -0.691341
      3          6           0        4.950720    2.640382   -2.252925
      4          6           0        3.567537    4.083165    2.041706
      5          6           0        4.070121   -0.254226    3.833726
      6          7           0        4.771553    0.358986   -1.163166
      7          6           0        5.014903   -0.877470   -1.586401
      8          6           0        5.395567   -0.950249   -3.095431
      9          6           0        5.937662    0.536414   -3.290279
     10          6           0        5.147565    1.228723   -2.193749
     11          6           0        7.426095    0.686104   -2.992516
     12          6           0        4.155198   -1.232037   -4.008563
     13          6           0        4.482666   -1.640324   -5.447806
     14          1           0        3.628998   -2.614480   -6.110842
     15          7           0        3.751979    3.030737   -0.124407
     16          6           0        4.211313    3.420572   -1.337802
     17          6           0        3.826393    4.841018   -1.482208
     18          6           0        3.273331    5.297539   -0.176909
     19          6           0        3.536418    4.148086    0.650690
     20          6           0        3.951311    5.600835   -2.767051
     21          6           0        2.622042    6.572054    0.258482
     22          8           0        2.425785    6.849076    1.491088
     23          6           0        2.295724    7.539613   -0.804715
     24          7           0        4.046097    1.894903    2.666432
     25          6           0        3.786982    3.167252    2.987323
     26          6           0        3.650315    3.339180    4.471137
     27          6           0        3.629565    1.865993    5.086801
     28          6           0        3.852591    1.061866    3.782229
     29          6           0        4.751602    4.162100    5.153764
     30          6           0        2.421993    1.495803    5.984102
     31          6           0        1.160893    1.442607    5.151099
     32          7           0        4.200742   -0.773195    1.456411
     33          6           0        4.245929   -1.162265    2.802984
     34          6           0        4.551867   -2.604466    2.825909
     35          6           0        4.680608   -2.952973    1.482847
     36          6           0        4.494473   -1.796074    0.673384
     37          6           0        4.733149   -3.399486    3.991891
     38          6           0        4.956475   -4.028613    0.544362
     39          8           0        5.099905   -5.248275    0.641024
     40          6           0        5.194459   -3.389380   -0.894586
     41          6           0        4.378225   -4.177342   -1.882607
     42          8           0        3.131054   -4.150532   -1.847768
     43          8           0        5.181328   -4.643376   -2.851307
     44          6           0        4.429443   -5.409802   -3.880586
     45          1           0        5.455077    3.211313   -3.034975
     46          1           0        3.335210    5.022931    2.546980
     47          1           0        4.044513   -0.805420    4.775523
     48          1           0        6.182026   -1.667243   -3.331707
     49          1           0        5.669215    0.942959   -4.265153
     50          1           0        7.841863   -0.228605   -2.570183
     51          1           0        7.498624    1.503866   -2.275231
     52          1           0        7.967235    1.016636   -3.879473
     53          1           0        3.627407   -0.297057   -4.196474
     54          1           0        3.507991   -1.985582   -3.558430
     55          1           0        5.532033   -1.916534   -5.554798
     56          1           0        4.366675   -0.764362   -6.086115
     57          1           0        4.542308    5.053389   -3.500243
     58          1           0        4.540939    6.492220   -2.553788
     59          1           0        2.980109    5.889954   -3.168933
     60          1           0        3.208708    7.815529   -1.332805
     61          1           0        1.755571    8.350726   -0.317702
     62          1           0        1.651910    7.053981   -1.538618
     63          1           0        2.718518    3.844354    4.722093
     64          1           0        4.498065    1.673910    5.717266
     65          1           0        4.375349    5.021304    5.709558
     66          1           0        5.463498    4.472110    4.389311
     67          1           0        5.392225    3.596501    5.829868
     68          1           0        2.269810    2.257366    6.748175
     69          1           0        2.539482    0.537361    6.489905
     70          1           0        0.849810    2.485988    5.113481
     71          1           0        0.406142    0.827652    5.642414
     72          1           0        1.372059    1.128482    4.128738
     73          1           0        4.198990   -4.332217    3.811180
     74          1           0        4.355635   -2.892384    4.879547
     75          1           0        5.818144   -3.502366    3.999460
     76          1           0        6.262715   -3.461008   -1.096628
     77          1           0        4.889886   -6.395630   -3.946687
     78          1           0        4.420492   -4.794187   -4.780221
     79          1           0        3.403266   -5.678517   -3.627424
     80         12           0       -4.867740   -0.245182   -0.394514
     81          6           0       -2.046756   -2.386106    0.186466
     82          6           0       -2.644923    2.271947   -0.992642
     83          6           0       -7.319268    1.767711   -0.469981
     84          6           0       -6.809750   -2.567440    1.332149
     85          7           0       -2.656709   -0.188160   -0.375711
     86          6           0       -1.690853   -1.077685   -0.201855
     87          6           0       -0.267840   -0.555714   -0.536717
     88          6           0       -0.532190    1.014374   -0.327380
     89          6           0       -2.031514    1.050434   -0.616161
     90          6           0       -0.310050    1.476592    1.103124
     91          6           0        0.153786   -0.875283   -2.013917
     92          6           0        1.639813   -0.671279   -2.316995
     93          1           0        2.290041   -1.581397   -3.255803
     94          7           0       -5.004992    1.583598   -1.152994
     95          6           0       -3.998749    2.461776   -1.346828
     96          6           0       -4.621891    3.669929   -1.909167
     97          6           0       -6.099270    3.493687   -1.877833
     98          6           0       -6.201355    2.256443   -1.130247
     99          6           0       -3.824397    4.805906   -2.481001
    100          6           0       -7.233178    4.310953   -2.418706
    101          8           0       -8.446960    4.092872   -2.069411
    102          6           0       -6.871832    5.433529   -3.296613
    103          7           0       -6.741870   -0.271438    0.505098
    104          6           0       -7.638067    0.701540    0.264159
    105          6           0       -9.001953    0.330772    0.795875
    106          6           0       -8.890465   -1.203838    1.231904
    107          6           0       -7.390889   -1.439535    0.947102
    108          6           0       -9.503211    1.160276    1.977847
    109          6           0       -9.923231   -2.187216    0.616251
    110          6           0       -9.679734   -2.328228   -0.869083
    111          7           0       -4.565724   -2.219767    0.428793
    112          6           0       -5.505506   -3.002536    1.134605
    113          6           0       -4.802444   -4.217933    1.593866
    114          6           0       -3.486202   -4.045800    1.139563
    115          6           0       -3.371818   -2.801012    0.463599
    116          6           0       -5.373111   -5.266027    2.369728
    117          6           0       -2.164989   -4.629194    1.087355
    118          8           0       -1.679527   -5.711099    1.415316
    119          6           0       -1.143832   -3.522858    0.577796
    120          6           0       -0.288288   -4.139260   -0.494869
    121          8           0       -0.789785   -4.498555   -1.574695
    122          8           0        1.007134   -4.004014   -0.157270
    123          6           0        1.895655   -4.590421   -1.195767
    124          1           0       -2.043637    3.181370   -0.975512
    125          1           0       -8.223303    2.374284   -0.560977
    126          1           0       -7.369153   -3.384952    1.791968
    127          1           0        0.510438   -0.894724    0.136439
    128          1           0        0.011292    1.607334   -1.058406
    129          1           0       -0.124941    0.647784    1.770166
    130          1           0       -1.215179    1.996748    1.388109
    131          1           0        0.489726    2.221865    1.138573
    132          1           0       -0.279601   -0.119443   -2.681460
    133          1           0       -0.137141   -1.871204   -2.286202
    134          1           0        2.237052   -0.571259   -1.402530
    135          1           0        1.762024    0.289298   -2.823322
    136          1           0       -2.763231    4.726693   -2.214420
    137          1           0       -4.163084    5.718810   -1.979252
    138          1           0       -3.967029    4.920684   -3.557646
    139          1           0       -6.214577    6.114100   -2.760612
    140          1           0       -7.819219    5.841903   -3.653771
    141          1           0       -6.297499    5.043783   -4.144477
    142          1           0       -9.756103    0.422866    0.023945
    143          1           0       -9.028166   -1.330490    2.315808
    144          1           0      -10.476286    1.650426    1.785638
    145          1           0       -8.748706    1.895945    2.222938
    146          1           0       -9.606575    0.614585    2.914195
    147          1           0      -10.935905   -1.792227    0.728630
    148          1           0       -9.908696   -3.170963    1.073437
    149          1           0      -10.200188   -1.461706   -1.287826
    150          1           0      -10.102612   -3.259756   -1.239853
    151          1           0       -8.614902   -2.219099   -1.105448
    152          1           0       -5.028271   -6.196198    1.938031
    153          1           0       -6.459601   -5.208936    2.377105
    154          1           0       -4.943510   -5.039703    3.349263
    155          1           0       -0.554246   -3.200675    1.436960
    156          1           0        2.536327   -5.321159   -0.692538
    157          1           0        2.396080   -3.731199   -1.680615
    158          1           0        1.435106   -5.204369   -1.960889
 ---------------------------------------------------------------------

 SCF Done:  E(RCAM-B3LYP) =  -4069.31779570     A.U. after   27 cycles

 Excitation energies and oscillator strengths:

 Excited State   1:      Singlet-A      0.2370 eV 5231.38 nm  f=0.0056  <S**2>=0.000
     312 -> 313        0.24362
     312 -> 314        0.32813
     312 -> 315       -1.03215
     312 <- 313       -0.16046
     312 <- 314       -0.24106
     312 <- 315        0.81350
 This state for optimization and/or second-order correction.
 Total Energy, E(TD-HF/TD-DFT) =  -4069.30908608
 Copying the excited state density for this state as the 1-particle RhoCI density.

 Excited State   2:      Singlet-A      0.6264 eV 1979.40 nm  f=0.0668  <S**2>=0.000
     312 -> 313        0.33800
     312 -> 314        0.56926
     312 -> 315        0.30522
     312 <- 314       -0.17226
     312 <- 315       -0.12931

 Excited State   3:      Singlet-A      0.8568 eV 1447.02 nm  f=0.0068  <S**2>=0.000
     312 -> 313        0.59465
     312 -> 314       -0.37921

 Excited State   4:      Singlet-A      1.6380 eV  756.92 nm  f=0.0044  <S**2>=0.000
     308 -> 317       -0.10637
     309 -> 316        0.10982
     310 -> 313        0.42264
     310 -> 314        0.25624
     311 -> 313        0.23231
     311 -> 314       -0.41727

 Excited State   5:      Singlet-A      1.6995 eV  729.53 nm  f=0.6015  <S**2>=0.000
     308 -> 317        0.10622
     309 -> 316        0.11868
     310 -> 314       -0.45997
     311 -> 313        0.49247

 The electronic state is 1-A.
 Alpha  occ. eigenvalues --  -46.87546 -46.87386 -19.31985 -19.27015 -19.26688
 Alpha  occ. eigenvalues --  -19.19361 -19.18627 -19.18211 -19.17998 -19.17955
 Alpha  occ. eigenvalues --  -14.42362 -14.42181 -14.41239 -14.40488 -14.39236
 Alpha  occ. eigenvalues --  -14.38847 -14.38496 -14.38404 -10.39123 -10.37030
 Alpha  occ. eigenvalues --  -10.35306 -10.34884 -10.34140 -10.33975 -10.33648
 Alpha  occ. eigenvalues --  -10.32520 -10.31165 -10.31015 -10.30899 -10.30880
 Alpha  occ. eigenvalues --  -10.30293 -10.30237 -10.30030 -10.29872 -10.29790
 Alpha  occ. eigenvalues --  -10.29745 -10.29711 -10.29505 -10.29323 -10.29299
 Alpha  occ. eigenvalues --  -10.29281 -10.29220 -10.28832 -10.28801 -10.28484
 Alpha  occ. eigenvalues --  -10.28292 -10.28238 -10.28128 -10.27925 -10.27895
 Alpha  occ. eigenvalues --  -10.27840 -10.27578 -10.27521 -10.27434 -10.27401
 Alpha  occ. eigenvalues --  -10.27387 -10.27367 -10.27360 -10.27357 -10.27289
 Alpha  occ. eigenvalues --  -10.27146 -10.27078 -10.27067 -10.27019 -10.27015
 Alpha  occ. eigenvalues --  -10.26982 -10.26757 -10.26350 -10.26316 -10.26224
 Alpha  occ. eigenvalues --  -10.26125 -10.26080 -10.25888 -10.25824 -10.25791
 Alpha  occ. eigenvalues --  -10.25772 -10.25415 -10.25308 -10.25255 -10.25026
 Alpha  occ. eigenvalues --  -10.24773 -10.24689 -10.24573 -10.24498 -10.24495
 Alpha  occ. eigenvalues --  -10.23909  -3.16296  -3.16123  -1.91179  -1.91009
 Alpha  occ. eigenvalues --   -1.90767  -1.90604  -1.90586  -1.90432  -1.31593
 Alpha  occ. eigenvalues --   -1.17171  -1.15379  -1.08592  -1.08532  -1.07194
 Alpha  occ. eigenvalues --   -1.06880  -1.06656  -1.04376  -1.04359  -1.03542
 Alpha  occ. eigenvalues --   -1.03181  -1.02929  -1.02777  -1.01999  -1.01925
 Alpha  occ. eigenvalues --   -0.97046  -0.91877  -0.91582  -0.89617  -0.89389
 Alpha  occ. eigenvalues --   -0.89021  -0.88944  -0.88118  -0.87855  -0.87691
 Alpha  occ. eigenvalues --   -0.87574  -0.87504  -0.87363  -0.87020  -0.86712
 Alpha  occ. eigenvalues --   -0.85151  -0.84751  -0.83736  -0.83542  -0.82830
 Alpha  occ. eigenvalues --   -0.82628  -0.82550  -0.82391  -0.81665  -0.80902
 Alpha  occ. eigenvalues --   -0.80468  -0.79382  -0.78516  -0.78336  -0.77289
 Alpha  occ. eigenvalues --   -0.77025  -0.76974  -0.76364  -0.75928  -0.75201
 Alpha  occ. eigenvalues --   -0.74578  -0.74360  -0.72588  -0.72383  -0.71649
 Alpha  occ. eigenvalues --   -0.71408  -0.69837  -0.69764  -0.69519  -0.68945
 Alpha  occ. eigenvalues --   -0.68278  -0.67682  -0.67140  -0.66832  -0.66760
 Alpha  occ. eigenvalues --   -0.65427  -0.64984  -0.64913  -0.64575  -0.64476
 Alpha  occ. eigenvalues --   -0.64164  -0.64033  -0.63829  -0.62796  -0.61126
 Alpha  occ. eigenvalues --   -0.60245  -0.60010  -0.59888  -0.59651  -0.59582
 Alpha  occ. eigenvalues --   -0.58828  -0.58422  -0.58321  -0.57816  -0.57283
 Alpha  occ. eigenvalues --   -0.57091  -0.56934  -0.56300  -0.56067  -0.55900
 Alpha  occ. eigenvalues --   -0.55417  -0.55282  -0.55021  -0.54954  -0.54777
 Alpha  occ. eigenvalues --   -0.54553  -0.53935  -0.53805  -0.53675  -0.53469
 Alpha  occ. eigenvalues --   -0.53120  -0.52896  -0.52837  -0.52748  -0.52460
 Alpha  occ. eigenvalues --   -0.52397  -0.52358  -0.52240  -0.52157  -0.51882
 Alpha  occ. eigenvalues --   -0.51670  -0.51257  -0.51136  -0.51019  -0.50461
 Alpha  occ. eigenvalues --   -0.50364  -0.50213  -0.50126  -0.49808  -0.49727
 Alpha  occ. eigenvalues --   -0.49590  -0.49406  -0.49280  -0.49179  -0.49029
 Alpha  occ. eigenvalues --   -0.48887  -0.48865  -0.48653  -0.48264  -0.48251
 Alpha  occ. eigenvalues --   -0.48018  -0.47902  -0.47852  -0.47616  -0.47200
 Alpha  occ. eigenvalues --   -0.47081  -0.46853  -0.46727  -0.46352  -0.46332
 Alpha  occ. eigenvalues --   -0.46161  -0.46110  -0.46003  -0.45873  -0.45641
 Alpha  occ. eigenvalues --   -0.45560  -0.45293  -0.45112  -0.44874  -0.44815
 Alpha  occ. eigenvalues --   -0.44616  -0.44524  -0.44265  -0.44122  -0.43968
 Alpha  occ. eigenvalues --   -0.43899  -0.43806  -0.43735  -0.43508  -0.43453
 Alpha  occ. eigenvalues --   -0.43245  -0.43068  -0.42945  -0.42831  -0.42504
 Alpha  occ. eigenvalues --   -0.42389  -0.42279  -0.42192  -0.41913  -0.41907
 Alpha  occ. eigenvalues --   -0.41743  -0.41461  -0.41320  -0.41278  -0.41045
 Alpha  occ. eigenvalues --   -0.40977  -0.40901  -0.40605  -0.40567  -0.40406
 Alpha  occ. eigenvalues --   -0.40271  -0.40202  -0.39850  -0.39669  -0.39351
 Alpha  occ. eigenvalues --   -0.39127  -0.39033  -0.38137  -0.38086  -0.37275
 Alpha  occ. eigenvalues --   -0.37201  -0.37113  -0.37005  -0.36886  -0.36234
 Alpha  occ. eigenvalues --   -0.36074  -0.34537  -0.34127  -0.33964  -0.33929
 Alpha  occ. eigenvalues --   -0.33073  -0.32846  -0.31186  -0.30901  -0.30858
 Alpha  occ. eigenvalues --   -0.30717  -0.29979  -0.29860  -0.29224  -0.29139
 Alpha  occ. eigenvalues --   -0.29106  -0.28821  -0.23980  -0.23926  -0.21028
 Alpha  occ. eigenvalues --   -0.20992  -0.15801
 Alpha virt. eigenvalues --   -0.08710  -0.08585  -0.02996  -0.01568  -0.01360
 Alpha virt. eigenvalues --    0.00048   0.00198   0.02158   0.02317   0.03029
 Alpha virt. eigenvalues --    0.03446   0.04342   0.04964   0.05293   0.05487

 Mulliken charges:
               1
     1  Mg   0.778900
     2  C   -0.036919
     3  C   -0.093028
     4  C   -0.057605
     5  C   -0.071317
     6  N   -0.251709
     7  C   -0.073405
     8  C    0.006916
     9  C   -0.083082
    10  C    0.039958
    11  C    0.106296
    12  C    0.025822
    13  C   -0.058376
    14  H    0.032950
    15  N   -0.431911
    16  C    0.159995
    17  C   -0.181954
    18  C   -0.011165
    19  C    0.145776
    20  C    0.111586
    21  C    0.006595
    22  O   -0.253694
    23  C    0.064868
    24  N   -0.339754
    25  C    0.044753
    26  C   -0.026332
    27  C   -0.024658
    28  C    0.078020
    29  C    0.076961
    30  C    0.036327
    31  C   -0.007647
    32  N   -0.306989
    33  C    0.078809
    34  C   -0.177415
    35  C    0.035267
    36  C    0.070039
    37  C    0.128369
    38  C   -0.012064
    39  O   -0.198510
    40  C    0.034573
    41  C    0.090046
    42  O    0.107663
    43  O   -0.287044
    44  C    0.152916
    45  H   -0.020725
    46  H   -0.021456
    47  H   -0.045607
    48  H   -0.003803
    49  H   -0.007434
    50  H    0.024441
    51  H    0.019764
    52  H    0.015159
    53  H    0.026996
    54  H    0.052579
    55  H    0.021325
    56  H    0.022589
    57  H    0.002354
    58  H    0.024483
    59  H    0.033096
    60  H    0.037089
    61  H    0.032761
    62  H    0.025241
    63  H    0.014275
    64  H    0.008782
    65  H    0.021499
    66  H    0.012933
    67  H    0.003230
    68  H    0.005459
    69  H    0.004209
    70  H    0.008175
    71  H    0.016964
    72  H    0.029424
    73  H    0.044956
    74  H    0.008329
    75  H    0.043565
    76  H    0.035041
    77  H    0.054639
    78  H    0.053716
    79  H    0.023347
    80  Mg   0.836952
    81  C   -0.016994
    82  C   -0.088309
    83  C   -0.045784
    84  C   -0.065225
    85  N   -0.255353
    86  C   -0.046414
    87  C   -0.025214
    88  C   -0.098093
    89  C    0.045133
    90  C    0.088081
    91  C    0.099284
    92  C   -0.164342
    93  H    0.037872
    94  N   -0.423718
    95  C    0.162617
    96  C   -0.173829
    97  C   -0.008154
    98  C    0.152362
    99  C    0.099137
   100  C    0.015430
   101  O   -0.253403
   102  C    0.061333
   103  N   -0.350160
   104  C    0.037707
   105  C   -0.019857
   106  C   -0.034712
   107  C    0.088830
   108  C    0.073637
   109  C    0.034860
   110  C   -0.007569
   111  N   -0.323830
   112  C    0.078110
   113  C   -0.163760
   114  C    0.002815
   115  C    0.095306
   116  C    0.131673
   117  C    0.041797
   118  O   -0.186985
   119  C    0.002580
   120  C    0.222467
   121  O   -0.257741
   122  O   -0.270088
   123  C    0.030934
   124  H   -0.015753
   125  H   -0.015832
   126  H   -0.040938
   127  H    0.001929
   128  H    0.004776
   129  H    0.032175
   130  H    0.015080
   131  H    0.044176
   132  H    0.006515
   133  H    0.024321
   134  H    0.063010
   135  H    0.025148
   136  H    0.009019
   137  H    0.027160
   138  H    0.038227
   139  H    0.038662
   140  H    0.036028
   141  H    0.033080
   142  H    0.014030
   143  H    0.012306
   144  H    0.024874
   145  H    0.012115
   146  H    0.005547
   147  H    0.006045
   148  H    0.003439
   149  H    0.010782
   150  H    0.017434
   151  H    0.030021
   152  H    0.045509
   153  H    0.008197
   154  H    0.046913
   155  H    0.038446
   156  H    0.058373
   157  H    0.075236
   158  H    0.048345
 Sum of Mulliken charges =  -0.00000

 Dipole moment (field-independent basis, Debye):
    X=              2.0313    Y=              2.8847    Z=             -4.6802  Tot=              5.8610
 Quadrupole moment (field-independent basis, Debye-Ang):
   XX=           -507.5043   YY=           -552.5078   ZZ=           -472.2562
   XY=             19.1187   XZ=            -36.8748   YZ=             -5.7301

 Normal termination of Gaussian 16 at Fri Sep 10 00:41:53 2021.
