 Gaussian 16, Revision A.03,
 Gaussian 16:  ES64L-G16RevA.03 25-Dec-2016

 -----------------------------------
 #p cam-b3lyp/Def2SVP td=(nstates=5)
 -----------------------------------

 --------------------------------
 TDDFT excited states in gaussian
 --------------------------------
 Symbolic Z-matrix:
 Charge =  0 Multiplicity = 1

                         Standard orientation:
 ---------------------------------------------------------------------
 Center     Atomic      Atomic             Coordinates (Angstroms)
 Number     Number       Type             X           Y           Z
 ---------------------------------------------------------------------
      1         12           0       15.604119   -0.877143    0.272953
      2          6           0       15.864455    2.398556   -1.146286
      3          6           0       16.450185    0.516387    3.270504
      4          6           0       15.825106   -3.812711    1.452030
      5          6           0       15.899606   -2.141238   -2.961303
      6          7           0       16.071827    1.205249    0.860782
      7          6           0       16.077966    2.377433    0.233791
      8          6           0       16.257878    3.590895    1.194267
      9          6           0       16.984523    2.848863    2.403967
     10          6           0       16.443505    1.446391    2.188801
     11          6           0       18.503823    2.814639    2.273361
     12          6           0       14.888052    4.205360    1.638948
     13          6           0       14.974986    5.580621    2.307119
     14          1           0       13.913557    6.545764    2.063777
     15          7           0       15.588925   -1.510768    2.144085
     16          6           0       15.949811   -0.803332    3.241620
     17          6           0       15.762804   -1.712879    4.392461
     18          6           0       15.445226   -3.065613    3.856410
     19          6           0       15.635288   -2.853710    2.444195
     20          6           0       15.841001   -1.262004    5.818766
     21          6           0       15.045667   -4.348781    4.513650
     22          8           0       15.043212   -5.462554    3.885895
     23          6           0       14.738256   -4.281328    5.953786
     24          7           0       16.049677   -2.724568   -0.590837
     25          6           0       16.020908   -3.849362    0.132347
     26          6           0       16.092017   -5.064252   -0.744536
     27          6           0       15.930222   -4.537730   -2.243319
     28          6           0       15.872892   -3.017357   -1.954442
     29          6           0       17.376724   -5.896634   -0.631932
     30          6           0       14.799311   -5.170287   -3.092630
     31          6           0       13.452393   -4.769321   -2.533938
     32          7           0       15.663225   -0.050028   -1.732897
     33          6           0       15.813905   -0.759303   -2.933272
     34          6           0       15.905442    0.237790   -4.015627
     35          6           0       15.817725    1.466248   -3.363676
     36          6           0       15.706501    1.250784   -1.960288
     37          6           0       16.108256   -0.045868   -5.395062
     38          6           0       15.816858    2.911306   -3.523877
     39          8           0       15.790456    3.676803   -4.488661
     40          6           0       15.969663    3.575102   -2.084483
     41          6           0       14.932865    4.659361   -1.971609
     42          8           0       13.716668    4.381099   -1.943300
     43          8           0       15.535359    5.821672   -1.677368
     44          6           0       14.559887    6.933688   -1.522356
     45          1           0       16.934181    0.799727    4.207204
     46          1           0       15.796214   -4.845592    1.805243
     47          1           0       15.907884   -2.463105   -4.004273
     48          1           0       16.896090    4.385718    0.807789
     49          1           0       16.662335    3.235115    3.370779
     50          1           0       18.829036    3.193384    1.304490
     51          1           0       18.782039    1.766515    2.385278
     52          1           0       18.975930    3.340284    3.103775
     53          1           0       14.484284    3.622189    2.466562
     54          1           0       14.196752    4.256627    0.797044
     55          1           0       15.951652    6.039175    2.149762
     56          1           0       14.912174    5.440598    3.386308
     57          1           0       16.251903   -0.256382    5.898947
     58          1           0       16.576498   -1.896187    6.313302
     59          1           0       14.881215   -1.345650    6.328810
     60          1           0       15.610939   -3.909368    6.491019
     61          1           0       14.386079   -5.273760    6.232892
     62          1           0       13.945916   -3.549081    6.111776
     63          1           0       15.281831   -5.756718   -0.519779
     64          1           0       16.831159   -4.703406   -2.834537
     65          1           0       17.200851   -6.939866   -0.368419
     66          1           0       18.028319   -5.413940    0.095889
     67          1           0       18.004692   -5.890769   -1.522459
     68          1           0       14.854357   -6.257447   -3.047904
     69          1           0       14.835413   -4.879296   -4.142522
     70          1           0       13.295510   -5.492372   -1.734302
     71          1           0       12.680845   -4.860048   -3.299244
     72          1           0       13.489552   -3.780480   -2.076445
     73          1           0       15.425098    0.602598   -5.943473
     74          1           0       15.919757   -1.096401   -5.615178
     75          1           0       17.159230    0.221501   -5.503800
     76          1           0       16.983353    3.970479   -2.027638
     77          1           0       14.859255    7.721913   -2.213235
     78          1           0       14.532251    7.175784   -0.459797
     79          1           0       13.543776    6.734812   -1.864857
     80         12           0      -16.147107   -0.514568   -0.204424
     81          6           0      -13.781293    2.180114   -0.060693
     82          6           0      -17.906108    1.097934    2.232873
     83          6           0      -18.002955   -3.078841    0.014272
     84          6           0      -13.672830   -2.420094   -1.751234
     85          7           0      -15.788664    1.387002    0.866927
     86          6           0      -14.889390    2.356702    0.793920
     87          6           0      -15.236421    3.619768    1.626883
     88          6           0      -16.207663    2.935806    2.707500
     89          6           0      -16.697446    1.749447    1.879638
     90          6           0      -15.471409    2.398283    3.923374
     91          6           0      -15.991480    4.704575    0.781251
     92          6           0      -16.087599    6.082040    1.440873
     93          1           0      -16.017582    7.267280    0.590722
     94          7           0      -17.959033   -0.725657    0.577217
     95          6           0      -18.522100    0.031121    1.542365
     96          6           0      -19.855031   -0.544699    1.778792
     97          6           0      -19.968971   -1.802540    0.991652
     98          6           0      -18.610850   -1.931517    0.502800
     99          6           0      -20.898532    0.135837    2.616281
    100          6           0      -21.108111   -2.741623    0.733475
    101          8           0      -20.922317   -3.899221    0.215510
    102          6           0      -22.435128   -2.303825    1.190459
    103          7           0      -15.817212   -2.530815   -0.589494
    104          6           0      -16.808997   -3.429960   -0.463747
    105          6           0      -16.415582   -4.762385   -1.055569
    106          6           0      -15.037808   -4.501035   -1.824340
    107          6           0      -14.817960   -3.018169   -1.452628
    108          6           0      -16.232289   -5.905502   -0.057527
    109          6           0      -14.981058   -4.903513   -3.323494
    110          6           0      -15.894924   -4.011340   -4.132349
    111          7           0      -14.160920   -0.154779   -0.974901
    112          6           0      -13.288728   -1.099098   -1.559392
    113          6           0      -12.010000   -0.407125   -1.821053
    114          6           0      -12.220994    0.895987   -1.345779
    115          6           0      -13.531369    1.002686   -0.806307
    116          6           0      -10.842608   -0.999684   -2.379780
    117          6           0      -11.629528    2.202623   -1.168124
    118          8           0      -10.572948    2.731752   -1.510749
    119          6           0      -12.569776    3.057362   -0.213270
    120          6           0      -12.759796    4.411691   -0.839527
    121          8           0      -13.366444    4.529508   -1.918742
    122          8           0      -12.387992    5.359829    0.039770
    123          6           0      -12.568579    6.721021   -0.531537
    124          1           0      -18.411391    1.403292    3.149565
    125          1           0      -18.639279   -3.965538   -0.034032
    126          1           0      -12.885124   -2.918283   -2.320454
    127          1           0      -14.392351    4.081362    2.125126
    128          1           0      -17.036782    3.590302    2.963543
    129          1           0      -14.399778    2.459835    3.805215
    130          1           0      -15.782391    1.366613    4.023263
    131          1           0      -15.816992    2.906205    4.828320
    132          1           0      -17.056698    4.444168    0.733932
    133          1           0      -15.553937    4.800415   -0.193436
    134          1           0      -15.404193    6.179507    2.293167
    135          1           0      -17.082059    6.187217    1.881340
    136          1           0      -20.471102    0.960764    3.199544
    137          1           0      -21.226072   -0.588495    3.369903
    138          1           0      -21.764779    0.454834    2.032726
    139          1           0      -22.406496   -2.123217    2.262385
    140          1           0      -23.132066   -3.066353    0.837345
    141          1           0      -22.669682   -1.344482    0.715831
    142          1           0      -17.156611   -5.102879   -1.768332
    143          1           0      -14.207012   -5.064284   -1.374489
    144          1           0      -16.872714   -6.781207   -0.274440
    145          1           0      -16.430593   -5.526173    0.936114
    146          1           0      -15.213534   -6.277705    0.036342
    147          1           0      -15.347451   -5.924519   -3.455635
    148          1           0      -13.981833   -4.862985   -3.744072
    149          1           0      -16.874646   -4.481550   -4.005310
    150          1           0      -15.594141   -4.002176   -5.178050
    151          1           0      -15.952063   -3.007368   -3.695965
    152          1           0      -10.452544   -0.296578   -3.103657
    153          1           0      -11.065165   -1.961026   -2.838126
    154          1           0      -10.228582   -1.105573   -1.481431
    155          1           0      -12.078814    3.120952    0.758570
    156          1           0      -11.600955    7.227560   -0.462216
    157          1           0      -13.412785    7.169178    0.025418
    158          1           0      -12.770959    6.796032   -1.593542
 ---------------------------------------------------------------------

 SCF Done:  E(RCAM-B3LYP) =  -4069.81174282     A.U. after   19 cycles

 Excitation energies and oscillator strengths:

 Excited State   1:      Singlet-A      1.6755 eV  739.97 nm  f=0.3502  <S**2>=0.000
     309 -> 316        0.17195
     311 -> 313        0.67954
     309 <- 316        0.10364
 This state for optimization and/or second-order correction.
 Total Energy, E(TD-HF/TD-DFT) =  -4069.75016825
 Copying the excited state density for this state as the 1-particle RhoCI density.

 Excited State   2:      Singlet-A      1.6799 eV  738.03 nm  f=0.4309  <S**2>=0.000
     310 -> 315        0.17388
     312 -> 314        0.67919
     310 <- 315        0.10412

 Excited State   3:      Singlet-A      2.1861 eV  567.14 nm  f=0.0944  <S**2>=0.000
     309 -> 313        0.64200
     311 -> 316       -0.27296

 Excited State   4:      Singlet-A      2.1925 eV  565.50 nm  f=0.1056  <S**2>=0.000
     310 -> 314        0.64025
     312 -> 315       -0.27808

 Excited State   5:      Singlet-A      3.0494 eV  406.58 nm  f=0.0000  <S**2>=0.000
     312 -> 313        0.70709

 The electronic state is 1-A.
 Alpha  occ. eigenvalues --  -46.87742 -46.87659 -19.26343 -19.26224 -19.19155
 Alpha  occ. eigenvalues --  -19.18959 -19.18763 -19.18714 -19.18114 -19.18046
 Alpha  occ. eigenvalues --  -14.42497 -14.42396 -14.41396 -14.41358 -14.39351
 Alpha  occ. eigenvalues --  -14.39349 -14.38598 -14.38532 -10.39085 -10.39019
 Alpha  occ. eigenvalues --  -10.35397 -10.35391 -10.34334 -10.34224 -10.31749
 Alpha  occ. eigenvalues --  -10.31617 -10.31351 -10.31307 -10.31022 -10.30855
 Alpha  occ. eigenvalues --  -10.30515 -10.30453 -10.30396 -10.30359 -10.30154
 Alpha  occ. eigenvalues --  -10.30140 -10.29893 -10.29867 -10.29577 -10.29436
 Alpha  occ. eigenvalues --  -10.29399 -10.29201 -10.28718 -10.28694 -10.28653
 Alpha  occ. eigenvalues --  -10.28480 -10.28403 -10.28310 -10.28141 -10.28063
 Alpha  occ. eigenvalues --  -10.27999 -10.27739 -10.27674 -10.27668 -10.27531
 Alpha  occ. eigenvalues --  -10.27517 -10.27482 -10.27467 -10.27464 -10.27449
 Alpha  occ. eigenvalues --  -10.27430 -10.27398 -10.27375 -10.27349 -10.27102
 Alpha  occ. eigenvalues --  -10.27046 -10.26691 -10.26647 -10.26415 -10.26360
 Alpha  occ. eigenvalues --  -10.26184 -10.26135 -10.26130 -10.26027 -10.25966
 Alpha  occ. eigenvalues --  -10.25933 -10.25844 -10.25789 -10.25399 -10.25387
 Alpha  occ. eigenvalues --  -10.24870 -10.24778 -10.24734 -10.24728 -10.24689
 Alpha  occ. eigenvalues --  -10.24630  -3.16485  -3.16409  -1.91366  -1.91292
 Alpha  occ. eigenvalues --   -1.90953  -1.90880  -1.90795  -1.90717  -1.16637
 Alpha  occ. eigenvalues --   -1.16572  -1.08653  -1.08571  -1.07165  -1.06966
 Alpha  occ. eigenvalues --   -1.06939  -1.06581  -1.04527  -1.04494  -1.03707
 Alpha  occ. eigenvalues --   -1.03662  -1.03180  -1.03037  -1.02357  -1.02110
 Alpha  occ. eigenvalues --   -0.91985  -0.91917  -0.89493  -0.89466  -0.89151
 Alpha  occ. eigenvalues --   -0.89134  -0.88234  -0.88219  -0.87816  -0.87790
 Alpha  occ. eigenvalues --   -0.87683  -0.87619  -0.87221  -0.87119  -0.84999
 Alpha  occ. eigenvalues --   -0.84927  -0.83883  -0.83875  -0.82931  -0.82915
 Alpha  occ. eigenvalues --   -0.82652  -0.82594  -0.81593  -0.81529  -0.80541
 Alpha  occ. eigenvalues --   -0.80440  -0.78744  -0.78634  -0.77164  -0.77143
 Alpha  occ. eigenvalues --   -0.76896  -0.76879  -0.75868  -0.75837  -0.74845
 Alpha  occ. eigenvalues --   -0.74802  -0.72720  -0.72697  -0.71619  -0.71580
 Alpha  occ. eigenvalues --   -0.69853  -0.69756  -0.68826  -0.68819  -0.67600
 Alpha  occ. eigenvalues --   -0.67587  -0.67199  -0.67165  -0.65270  -0.65231
 Alpha  occ. eigenvalues --   -0.64799  -0.64768  -0.64652  -0.64566  -0.64216
 Alpha  occ. eigenvalues --   -0.64202  -0.62275  -0.62240  -0.60389  -0.60339
 Alpha  occ. eigenvalues --   -0.59795  -0.59750  -0.58991  -0.58933  -0.58449
 Alpha  occ. eigenvalues --   -0.58423  -0.57550  -0.57528  -0.57255  -0.57235
 Alpha  occ. eigenvalues --   -0.56256  -0.56202  -0.55921  -0.55883  -0.55467
 Alpha  occ. eigenvalues --   -0.55450  -0.55285  -0.55245  -0.54485  -0.54467
 Alpha  occ. eigenvalues --   -0.53912  -0.53840  -0.53245  -0.53226  -0.53168
 Alpha  occ. eigenvalues --   -0.53140  -0.52900  -0.52859  -0.52703  -0.52668
 Alpha  occ. eigenvalues --   -0.52399  -0.52384  -0.51880  -0.51860  -0.51657
 Alpha  occ. eigenvalues --   -0.51562  -0.51198  -0.51141  -0.50521  -0.50475
 Alpha  occ. eigenvalues --   -0.49979  -0.49979  -0.49866  -0.49866  -0.49487
 Alpha  occ. eigenvalues --   -0.49461  -0.49200  -0.49160  -0.49102  -0.49042
 Alpha  occ. eigenvalues --   -0.48556  -0.48538  -0.48409  -0.48391  -0.48374
 Alpha  occ. eigenvalues --   -0.48337  -0.47641  -0.47593  -0.47244  -0.47117
 Alpha  occ. eigenvalues --   -0.46743  -0.46707  -0.46553  -0.46500  -0.46305
 Alpha  occ. eigenvalues --   -0.46269  -0.46108  -0.46083  -0.45818  -0.45766
 Alpha  occ. eigenvalues --   -0.45208  -0.45149  -0.44522  -0.44511  -0.44475
 Alpha  occ. eigenvalues --   -0.44453  -0.44126  -0.44090  -0.44076  -0.44034
 Alpha  occ. eigenvalues --   -0.43965  -0.43937  -0.43550  -0.43438  -0.43384
 Alpha  occ. eigenvalues --   -0.43332  -0.42973  -0.42927  -0.42898  -0.42642
 Alpha  occ. eigenvalues --   -0.42598  -0.42552  -0.41962  -0.41955  -0.41667
 Alpha  occ. eigenvalues --   -0.41649  -0.41479  -0.41458  -0.41088  -0.40989
 Alpha  occ. eigenvalues --   -0.40815  -0.40771  -0.40722  -0.40698  -0.40518
 Alpha  occ. eigenvalues --   -0.40492  -0.40226  -0.40178  -0.39424  -0.39387
 Alpha  occ. eigenvalues --   -0.38416  -0.38350  -0.37692  -0.37653  -0.37267
 Alpha  occ. eigenvalues --   -0.37265  -0.37208  -0.37198  -0.36766  -0.36655
 Alpha  occ. eigenvalues --   -0.36215  -0.36137  -0.34252  -0.34232  -0.33857
 Alpha  occ. eigenvalues --   -0.33710  -0.33174  -0.33132  -0.31293  -0.31273
 Alpha  occ. eigenvalues --   -0.30981  -0.30972  -0.29973  -0.29950  -0.29395
 Alpha  occ. eigenvalues --   -0.29326  -0.29267  -0.29209  -0.24035  -0.24026
 Alpha  occ. eigenvalues --   -0.21116  -0.21074
 Alpha virt. eigenvalues --   -0.08790  -0.08720  -0.01696  -0.01683  -0.00028
 Alpha virt. eigenvalues --   -0.00005   0.02210   0.02255   0.03182   0.03229
 Alpha virt. eigenvalues --    0.04730   0.04773   0.05158   0.05170   0.06183

 Mulliken charges:
               1
     1  Mg   0.838833
     2  C   -0.002918
     3  C   -0.094115
     4  C   -0.045882
     5  C   -0.063972
     6  N   -0.256786
     7  C   -0.052452
     8  C   -0.014023
     9  C   -0.086995
    10  C    0.046345
    11  C    0.104825
    12  C    0.053456
    13  C   -0.071826
    14  H    0.036247
    15  N   -0.433127
    16  C    0.168419
    17  C   -0.177160
    18  C   -0.004031
    19  C    0.148722
    20  C    0.110191
    21  C    0.012288
    22  O   -0.249663
    23  C    0.062469
    24  N   -0.341154
    25  C    0.041224
    26  C   -0.028169
    27  C   -0.023976
    28  C    0.074870
    29  C    0.076203
    30  C    0.035134
    31  C   -0.004507
    32  N   -0.310489
    33  C    0.080457
    34  C   -0.169691
    35  C    0.008373
    36  C    0.083025
    37  C    0.127297
    38  C    0.046151
    39  O   -0.188401
    40  C   -0.005343
    41  C    0.212874
    42  O   -0.256993
    43  O   -0.304843
    44  C    0.157668
    45  H   -0.017656
    46  H   -0.016879
    47  H   -0.041496
    48  H    0.000914
    49  H   -0.004037
    50  H    0.025450
    51  H    0.016410
    52  H    0.016604
    53  H    0.011242
    54  H    0.044204
    55  H    0.017805
    56  H    0.017927
    57  H    0.005853
    58  H    0.026749
    59  H    0.039568
    60  H    0.037293
    61  H    0.035605
    62  H    0.031555
    63  H    0.016557
    64  H    0.009410
    65  H    0.023163
    66  H    0.012507
    67  H    0.004703
    68  H    0.006314
    69  H    0.004734
    70  H    0.008766
    71  H    0.018218
    72  H    0.029036
    73  H    0.047643
    74  H    0.009116
    75  H    0.045953
    76  H    0.035098
    77  H    0.042927
    78  H    0.046383
    79  H    0.053804
    80  Mg   0.837855
    81  C   -0.016783
    82  C   -0.087797
    83  C   -0.045528
    84  C   -0.064874
    85  N   -0.254576
    86  C   -0.049854
    87  C   -0.015085
    88  C   -0.090490
    89  C    0.045744
    90  C    0.114377
    91  C    0.062510
    92  C   -0.077897
    93  H    0.034948
    94  N   -0.423500
    95  C    0.162915
    96  C   -0.174637
    97  C   -0.007814
    98  C    0.152126
    99  C    0.099360
   100  C    0.015554
   101  O   -0.253195
   102  C    0.061204
   103  N   -0.350044
   104  C    0.037506
   105  C   -0.019828
   106  C   -0.034813
   107  C    0.088886
   108  C    0.073663
   109  C    0.034732
   110  C   -0.007687
   111  N   -0.324134
   112  C    0.078472
   113  C   -0.163088
   114  C    0.002265
   115  C    0.096207
   116  C    0.131476
   117  C    0.042425
   118  O   -0.187730
   119  C    0.000886
   120  C    0.211275
   121  O   -0.250989
   122  O   -0.305642
   123  C    0.152004
   124  H   -0.019689
   125  H   -0.015582
   126  H   -0.040397
   127  H   -0.000648
   128  H   -0.004332
   129  H    0.022457
   130  H    0.014409
   131  H    0.016249
   132  H    0.013918
   133  H    0.037716
   134  H    0.020769
   135  H    0.019575
   136  H    0.008747
   137  H    0.026119
   138  H    0.039800
   139  H    0.038233
   140  H    0.036391
   141  H    0.033907
   142  H    0.014407
   143  H    0.012429
   144  H    0.025135
   145  H    0.011609
   146  H    0.005673
   147  H    0.006268
   148  H    0.003700
   149  H    0.010923
   150  H    0.017984
   151  H    0.030098
   152  H    0.046119
   153  H    0.008553
   154  H    0.046979
   155  H    0.035016
   156  H    0.043969
   157  H    0.049456
   158  H    0.053630
 Sum of Mulliken charges =  -0.00000

 Dipole moment (field-independent basis, Debye):
    X=             -0.6006    Y=              0.4982    Z=              7.7824  Tot=              7.8215
 Quadrupole moment (field-independent basis, Debye-Ang):
   XX=           -383.7761   YY=           -496.7013   ZZ=           -494.6041
   XY=            -29.0543   XZ=              3.8097   YZ=             56.3630

 Normal termination of Gaussian 16 at Sun Sep 12 17:16:57 2021.
