 Gaussian 16, Revision A.03,
 Gaussian 16:  ES64L-G16RevA.03 25-Dec-2016

 -----------------------------------
 #p cam-b3lyp/Def2SVP td=(nstates=5)
 -----------------------------------

 --------------------------------
 TDDFT excited states in gaussian
 --------------------------------
 Symbolic Z-matrix:
 Charge =  0 Multiplicity = 1

                         Standard orientation:
 ---------------------------------------------------------------------
 Center     Atomic      Atomic             Coordinates (Angstroms)
 Number     Number       Type             X           Y           Z
 ---------------------------------------------------------------------
      1         12           0        4.000896   -1.586408    0.540654
      2          6           0        5.016832    1.700108   -0.448739
      3          6           0        4.691840   -0.671020    3.754332
      4          6           0        3.545596   -4.609174    1.384579
      5          6           0        4.477064   -2.569735   -2.768725
      6          7           0        4.751814    0.303509    1.415285
      7          6           0        5.045617    1.507449    0.934265
      8          6           0        5.314073    2.567505    2.044033
      9          6           0        5.737431    1.589118    3.229581
     10          6           0        4.988104    0.342018    2.794637
     11          6           0        7.230623    1.279364    3.260098
     12          6           0        4.029661    3.385916    2.407654
     13          6           0        4.273325    4.649583    3.237790
     14          1           0        3.439727    5.817573    2.996414
     15          7           0        3.635285   -2.380871    2.312096
     16          6           0        3.973122   -1.862724    3.517366
     17          6           0        3.482668   -2.825547    4.526875
     18          6           0        3.001091   -4.035949    3.805000
     19          6           0        3.404073   -3.730512    2.456041
     20          6           0        3.457244   -2.535682    5.996257
     21          6           0        2.299825   -5.276446    4.260552
     22          8           0        2.179836   -6.304507    3.510041
     23          6           0        1.828324   -5.289269    5.657178
     24          7           0        4.218035   -3.394019   -0.480633
     25          6           0        3.898300   -4.556513    0.098472
     26          6           0        3.863902   -5.673633   -0.901926
     27          6           0        3.990359   -4.985650   -2.337350
     28          6           0        4.167305   -3.516646   -1.880200
     29          6           0        4.955595   -6.741879   -0.750045
     30          6           0        2.882743   -5.307924   -3.371636
     31          6           0        1.568289   -4.713344   -2.918003
     32          7           0        4.460845   -0.598394   -1.336397
     33          6           0        4.634999   -1.205769   -2.588371
     34          6           0        5.039093   -0.145779   -3.530283
     35          6           0        5.088348    1.009178   -2.752149
     36          6           0        4.762794    0.686118   -1.403840
     37          6           0        5.362436   -0.330121   -4.903564
     38          6           0        5.364248    2.436629   -2.741108
     39          8           0        5.597189    3.281533   -3.606767
     40          6           0        5.447733    2.919122   -1.225833
     41          6           0        4.613918    4.164897   -1.098923
     42          8           0        3.374113    4.121443   -1.234431
     43          8           0        5.370561    5.158108   -0.607432
     44          6           0        4.596147    6.415338   -0.429071
     45          1           0        5.095076   -0.575355    4.764376
     46          1           0        3.289181   -5.646596    1.609180
     47          1           0        4.560922   -2.786485   -3.835234
     48          1           0        6.127109    3.259674    1.824262
     49          1           0        5.368364    1.935695    4.194670
     50          1           0        7.738606    1.679920    2.382927
     51          1           0        7.301940    0.191662    3.277732
     52          1           0        7.678781    1.624178    4.192318
     53          1           0        3.426753    2.813990    3.112965
     54          1           0        3.471403    3.647580    1.508095
     55          1           0        5.327804    4.927022    3.241243
     56          1           0        4.049701    4.421916    4.280076
     57          1           0        4.026396   -1.638776    6.237441
     58          1           0        3.999484   -3.342255    6.489334
     59          1           0        2.440808   -2.483581    6.386739
     60          1           0        2.677478   -5.142836    6.325044
     61          1           0        1.273044   -6.218666    5.778569
     62          1           0        1.164875   -4.438218    5.813691
     63          1           0        2.921804   -6.217697   -0.848329
     64          1           0        4.915480   -5.262460   -2.843514
     65          1           0        4.565338   -7.752938   -0.631030
     66          1           0        5.584358   -6.463376    0.095167
     67          1           0        5.682898   -6.770682   -1.560981
     68          1           0        2.737913   -6.384956   -3.448922
     69          1           0        3.103351   -4.930453   -4.370184
     70          1           0        1.185058   -5.466209   -2.230137
     71          1           0        0.896774   -4.582471   -3.767209
     72          1           0        1.721675   -3.797740   -2.346489
     73          1           0        4.880669    0.485592   -5.442526
     74          1           0        5.020179   -1.299853   -5.264234
     75          1           0        6.449320   -0.258251   -4.866514
     76          1           0        6.499845    3.107389   -1.014322
     77          1           0        5.116130    7.194450   -0.986599
     78          1           0        4.476752    6.555953    0.645348
     79          1           0        3.612923    6.446745   -0.899839
     80         12           0       -4.747654    0.242542   -0.548121
     81          6           0       -2.285265    2.852546   -0.608393
     82          6           0       -5.835522    1.541854    2.412107
     83          6           0       -6.626073   -2.295759   -0.238307
     84          6           0       -2.777344   -1.479218   -2.850110
     85          7           0       -4.068014    1.976094    0.645682
     86          6           0       -3.163301    2.931301    0.492648
     87          6           0       -3.254067    4.076392    1.536722
     88          6           0       -3.988838    3.269787    2.715010
     89          6           0       -4.707728    2.214279    1.877289
     90          6           0       -3.024431    2.560923    3.651363
     91          6           0       -4.127668    5.277948    1.031625
     92          6           0       -4.007786    6.555446    1.865517
     93          1           0       -4.074618    7.843030    1.179853
     94          7           0       -6.345439   -0.040940    0.594361
     95          6           0       -6.640730    0.588444    1.751066
     96          6           0       -7.912128    0.008861    2.211255
     97          6           0       -8.259456   -1.129373    1.317650
     98          6           0       -7.053627   -1.214490    0.518396
     99          6           0       -8.707303    0.588094    3.345103
    100          6           0       -9.470615   -2.005544    1.209909
    101          8           0       -9.460973   -3.085831    0.520177
    102          6           0      -10.638728   -1.610700    2.010587
    103          7           0       -4.608527   -1.708788   -1.251878
    104          6           0       -5.588086   -2.599617   -1.017782
    105          6           0       -5.401256   -3.846711   -1.848595
    106          6           0       -4.220736   -3.507750   -2.872824
    107          6           0       -3.853049   -2.092432   -2.375758
    108          6           0       -5.052637   -5.116791   -1.072873
    109          6           0       -4.521490   -3.705543   -4.383810
    110          6           0       -5.550501   -2.697088   -4.841556
    111          7           0       -2.970702    0.668888   -1.700826
    112          6           0       -2.297872   -0.202840   -2.584838
    113          6           0       -1.079406    0.496144   -3.042189
    114          6           0       -1.116277    1.726764   -2.369371
    115          6           0       -2.265323    1.782184   -1.535035
    116          6           0       -0.096835   -0.035602   -3.924194
    117          6           0       -0.438860    2.987285   -2.167123
    118          8           0        0.537508    3.539636   -2.672446
    119          6           0       -1.098918    3.721547   -0.921500
    120          6           0       -1.360521    5.150935   -1.310001
    121          8           0       -2.187933    5.423368   -2.197560
    122          8           0       -0.756159    5.965510   -0.425935
    123          6           0       -0.995904    7.394120   -0.762696
    124          1           0       -6.106813    1.729540    3.451361
    125          1           0       -7.298196   -3.156883   -0.252011
    126          1           0       -2.162213   -1.909555   -3.643259
    127          1           0       -2.298744    4.452214    1.882971
    128          1           0       -4.707277    3.897896    3.235304
    129          1           0       -2.005090    2.619529    3.299703
    130          1           0       -3.353472    1.530652    3.687701
    131          1           0       -3.133347    2.948143    4.668482
    132          1           0       -5.187370    5.044505    1.196811
    133          1           0       -3.916356    5.496714    0.002980
    134          1           0       -3.146483    6.525560    2.543902
    135          1           0       -4.871681    6.617303    2.531752
    136          1           0       -8.121169    1.319531    3.915059
    137          1           0       -8.890974   -0.225445    4.055237
    138          1           0       -9.666442    0.997530    3.020940
    139          1           0      -10.361401   -1.576642    3.061490
    140          1           0      -11.432485   -2.306714    1.732401
    141          1           0      -10.928278   -0.592311    1.728350
    142          1           0       -6.298790   -4.075404   -2.410061
    143          1           0       -3.337691   -4.140548   -2.700665
    144          1           0       -5.766145   -5.944249   -1.246959
    145          1           0       -5.004377   -4.871433   -0.020251
    146          1           0       -4.057637   -5.515584   -1.262992
    147          1           0       -4.956105   -4.693044   -4.557349
    148          1           0       -3.641582   -3.625796   -5.013418
    149          1           0       -6.497726   -3.163332   -4.554381
    150          1           0       -5.492343   -2.552295   -5.918452
    151          1           0       -5.460527   -1.760215   -4.279572
    152          1           0        0.153369    0.751843   -4.622647
    153          1           0       -0.461954   -0.922503   -4.437880
    154          1           0        0.697666   -0.271990   -3.211353
    155          1           0       -0.399639    3.645271   -0.087960
    156          1           0       -0.014597    7.870126   -0.852965
    157          1           0       -1.671163    7.777532    0.025205
    158          1           0       -1.428025    7.614948   -1.731696
 ---------------------------------------------------------------------

 SCF Done:  E(RCAM-B3LYP) =  -4069.80794729     A.U. after   19 cycles

 Excitation energies and oscillator strengths:

 Excited State   1:      Singlet-A      1.6438 eV  754.24 nm  f=0.1323  <S**2>=0.000
     309 -> 315       -0.11528
     310 -> 316        0.11917
     311 -> 313       -0.47706
     312 -> 314        0.49373
 This state for optimization and/or second-order correction.
 Total Energy, E(TD-HF/TD-DFT) =  -4069.74753774
 Copying the excited state density for this state as the 1-particle RhoCI density.

 Excited State   2:      Singlet-A      1.7091 eV  725.45 nm  f=0.5981  <S**2>=0.000
     309 -> 315        0.13131
     310 -> 316        0.12580
     311 -> 313        0.49165
     312 -> 314        0.47542

 Excited State   3:      Singlet-A      2.1813 eV  568.39 nm  f=0.0015  <S**2>=0.000
     309 -> 313       -0.42200
     310 -> 314        0.48717
     311 -> 315        0.17578
     312 -> 316       -0.20442

 Excited State   4:      Singlet-A      2.1988 eV  563.86 nm  f=0.1669  <S**2>=0.000
     309 -> 313        0.48175
     310 -> 314        0.41641
     311 -> 315       -0.21556
     312 -> 316       -0.18556

 Excited State   5:      Singlet-A      2.3471 eV  528.25 nm  f=0.0000  <S**2>=0.000
     312 -> 313        0.70590

 The electronic state is 1-A.
 Alpha  occ. eigenvalues --  -46.87675 -46.87316 -19.25905 -19.25709 -19.18713
 Alpha  occ. eigenvalues --  -19.18678 -19.18400 -19.18261 -19.17803 -19.17192
 Alpha  occ. eigenvalues --  -14.42330 -14.42184 -14.41338 -14.41012 -14.39275
 Alpha  occ. eigenvalues --  -14.38999 -14.38451 -14.38216 -10.38604 -10.38364
 Alpha  occ. eigenvalues --  -10.35351 -10.35085 -10.34021 -10.33356 -10.31484
 Alpha  occ. eigenvalues --  -10.31249 -10.31236 -10.30941 -10.30764 -10.30708
 Alpha  occ. eigenvalues --  -10.30409 -10.30364 -10.30142 -10.30009 -10.29951
 Alpha  occ. eigenvalues --  -10.29863 -10.29798 -10.29520 -10.29482 -10.29161
 Alpha  occ. eigenvalues --  -10.29125 -10.29006 -10.28617 -10.28495 -10.28469
 Alpha  occ. eigenvalues --  -10.28469 -10.28190 -10.28009 -10.27997 -10.27903
 Alpha  occ. eigenvalues --  -10.27617 -10.27609 -10.27566 -10.27498 -10.27444
 Alpha  occ. eigenvalues --  -10.27416 -10.27406 -10.27350 -10.27259 -10.27227
 Alpha  occ. eigenvalues --  -10.27191 -10.27114 -10.27088 -10.27086 -10.26778
 Alpha  occ. eigenvalues --  -10.26598 -10.26467 -10.26414 -10.26345 -10.26279
 Alpha  occ. eigenvalues --  -10.26169 -10.26122 -10.25935 -10.25933 -10.25874
 Alpha  occ. eigenvalues --  -10.25649 -10.25612 -10.25396 -10.25379 -10.25113
 Alpha  occ. eigenvalues --  -10.24894 -10.24660 -10.24628 -10.24524 -10.24427
 Alpha  occ. eigenvalues --  -10.24325  -3.16419  -3.16067  -1.91301  -1.90949
 Alpha  occ. eigenvalues --   -1.90887  -1.90729  -1.90538  -1.90373  -1.16185
 Alpha  occ. eigenvalues --   -1.16033  -1.08222  -1.07755  -1.07118  -1.06659
 Alpha  occ. eigenvalues --   -1.06438  -1.05907  -1.04445  -1.04160  -1.03645
 Alpha  occ. eigenvalues --   -1.03314  -1.03099  -1.02680  -1.02279  -1.01744
 Alpha  occ. eigenvalues --   -0.91749  -0.91542  -0.89460  -0.89167  -0.89063
 Alpha  occ. eigenvalues --   -0.88898  -0.88225  -0.87913  -0.87696  -0.87556
 Alpha  occ. eigenvalues --   -0.87386  -0.87342  -0.87160  -0.86790  -0.84858
 Alpha  occ. eigenvalues --   -0.84717  -0.83893  -0.83574  -0.82886  -0.82637
 Alpha  occ. eigenvalues --   -0.82500  -0.82355  -0.81307  -0.81213  -0.80394
 Alpha  occ. eigenvalues --   -0.80089  -0.78665  -0.78274  -0.77125  -0.76852
 Alpha  occ. eigenvalues --   -0.76787  -0.76595  -0.75722  -0.75506  -0.74795
 Alpha  occ. eigenvalues --   -0.74480  -0.72641  -0.72334  -0.71530  -0.71247
 Alpha  occ. eigenvalues --   -0.69921  -0.69494  -0.68742  -0.68528  -0.67478
 Alpha  occ. eigenvalues --   -0.67216  -0.67106  -0.66918  -0.65142  -0.64956
 Alpha  occ. eigenvalues --   -0.64700  -0.64441  -0.64431  -0.64318  -0.64182
 Alpha  occ. eigenvalues --   -0.63879  -0.61953  -0.61885  -0.60337  -0.60002
 Alpha  occ. eigenvalues --   -0.59668  -0.59496  -0.58835  -0.58626  -0.58323
 Alpha  occ. eigenvalues --   -0.58030  -0.57314  -0.57037  -0.57031  -0.56846
 Alpha  occ. eigenvalues --   -0.56154  -0.55839  -0.55640  -0.55521  -0.55380
 Alpha  occ. eigenvalues --   -0.55181  -0.55115  -0.54893  -0.54249  -0.54126
 Alpha  occ. eigenvalues --   -0.53754  -0.53642  -0.53172  -0.53071  -0.52893
 Alpha  occ. eigenvalues --   -0.52814  -0.52685  -0.52655  -0.52556  -0.52390
 Alpha  occ. eigenvalues --   -0.52330  -0.52112  -0.51710  -0.51474  -0.51432
 Alpha  occ. eigenvalues --   -0.51368  -0.51006  -0.50753  -0.50499  -0.50197
 Alpha  occ. eigenvalues --   -0.50006  -0.49808  -0.49702  -0.49563  -0.49372
 Alpha  occ. eigenvalues --   -0.49185  -0.48997  -0.48945  -0.48863  -0.48682
 Alpha  occ. eigenvalues --   -0.48421  -0.48291  -0.48218  -0.48189  -0.48049
 Alpha  occ. eigenvalues --   -0.47798  -0.47548  -0.47234  -0.47146  -0.46801
 Alpha  occ. eigenvalues --   -0.46686  -0.46414  -0.46394  -0.46278  -0.46229
 Alpha  occ. eigenvalues --   -0.45944  -0.45930  -0.45715  -0.45558  -0.45404
 Alpha  occ. eigenvalues --   -0.45119  -0.44884  -0.44436  -0.44329  -0.44236
 Alpha  occ. eigenvalues --   -0.44065  -0.44058  -0.43969  -0.43785  -0.43762
 Alpha  occ. eigenvalues --   -0.43750  -0.43461  -0.43293  -0.43225  -0.43206
 Alpha  occ. eigenvalues --   -0.43031  -0.42864  -0.42671  -0.42557  -0.42452
 Alpha  occ. eigenvalues --   -0.42257  -0.42181  -0.41912  -0.41670  -0.41499
 Alpha  occ. eigenvalues --   -0.41406  -0.41185  -0.41113  -0.40990  -0.40792
 Alpha  occ. eigenvalues --   -0.40733  -0.40628  -0.40477  -0.40442  -0.40434
 Alpha  occ. eigenvalues --   -0.40170  -0.40138  -0.39989  -0.39487  -0.39168
 Alpha  occ. eigenvalues --   -0.38419  -0.38071  -0.37634  -0.37402  -0.37243
 Alpha  occ. eigenvalues --   -0.37124  -0.36960  -0.36879  -0.36402  -0.36362
 Alpha  occ. eigenvalues --   -0.35868  -0.35738  -0.34146  -0.33890  -0.33399
 Alpha  occ. eigenvalues --   -0.33231  -0.32860  -0.32801  -0.31241  -0.30962
 Alpha  occ. eigenvalues --   -0.30868  -0.30619  -0.29660  -0.29309  -0.29126
 Alpha  occ. eigenvalues --   -0.29074  -0.28950  -0.28719  -0.23935  -0.23678
 Alpha  occ. eigenvalues --   -0.21001  -0.20763
 Alpha virt. eigenvalues --   -0.08625  -0.08401  -0.01635  -0.01357   0.00088
 Alpha virt. eigenvalues --    0.00336   0.02434   0.02585   0.03086   0.03601
 Alpha virt. eigenvalues --    0.04824   0.05012   0.05633   0.05706   0.06259

 Mulliken charges:
               1
     1  Mg   0.836455
     2  C   -0.000955
     3  C   -0.094562
     4  C   -0.046201
     5  C   -0.066342
     6  N   -0.256269
     7  C   -0.053489
     8  C   -0.013169
     9  C   -0.086793
    10  C    0.045497
    11  C    0.104935
    12  C    0.052809
    13  C   -0.070857
    14  H    0.035262
    15  N   -0.433171
    16  C    0.167703
    17  C   -0.177762
    18  C   -0.004516
    19  C    0.148613
    20  C    0.110355
    21  C    0.012011
    22  O   -0.250300
    23  C    0.062674
    24  N   -0.341117
    25  C    0.040820
    26  C   -0.028097
    27  C   -0.023748
    28  C    0.075250
    29  C    0.076237
    30  C    0.035399
    31  C   -0.004994
    32  N   -0.311587
    33  C    0.078984
    34  C   -0.169729
    35  C    0.010881
    36  C    0.084950
    37  C    0.126401
    38  C    0.054914
    39  O   -0.185153
    40  C   -0.007771
    41  C    0.209334
    42  O   -0.239423
    43  O   -0.307465
    44  C    0.157116
    45  H   -0.018189
    46  H   -0.017553
    47  H   -0.042195
    48  H    0.001502
    49  H   -0.005047
    50  H    0.025707
    51  H    0.016278
    52  H    0.016035
    53  H    0.008724
    54  H    0.046951
    55  H    0.018197
    56  H    0.016293
    57  H    0.005266
    58  H    0.026435
    59  H    0.038326
    60  H    0.037125
    61  H    0.035289
    62  H    0.030934
    63  H    0.015638
    64  H    0.009720
    65  H    0.022830
    66  H    0.012893
    67  H    0.004567
    68  H    0.006341
    69  H    0.004690
    70  H    0.009129
    71  H    0.014256
    72  H    0.029027
    73  H    0.050463
    74  H    0.007614
    75  H    0.045756
    76  H    0.033597
    77  H    0.040883
    78  H    0.043039
    79  H    0.057574
    80  Mg   0.835862
    81  C   -0.016935
    82  C   -0.088127
    83  C   -0.045982
    84  C   -0.066503
    85  N   -0.253810
    86  C   -0.050608
    87  C   -0.014274
    88  C   -0.090335
    89  C    0.044634
    90  C    0.114659
    91  C    0.062774
    92  C   -0.076985
    93  H    0.034138
    94  N   -0.423190
    95  C    0.161779
    96  C   -0.175706
    97  C   -0.008695
    98  C    0.151453
    99  C    0.099820
   100  C    0.014869
   101  O   -0.254231
   102  C    0.061489
   103  N   -0.350231
   104  C    0.037073
   105  C   -0.019553
   106  C   -0.034972
   107  C    0.089952
   108  C    0.073740
   109  C    0.034956
   110  C   -0.007465
   111  N   -0.324498
   112  C    0.078671
   113  C   -0.167365
   114  C    0.004955
   115  C    0.094732
   116  C    0.131815
   117  C    0.044346
   118  O   -0.164768
   119  C    0.001010
   120  C    0.213246
   121  O   -0.252718
   122  O   -0.304689
   123  C    0.153355
   124  H   -0.021388
   125  H   -0.016498
   126  H   -0.041294
   127  H   -0.001403
   128  H   -0.005339
   129  H    0.021572
   130  H    0.013956
   131  H    0.014076
   132  H    0.013752
   133  H    0.038244
   134  H    0.019376
   135  H    0.018906
   136  H    0.007582
   137  H    0.024780
   138  H    0.038707
   139  H    0.037638
   140  H    0.035443
   141  H    0.033462
   142  H    0.013639
   143  H    0.012437
   144  H    0.024247
   145  H    0.011979
   146  H    0.005709
   147  H    0.005513
   148  H    0.002324
   149  H    0.010799
   150  H    0.017211
   151  H    0.030757
   152  H    0.047281
   153  H    0.004753
   154  H    0.052274
   155  H    0.039479
   156  H    0.039985
   157  H    0.047498
   158  H    0.053627
 Sum of Mulliken charges =  -0.00000

 Dipole moment (field-independent basis, Debye):
    X=              0.6865    Y=              0.1369    Z=              7.6205  Tot=              7.6526
 Quadrupole moment (field-independent basis, Debye-Ang):
   XX=           -508.0683   YY=           -509.5495   ZZ=           -480.1449
   XY=            -25.4607   XZ=              3.4700   YZ=             56.8560

 Normal termination of Gaussian 16 at Fri Sep 10 02:10:17 2021.
