 Gaussian 16, Revision A.03,
 Gaussian 16:  ES64L-G16RevA.03 25-Dec-2016

 -----------------------------------
 #p cam-b3lyp/Def2SVP td=(nstates=5)
 -----------------------------------

 --------------------------------
 TDDFT excited states in gaussian
 --------------------------------
 Symbolic Z-matrix:
 Charge =  0 Multiplicity = 1

                         Standard orientation:
 ---------------------------------------------------------------------
 Center     Atomic      Atomic             Coordinates (Angstroms)
 Number     Number       Type             X           Y           Z
 ---------------------------------------------------------------------
      1         12           0       15.970601   -0.647800    0.509796
      2          6           0       16.244594    2.169152   -1.681533
      3          6           0       16.762683    1.458753    3.074578
      4          6           0       16.180823   -3.192316    2.390719
      5          6           0       16.323446   -2.680347   -2.299103
      6          7           0       16.422251    1.518709    0.563611
      7          6           0       16.435264    2.496250   -0.337175
      8          6           0       16.595589    3.913016    0.290873
      9          6           0       17.304308    3.503156    1.658985
     10          6           0       16.771142    2.087752    1.794218
     11          6           0       18.825660    3.448008    1.564387
     12          6           0       15.216743    4.609661    0.546218
     13          6           0       15.288463    6.109104    0.849336
     14          1           0       14.228322    6.974880    0.355494
     15          7           0       15.926298   -0.792110    2.479583
     16          6           0       16.266818    0.170450    3.369981
     17          6           0       16.063493   -0.422778    4.709168
     18          6           0       15.758904   -1.868915    4.524754
     19          6           0       15.971710   -2.016541    3.107609
     20          6           0       16.116686    0.371864    5.977815
     21          6           0       15.352360   -2.949085    5.476639
     22          8           0       15.363652   -4.184670    5.148345
     23          6           0       15.020920   -2.524862    6.848945
     24          7           0       16.435957   -2.649601    0.143907
     25          6           0       16.398581   -3.557307    1.125567
     26          6           0       16.487859   -4.952723    0.582627
     27          6           0       16.349348   -4.819978   -1.002601
     28          6           0       16.282676   -3.276186   -1.105210
     29          6           0       17.773016   -5.721185    0.920042
     30          6           0       15.234573   -5.653254   -1.683296
     31          6           0       13.877383   -5.134533   -1.263698
     32          7           0       16.060463   -0.349655   -1.638245
     33          6           0       16.233145   -1.336170   -2.619898
     34          6           0       16.339616   -0.641697   -3.916216
     35          6           0       16.237420    0.710336   -3.594646
     36          6           0       16.103597    0.852858   -2.183947
     37          6           0       16.566116   -1.260731   -5.177139
     38          6           0       16.234871    2.069020   -4.112169
     39          8           0       16.222167    2.567948   -5.238403
     40          6           0       16.361806    3.073584   -2.883118
     41          6           0       15.320030    4.144159   -3.061675
     42          8           0       14.104372    3.873302   -2.983077
     43          8           0       15.914074    5.347341   -3.059192
     44          6           0       14.932834    6.455784   -3.202986
     45          1           0       17.230234    1.971319    3.917557
     46          1           0       16.149181   -4.103814    2.991224
     47          1           0       16.349974   -3.253378   -3.227750
     48          1           0       17.237731    4.590030   -0.272802
     49          1           0       16.964982    4.117202    2.492969
     50          1           0       19.165748    3.574008    0.536582
     51          1           0       19.105126    2.463420    1.939858
     52          1           0       19.282359    4.168398    2.243534
     53          1           0       14.801066    4.249797    1.487372
     54          1           0       14.539341    4.443309   -0.292102
     55          1           0       16.266223    6.520439    0.596949
     56          1           0       15.208194    6.243708    1.928057
     57          1           0       16.523183    1.368341    5.809476
     58          1           0       16.845785   -0.112851    6.626795
     59          1           0       15.148833    0.412002    6.477796
     60          1           0       15.883459   -2.023927    7.288990
     61          1           0       14.667145   -3.418070    7.362631
     62          1           0       14.223877   -1.782007    6.806087
     63          1           0       15.676141   -5.572415    0.961467
     64          1           0       17.260454   -5.122237   -1.519516
     65          1           0       17.595930   -6.666234    1.434074
     66          1           0       18.411006   -5.066830    1.513404
     67          1           0       18.415637   -5.934363    0.066221
     68          1           0       15.292132   -6.694052   -1.366482
     69          1           0       15.287198   -5.634559   -2.771934
     70          1           0       13.709439   -5.635075   -0.310764
     71          1           0       13.118901   -5.419699   -1.993490
     72          1           0       13.903987   -4.062333   -1.068338
     73          1           0       15.890198   -0.775329   -5.881049
     74          1           0       16.384445   -2.334201   -5.129580
     75          1           0       17.617940   -1.021753   -5.333378
     76          1           0       17.373223    3.477732   -2.911763
     77          1           0       15.241246    7.047694   -4.064821
     78          1           0       14.886865    6.956369   -2.235667
     79          1           0       13.923142    6.170213   -3.500153
     80         12           0      -15.755083   -0.641309   -0.522610
     81          6           0      -17.276679    1.733373    1.696545
     82          6           0      -15.248150    1.938816   -2.695308
     83          6           0      -14.821026   -2.772267   -2.679922
     84          6           0      -17.376964   -3.149473    1.273027
     85          7           0      -16.242905    1.512673   -0.401461
     86          6           0      -16.765435    2.312119    0.516246
     87          6           0      -16.665880    3.825003    0.183301
     88          6           0      -16.552464    3.712603   -1.414625
     89          6           0      -15.943771    2.315714   -1.518808
     90          6           0      -17.901426    3.699195   -2.114242
     91          6           0      -15.388065    4.490891    0.804428
     92          6           0      -15.384919    6.021009    0.782115
     93          1           0      -14.771649    6.732163    1.900431
     94          7           0      -14.695385   -0.406952   -2.184142
     95          6           0      -14.582795    0.714721   -2.926063
     96          6           0      -13.708402    0.363731   -4.055842
     97          6           0      -13.447351   -1.100656   -4.009648
     98          6           0      -14.347658   -1.495454   -2.944908
     99          6           0      -13.144515    1.388081   -4.997206
    100          6           0      -12.547061   -1.999213   -4.802292
    101          8           0      -12.655990   -3.275331   -4.752540
    102          6           0      -11.596323   -1.339897   -5.709421
    103          7           0      -16.219064   -2.646460   -0.816585
    104          6           0      -15.633375   -3.354909   -1.797912
    105          6           0      -15.910388   -4.831446   -1.644696
    106          6           0      -16.605929   -4.991838   -0.213586
    107          6           0      -16.695438   -3.504373    0.192411
    108          6           0      -16.803166   -5.455581   -2.716976
    109          6           0      -15.951005   -5.990881    0.779214
    110          6           0      -14.597471   -5.475461    1.212449
    111          7           0      -16.936795   -0.745564    1.283139
    112          6           0      -17.540824   -1.893049    1.842174
    113          6           0      -18.334546   -1.444655    3.004666
    114          6           0      -18.154307   -0.053446    3.027725
    115          6           0      -17.324349    0.339977    1.943336
    116          6           0      -19.129496   -2.278482    3.840673
    117          6           0      -18.486041    1.172997    3.716554
    118          8           0      -19.084351    1.451639    4.754891
    119          6           0      -18.035427    2.399031    2.810930
    120          6           0      -17.289641    3.371401    3.683176
    121          8           0      -16.200746    3.055541    4.194218
    122          8           0      -17.873034    4.580546    3.593908
    123          6           0      -17.162359    5.581773    4.433141
    124          1           0      -15.245713    2.628314   -3.539978
    125          1           0      -14.438063   -3.561634   -3.330846
    126          1           0      -17.832378   -3.882120    1.942726
    127          1           0      -17.537950    4.408063    0.454066
    128          1           0      -15.869435    4.457024   -1.815457
    129          1           0      -18.719449    3.648276   -1.411120
    130          1           0      -17.894218    2.823744   -2.750315
    131          1           0      -17.986557    4.558653   -2.785364
    132          1           0      -14.527737    4.291710    0.152576
    133          1           0      -15.226389    4.143782    1.806419
    134          1           0      -16.377964    6.432096    0.563441
    135          1           0      -14.766532    6.354586   -0.054753
    136          1           0      -13.643999    2.357996   -4.882421
    137          1           0      -13.404226    1.067206   -6.011834
    138          1           0      -12.058668    1.476977   -4.921727
    139          1           0      -12.142908   -0.726268   -6.421582
    140          1           0      -10.980336   -2.142071   -6.120480
    141          1           0      -10.968765   -0.658896   -5.123746
    142          1           0      -14.988995   -5.400721   -1.653384
    143          1           0      -17.639966   -5.356314   -0.301670
    144          1           0      -16.326932   -6.305821   -3.240771
    145          1           0      -17.081815   -4.682987   -3.421231
    146          1           0      -17.771398   -5.807057   -2.364558
    147          1           0      -15.774925   -6.951492    0.288924
    148          1           0      -16.555524   -6.184405    1.659040
    149          1           0      -13.939552   -5.795658    0.399007
    150          1           0      -14.301860   -5.923716    2.158873
    151          1           0      -14.582830   -4.379621    1.236305
    152          1           0      -18.941377   -1.967611    4.859730
    153          1           0      -18.891820   -3.330136    3.694720
    154          1           0      -20.128124   -2.028422    3.472576
    155          1           0      -18.937140    2.840034    2.384313
    156          1           0      -17.905355    6.018249    5.107785
    157          1           0      -16.663223    6.266968    3.722430
    158          1           0      -16.426972    5.212961    5.138584
 ---------------------------------------------------------------------

 SCF Done:  E(RCAM-B3LYP) =  -4069.81178661     A.U. after   19 cycles

 Excitation energies and oscillator strengths:

 Excited State   1:      Singlet-A      1.6754 eV  740.03 nm  f=0.2475  <S**2>=0.000
     310 -> 316       -0.16919
     311 -> 313        0.66866
     312 -> 314        0.15352
     310 <- 316       -0.10200
 This state for optimization and/or second-order correction.
 Total Energy, E(TD-HF/TD-DFT) =  -4069.75021682
 Copying the excited state density for this state as the 1-particle RhoCI density.

 Excited State   2:      Singlet-A      1.6801 eV  737.95 nm  f=0.5310  <S**2>=0.000
     309 -> 315        0.17117
     311 -> 313       -0.15347
     312 -> 314        0.66829
     309 <- 315        0.10249

 Excited State   3:      Singlet-A      2.1862 eV  567.11 nm  f=0.0956  <S**2>=0.000
     310 -> 313        0.64212
     311 -> 316        0.27305

 Excited State   4:      Singlet-A      2.1926 eV  565.47 nm  f=0.1046  <S**2>=0.000
     309 -> 314        0.64036
     312 -> 315       -0.27819

 Excited State   5:      Singlet-A      3.0645 eV  404.58 nm  f=0.0000  <S**2>=0.000
     312 -> 313        0.70710

 The electronic state is 1-A.
 Alpha  occ. eigenvalues --  -46.87778 -46.87660 -19.26354 -19.26272 -19.19164
 Alpha  occ. eigenvalues --  -19.19007 -19.18793 -19.18708 -19.18154 -19.18053
 Alpha  occ. eigenvalues --  -14.42497 -14.42432 -14.41431 -14.41359 -14.39384
 Alpha  occ. eigenvalues --  -14.39351 -14.38600 -14.38569 -10.39094 -10.39066
 Alpha  occ. eigenvalues --  -10.35426 -10.35384 -10.34374 -10.34231 -10.31761
 Alpha  occ. eigenvalues --  -10.31669 -10.31388 -10.31310 -10.31022 -10.30890
 Alpha  occ. eigenvalues --  -10.30552 -10.30489 -10.30398 -10.30361 -10.30187
 Alpha  occ. eigenvalues --  -10.30140 -10.29902 -10.29895 -10.29612 -10.29436
 Alpha  occ. eigenvalues --  -10.29400 -10.29235 -10.28732 -10.28719 -10.28654
 Alpha  occ. eigenvalues --  -10.28523 -10.28404 -10.28346 -10.28141 -10.28100
 Alpha  occ. eigenvalues --  -10.28001 -10.27775 -10.27709 -10.27669 -10.27565
 Alpha  occ. eigenvalues --  -10.27518 -10.27484 -10.27482 -10.27465 -10.27460
 Alpha  occ. eigenvalues --  -10.27459 -10.27430 -10.27386 -10.27376 -10.27143
 Alpha  occ. eigenvalues --  -10.27053 -10.26692 -10.26688 -10.26402 -10.26385
 Alpha  occ. eigenvalues --  -10.26218 -10.26164 -10.26138 -10.26027 -10.26001
 Alpha  occ. eigenvalues --  -10.25935 -10.25855 -10.25828 -10.25416 -10.25399
 Alpha  occ. eigenvalues --  -10.24873 -10.24815 -10.24769 -10.24730 -10.24690
 Alpha  occ. eigenvalues --  -10.24666  -3.16521  -3.16410  -1.91402  -1.91292
 Alpha  occ. eigenvalues --   -1.90989  -1.90881  -1.90831  -1.90718  -1.16648
 Alpha  occ. eigenvalues --   -1.16621  -1.08660  -1.08612  -1.07194  -1.06960
 Alpha  occ. eigenvalues --   -1.06949  -1.06629  -1.04563  -1.04495  -1.03742
 Alpha  occ. eigenvalues --   -1.03663  -1.03215  -1.03039  -1.02393  -1.02111
 Alpha  occ. eigenvalues --   -0.91988  -0.91955  -0.89501  -0.89495  -0.89171
 Alpha  occ. eigenvalues --   -0.89152  -0.88268  -0.88221  -0.87853  -0.87795
 Alpha  occ. eigenvalues --   -0.87684  -0.87655  -0.87253  -0.87116  -0.85000
 Alpha  occ. eigenvalues --   -0.84964  -0.83917  -0.83877  -0.82946  -0.82926
 Alpha  occ. eigenvalues --   -0.82651  -0.82631  -0.81598  -0.81570  -0.80579
 Alpha  occ. eigenvalues --   -0.80443  -0.78778  -0.78633  -0.77200  -0.77144
 Alpha  occ. eigenvalues --   -0.76918  -0.76899  -0.75907  -0.75840  -0.74880
 Alpha  occ. eigenvalues --   -0.74804  -0.72756  -0.72699  -0.71654  -0.71582
 Alpha  occ. eigenvalues --   -0.69887  -0.69758  -0.68855  -0.68827  -0.67623
 Alpha  occ. eigenvalues --   -0.67601  -0.67201  -0.67198  -0.65272  -0.65269
 Alpha  occ. eigenvalues --   -0.64836  -0.64771  -0.64654  -0.64603  -0.64251
 Alpha  occ. eigenvalues --   -0.64204  -0.62283  -0.62281  -0.60422  -0.60337
 Alpha  occ. eigenvalues --   -0.59797  -0.59787  -0.58993  -0.58969  -0.58486
 Alpha  occ. eigenvalues --   -0.58426  -0.57569  -0.57557  -0.57290  -0.57236
 Alpha  occ. eigenvalues --   -0.56292  -0.56204  -0.55964  -0.55888  -0.55501
 Alpha  occ. eigenvalues --   -0.55450  -0.55322  -0.55249  -0.54507  -0.54489
 Alpha  occ. eigenvalues --   -0.53913  -0.53878  -0.53280  -0.53227  -0.53204
 Alpha  occ. eigenvalues --   -0.53141  -0.52903  -0.52898  -0.52736  -0.52663
 Alpha  occ. eigenvalues --   -0.52419  -0.52401  -0.51898  -0.51888  -0.51657
 Alpha  occ. eigenvalues --   -0.51599  -0.51202  -0.51179  -0.50550  -0.50469
 Alpha  occ. eigenvalues --   -0.50012  -0.49978  -0.49898  -0.49866  -0.49496
 Alpha  occ. eigenvalues --   -0.49485  -0.49202  -0.49197  -0.49105  -0.49079
 Alpha  occ. eigenvalues --   -0.48576  -0.48559  -0.48442  -0.48426  -0.48377
 Alpha  occ. eigenvalues --   -0.48335  -0.47676  -0.47594  -0.47278  -0.47117
 Alpha  occ. eigenvalues --   -0.46779  -0.46709  -0.46553  -0.46538  -0.46341
 Alpha  occ. eigenvalues --   -0.46270  -0.46145  -0.46087  -0.45825  -0.45806
 Alpha  occ. eigenvalues --   -0.45209  -0.45182  -0.44561  -0.44515  -0.44487
 Alpha  occ. eigenvalues --   -0.44476  -0.44127  -0.44126  -0.44077  -0.44071
 Alpha  occ. eigenvalues --   -0.44001  -0.43936  -0.43555  -0.43479  -0.43386
 Alpha  occ. eigenvalues --   -0.43367  -0.43009  -0.42932  -0.42903  -0.42684
 Alpha  occ. eigenvalues --   -0.42637  -0.42553  -0.41991  -0.41964  -0.41686
 Alpha  occ. eigenvalues --   -0.41670  -0.41516  -0.41459  -0.41123  -0.40990
 Alpha  occ. eigenvalues --   -0.40851  -0.40802  -0.40719  -0.40696  -0.40553
 Alpha  occ. eigenvalues --   -0.40494  -0.40225  -0.40217  -0.39426  -0.39421
 Alpha  occ. eigenvalues --   -0.38450  -0.38351  -0.37731  -0.37654  -0.37301
 Alpha  occ. eigenvalues --   -0.37266  -0.37246  -0.37199  -0.36774  -0.36698
 Alpha  occ. eigenvalues --   -0.36218  -0.36176  -0.34268  -0.34254  -0.33865
 Alpha  occ. eigenvalues --   -0.33756  -0.33176  -0.33168  -0.31323  -0.31267
 Alpha  occ. eigenvalues --   -0.31017  -0.30973  -0.30014  -0.29958  -0.29430
 Alpha  occ. eigenvalues --   -0.29326  -0.29304  -0.29212  -0.24062  -0.24036
 Alpha  occ. eigenvalues --   -0.21117  -0.21109
 Alpha virt. eigenvalues --   -0.08791  -0.08756  -0.01731  -0.01683  -0.00038
 Alpha virt. eigenvalues --   -0.00026   0.02206   0.02218   0.03141   0.03228
 Alpha virt. eigenvalues --    0.04730   0.04736   0.05112   0.05162   0.06182

 Mulliken charges:
               1
     1  Mg   0.838709
     2  C   -0.002975
     3  C   -0.094123
     4  C   -0.045846
     5  C   -0.063936
     6  N   -0.256786
     7  C   -0.052459
     8  C   -0.014052
     9  C   -0.086995
    10  C    0.046335
    11  C    0.104817
    12  C    0.053473
    13  C   -0.071800
    14  H    0.036092
    15  N   -0.433136
    16  C    0.168444
    17  C   -0.177139
    18  C   -0.003963
    19  C    0.148719
    20  C    0.110179
    21  C    0.012318
    22  O   -0.249588
    23  C    0.062457
    24  N   -0.341124
    25  C    0.041248
    26  C   -0.028189
    27  C   -0.023966
    28  C    0.074819
    29  C    0.076180
    30  C    0.035127
    31  C   -0.004511
    32  N   -0.310444
    33  C    0.080378
    34  C   -0.169737
    35  C    0.008337
    36  C    0.082991
    37  C    0.127318
    38  C    0.046088
    39  O   -0.188529
    40  C   -0.005315
    41  C    0.212861
    42  O   -0.257107
    43  O   -0.304798
    44  C    0.157713
    45  H   -0.017593
    46  H   -0.016810
    47  H   -0.041516
    48  H    0.000906
    49  H   -0.004016
    50  H    0.025451
    51  H    0.016453
    52  H    0.016655
    53  H    0.011245
    54  H    0.044109
    55  H    0.017847
    56  H    0.017983
    57  H    0.005875
    58  H    0.026840
    59  H    0.039625
    60  H    0.037340
    61  H    0.035714
    62  H    0.031556
    63  H    0.016593
    64  H    0.009435
    65  H    0.023234
    66  H    0.012537
    67  H    0.004732
    68  H    0.006377
    69  H    0.004701
    70  H    0.008822
    71  H    0.018153
    72  H    0.028984
    73  H    0.047521
    74  H    0.009106
    75  H    0.045973
    76  H    0.035122
    77  H    0.042889
    78  H    0.046414
    79  H    0.053656
    80  Mg   0.837864
    81  C   -0.016834
    82  C   -0.087764
    83  C   -0.045473
    84  C   -0.064885
    85  N   -0.254575
    86  C   -0.049854
    87  C   -0.015103
    88  C   -0.090500
    89  C    0.045765
    90  C    0.114373
    91  C    0.062517
    92  C   -0.077908
    93  H    0.034889
    94  N   -0.423505
    95  C    0.162943
    96  C   -0.174590
    97  C   -0.007757
    98  C    0.152119
    99  C    0.099349
   100  C    0.015620
   101  O   -0.253130
   102  C    0.061162
   103  N   -0.350077
   104  C    0.037508
   105  C   -0.019816
   106  C   -0.034837
   107  C    0.088933
   108  C    0.073650
   109  C    0.034733
   110  C   -0.007683
   111  N   -0.324092
   112  C    0.078410
   113  C   -0.163166
   114  C    0.002223
   115  C    0.096187
   116  C    0.131489
   117  C    0.042363
   118  O   -0.187957
   119  C    0.000918
   120  C    0.211261
   121  O   -0.251019
   122  O   -0.305628
   123  C    0.152031
   124  H   -0.019619
   125  H   -0.015530
   126  H   -0.040486
   127  H   -0.000674
   128  H   -0.004280
   129  H    0.022430
   130  H    0.014428
   131  H    0.016303
   132  H    0.013968
   133  H    0.037662
   134  H    0.020765
   135  H    0.019642
   136  H    0.008779
   137  H    0.026203
   138  H    0.039933
   139  H    0.038274
   140  H    0.036524
   141  H    0.033981
   142  H    0.014447
   143  H    0.012386
   144  H    0.025183
   145  H    0.011634
   146  H    0.005649
   147  H    0.006277
   148  H    0.003618
   149  H    0.010981
   150  H    0.017931
   151  H    0.030108
   152  H    0.045976
   153  H    0.008499
   154  H    0.046898
   155  H    0.034993
   156  H    0.043878
   157  H    0.049511
   158  H    0.053574
 Sum of Mulliken charges =  -0.00000

 Dipole moment (field-independent basis, Debye):
    X=              2.2432    Y=              3.1601    Z=              0.0744  Tot=              3.8760
 Quadrupole moment (field-independent basis, Debye-Ang):
   XX=           -469.4952   YY=           -461.5203   ZZ=           -534.1247
   XY=              1.5101   XZ=            133.3485   YZ=             11.3580

 Normal termination of Gaussian 16 at Sun Sep 12 11:24:52 2021.
