 Gaussian 16, Revision A.03,
 Gaussian 16:  ES64L-G16RevA.03 25-Dec-2016

 -----------------------------------
 #p cam-b3lyp/Def2SVP td=(nstates=5)
 -----------------------------------

 --------------------------------
 TDDFT excited states in gaussian
 --------------------------------
 Symbolic Z-matrix:
 Charge =  0 Multiplicity = 1

                         Standard orientation:
 ---------------------------------------------------------------------
 Center     Atomic      Atomic             Coordinates (Angstroms)
 Number     Number       Type             X           Y           Z
 ---------------------------------------------------------------------
      1         12           0       16.149935    0.502947    0.555283
      2          6           0       16.389671   -2.538874   -1.316097
      3          6           0       17.087135    2.148559   -2.283147
      4          6           0       16.386618    3.143942    2.294751
      5          6           0       16.347993   -1.433093    3.446335
      6          7           0       16.645881   -0.214442   -1.479425
      7          6           0       16.641370   -1.398951   -2.082822
      8          6           0       16.854965   -1.308321   -3.623451
      9          6           0       17.610670    0.093955   -3.690754
     10          6           0       17.055754    0.729766   -2.428321
     11          6           0       19.125525   -0.023259   -3.556668
     12          6           0       15.501626   -1.268107   -4.409955
     13          6           0       15.615087   -1.507922   -5.918255
     14          1           0       14.552912   -2.238551   -6.593025
     15          7           0       16.183131    2.400271    0.005819
     16          6           0       16.578508    2.889070   -1.194197
     17          6           0       16.418322    4.356658   -1.109308
     18          6           0       16.078116    4.696469    0.300260
     19          6           0       16.230040    3.413246    0.937156
     20          6           0       16.538783    5.267316   -2.292499
     21          6           0       15.689565    5.976913    0.969306
     22          8           0       15.663189    6.098748    2.241719
     23          6           0       15.422736    7.125629    0.084832
     24          7           0       16.560571    0.841834    2.573740
     25          6           0       16.545413    2.078596    3.082831
     26          6           0       16.585054    2.052452    4.582059
     27          6           0       16.384678    0.525231    5.003009
     28          6           0       16.344222   -0.105842    3.589369
     29          6           0       17.867549    2.595590    5.227208
     30          6           0       15.226928    0.212260    5.983866
     31          6           0       13.898422    0.467596    5.307867
     32          7           0       16.158007   -1.616347    1.023870
     33          6           0       16.271117   -2.198432    2.294719
     34          6           0       16.338285   -3.658030    2.096902
     35          6           0       16.275864   -3.823819    0.714707
     36          6           0       16.202480   -2.547339    0.087405
     37          6           0       16.500995   -4.631317    3.121924
     38          6           0       16.278917   -4.781297   -0.379406
     39          8           0       16.230123   -6.009759   -0.456814
     40          6           0       16.475555   -3.983079   -1.743227
     41          6           0       15.448602   -4.490095   -2.718733
     42          8           0       14.232071   -4.284067   -2.531728
     43          8           0       16.065777   -4.924952   -3.828028
     44          6           0       15.101459   -5.414468   -4.849115
     45          1           0       17.598638    2.745471   -3.040775
     46          1           0       16.361577    4.024693    2.939800
     47          1           0       16.325384   -2.104755    4.306459
     48          1           0       17.486774   -2.092160   -4.041588
     49          1           0       17.317750    0.672467   -4.566678
     50          1           0       19.425846   -1.040842   -3.307160
     51          1           0       19.400665    0.662288   -2.754910
     52          1           0       19.623592    0.348186   -4.452622
     53          1           0       15.117666   -0.247995   -4.412658
     54          1           0       14.787480   -1.974500   -3.985302
     55          1           0       16.589639   -1.918194   -6.184403
     56          1           0       15.581514   -0.541441   -6.421232
     57          1           0       16.957579    4.750186   -3.154898
     58          1           0       17.284065    6.021149   -2.039517
     59          1           0       15.593090    5.752229   -2.535099
     60          1           0       16.312169    7.336630   -0.509252
     61          1           0       15.072712    7.928779    0.732354
     62          1           0       14.639356    6.852083   -0.622585
     63          1           0       15.777434    2.648479    5.005056
     64          1           0       17.267842    0.117413    5.495329
     65          1           0       17.693031    3.411550    5.928961
     66          1           0       18.541928    2.903934    4.428817
     67          1           0       18.470522    1.849524    5.744147
     68          1           0       15.276893    0.869365    6.851428
     69          1           0       15.235493   -0.815972    6.345690
     70          1           0       13.759658    1.539906    5.441015
     71          1           0       13.105368   -0.093229    5.803601
     72          1           0       13.954027    0.276845    4.235949
     73          1           0       15.806615   -5.438529    2.889085
     74          1           0       16.300359   -4.207636    4.105714
     75          1           0       17.550069   -4.893865    2.986395
     76          1           0       17.492710   -4.182256   -2.079155
     77          1           0       15.386055   -6.437608   -5.094929
     78          1           0       15.104800   -4.680759   -5.655380
     79          1           0       14.075077   -5.561887   -4.511259
     80         12           0      -15.599823    0.535751   -0.113464
     81          6           0      -18.196248   -1.878493    0.442510
     82          6           0      -17.996367    2.596685   -1.395548
     83          6           0      -13.281281    2.499471   -1.027566
     84          6           0      -13.307937   -2.078154    0.132410
     85          7           0      -17.779702    0.279615   -0.386994
     86          6           0      -18.665914   -0.656253   -0.081872
     87          6           0      -20.145389   -0.229857   -0.279088
     88          6           0      -19.919026    0.926199   -1.370493
     89          6           0      -18.488245    1.323227   -1.012836
     90          6           0      -19.929028    0.413588   -2.801048
     91          6           0      -20.783872    0.339188    1.036412
     92          6           0      -22.306668    0.486148    1.000801
     93          1           0      -23.058879    0.236650    2.227344
     94          7           0      -15.664918    2.455574   -0.612048
     95          6           0      -16.726194    3.135487   -1.094430
     96          6           0      -16.253916    4.510085   -1.321564
     97          6           0      -14.784348    4.545530   -1.089512
     98          6           0      -14.510547    3.132935   -0.917212
     99          6           0      -17.180994    5.646607   -1.641380
    100          6           0      -13.788042    5.664255   -1.044491
    101          8           0      -12.525725    5.442940   -1.064357
    102          6           0      -14.333446    7.029303   -1.070739
    103          7           0      -13.606488    0.226212   -0.616579
    104          6           0      -12.803304    1.259040   -0.926568
    105          6           0      -11.357148    0.827854   -0.982290
    106          6           0      -11.330991   -0.663550   -0.405550
    107          6           0      -12.845221   -0.878103   -0.189992
    108          6           0      -10.709442    0.849318   -2.366626
    109          6           0      -10.368607   -0.942351    0.781362
    110          6           0      -10.840449   -0.203412    2.012921
    111          7           0      -15.680541   -1.559931    0.405853
    112          6           0      -14.606957   -2.477144    0.420066
    113          6           0      -15.174256   -3.806717    0.724734
    114          6           0      -16.552438   -3.572887    0.844871
    115          6           0      -16.827232   -2.198494    0.610294
    116          6           0      -14.441980   -5.024532    0.807411
    117          6           0      -17.838520   -4.178154    1.106297
    118          8           0      -18.218010   -5.295209    1.455451
    119          6           0      -18.974917   -3.131514    0.732721
    120          6           0      -19.963721   -3.095372    1.865627
    121          8           0      -19.626519   -2.672862    2.985618
    122          8           0      -21.192991   -3.358725    1.386148
    123          6           0      -22.210148   -3.323411    2.470572
    124          1           0      -18.625879    3.229151   -2.022105
    125          1           0      -12.430537    3.153479   -1.232479
    126          1           0      -12.647350   -2.926658    0.323041
    127          1           0      -20.790478   -1.001065   -0.682681
    128          1           0      -20.597629    1.759808   -1.209432
    129          1           0      -19.968972   -0.664753   -2.842340
    130          1           0      -19.013267    0.775727   -3.249704
    131          1           0      -20.744251    0.878895   -3.362509
    132          1           0      -20.496015    1.392532    1.147565
    133          1           0      -20.497548   -0.250999    1.885124
    134          1           0      -22.753554   -0.056373    0.158839
    135          1           0      -22.549746    1.533196    0.804294
    136          1           0      -18.181357    5.286040   -1.910946
    137          1           0      -16.806096    6.117186   -2.556732
    138          1           0      -17.217654    6.396277   -0.848080
    139          1           0      -14.925186    7.164471   -1.972982
    140          1           0      -13.473987    7.689928   -0.941168
    141          1           0      -15.018724    7.148581   -0.224111
    142          1           0      -10.741006    1.458680   -0.353382
    143          1           0      -11.016191   -1.390157   -1.168950
    144          1           0       -9.801784    1.480176   -2.414100
    145          1           0      -11.446037    1.188336   -3.082892
    146          1           0      -10.434024   -0.126579   -2.762818
    147          1           0       -9.369026   -0.562827    0.555626
    148          1           0      -10.267253   -1.996521    1.016817
    149          1           0      -10.431674    0.801297    1.869614
    150          1           0      -10.442543   -0.666665    2.913538
    151          1           0      -11.933093   -0.116109    2.025021
    152          1           0      -14.810983   -5.551258    1.677410
    153          1           0      -13.371824   -4.841017    0.877053
    154          1           0      -14.718589   -5.483512   -0.145531
    155          1           0      -19.432692   -3.463893   -0.199776
    156          1           0      -22.729809   -4.286381    2.452666
    157          1           0      -22.818379   -2.419191    2.280323
    158          1           0      -21.851949   -3.295361    3.492995
 ---------------------------------------------------------------------

 SCF Done:  E(RCAM-B3LYP) =  -4069.81177521     A.U. after   19 cycles

 Excitation energies and oscillator strengths:

 Excited State   1:      Singlet-A      1.6753 eV  740.08 nm  f=0.2130  <S**2>=0.000
     310 -> 316        0.16863
     311 -> 313        0.66664
     312 -> 314       -0.16204
     310 <- 316        0.10167
 This state for optimization and/or second-order correction.
 Total Energy, E(TD-HF/TD-DFT) =  -4069.75020967
 Copying the excited state density for this state as the 1-particle RhoCI density.

 Excited State   2:      Singlet-A      1.6801 eV  737.95 nm  f=0.5644  <S**2>=0.000
     309 -> 315        0.17065
     311 -> 313        0.16199
     312 -> 314        0.66628
     309 <- 315        0.10217

 Excited State   3:      Singlet-A      2.1861 eV  567.15 nm  f=0.1031  <S**2>=0.000
     310 -> 313        0.64248
     311 -> 316       -0.27312

 Excited State   4:      Singlet-A      2.1925 eV  565.48 nm  f=0.0985  <S**2>=0.000
     309 -> 314        0.64071
     312 -> 315       -0.27831

 Excited State   5:      Singlet-A      3.0617 eV  404.95 nm  f=0.0000  <S**2>=0.000
     312 -> 313        0.70710

 The electronic state is 1-A.
 Alpha  occ. eigenvalues --  -46.87771 -46.87660 -19.26350 -19.26261 -19.19161
 Alpha  occ. eigenvalues --  -19.18996 -19.18789 -19.18714 -19.18145 -19.18051
 Alpha  occ. eigenvalues --  -14.42498 -14.42425 -14.41424 -14.41358 -14.39377
 Alpha  occ. eigenvalues --  -14.39352 -14.38599 -14.38562 -10.39091 -10.39055
 Alpha  occ. eigenvalues --  -10.35422 -10.35392 -10.34365 -10.34228 -10.31757
 Alpha  occ. eigenvalues --  -10.31656 -10.31380 -10.31309 -10.31024 -10.30884
 Alpha  occ. eigenvalues --  -10.30545 -10.30482 -10.30397 -10.30360 -10.30182
 Alpha  occ. eigenvalues --  -10.30139 -10.29896 -10.29893 -10.29605 -10.29436
 Alpha  occ. eigenvalues --  -10.29400 -10.29229 -10.28725 -10.28721 -10.28656
 Alpha  occ. eigenvalues --  -10.28514 -10.28405 -10.28340 -10.28142 -10.28092
 Alpha  occ. eigenvalues --  -10.28001 -10.27768 -10.27702 -10.27669 -10.27559
 Alpha  occ. eigenvalues --  -10.27512 -10.27483 -10.27475 -10.27469 -10.27465
 Alpha  occ. eigenvalues --  -10.27456 -10.27424 -10.27379 -10.27371 -10.27134
 Alpha  occ. eigenvalues --  -10.27051 -10.26694 -10.26680 -10.26416 -10.26383
 Alpha  occ. eigenvalues --  -10.26211 -10.26157 -10.26128 -10.26028 -10.25994
 Alpha  occ. eigenvalues --  -10.25932 -10.25847 -10.25819 -10.25411 -10.25393
 Alpha  occ. eigenvalues --  -10.24872 -10.24808 -10.24763 -10.24721 -10.24689
 Alpha  occ. eigenvalues --  -10.24659  -3.16514  -3.16410  -1.91396  -1.91292
 Alpha  occ. eigenvalues --   -1.90982  -1.90881  -1.90824  -1.90718  -1.16644
 Alpha  occ. eigenvalues --   -1.16609  -1.08658  -1.08603  -1.07190  -1.06967
 Alpha  occ. eigenvalues --   -1.06946  -1.06618  -1.04556  -1.04495  -1.03735
 Alpha  occ. eigenvalues --   -1.03663  -1.03209  -1.03038  -1.02386  -1.02111
 Alpha  occ. eigenvalues --   -0.91987  -0.91947  -0.89494  -0.89491  -0.89163
 Alpha  occ. eigenvalues --   -0.89152  -0.88261  -0.88217  -0.87845  -0.87792
 Alpha  occ. eigenvalues --   -0.87684  -0.87648  -0.87248  -0.87120  -0.85000
 Alpha  occ. eigenvalues --   -0.84957  -0.83911  -0.83872  -0.82941  -0.82931
 Alpha  occ. eigenvalues --   -0.82653  -0.82624  -0.81596  -0.81561  -0.80571
 Alpha  occ. eigenvalues --   -0.80442  -0.78772  -0.78635  -0.77193  -0.77144
 Alpha  occ. eigenvalues --   -0.76910  -0.76897  -0.75899  -0.75839  -0.74873
 Alpha  occ. eigenvalues --   -0.74800  -0.72749  -0.72698  -0.71647  -0.71580
 Alpha  occ. eigenvalues --   -0.69881  -0.69752  -0.68848  -0.68828  -0.67616
 Alpha  occ. eigenvalues --   -0.67601  -0.67201  -0.67195  -0.65272  -0.65262
 Alpha  occ. eigenvalues --   -0.64829  -0.64769  -0.64653  -0.64596  -0.64244
 Alpha  occ. eigenvalues --   -0.64200  -0.62278  -0.62273  -0.60417  -0.60339
 Alpha  occ. eigenvalues --   -0.59797  -0.59780  -0.58992  -0.58962  -0.58479
 Alpha  occ. eigenvalues --   -0.58425  -0.57560  -0.57554  -0.57284  -0.57235
 Alpha  occ. eigenvalues --   -0.56285  -0.56204  -0.55954  -0.55887  -0.55495
 Alpha  occ. eigenvalues --   -0.55452  -0.55314  -0.55245  -0.54499  -0.54485
 Alpha  occ. eigenvalues --   -0.53914  -0.53870  -0.53274  -0.53227  -0.53197
 Alpha  occ. eigenvalues --   -0.53142  -0.52902  -0.52890  -0.52731  -0.52669
 Alpha  occ. eigenvalues --   -0.52412  -0.52394  -0.51890  -0.51883  -0.51660
 Alpha  occ. eigenvalues --   -0.51592  -0.51200  -0.51171  -0.50546  -0.50475
 Alpha  occ. eigenvalues --   -0.50006  -0.49980  -0.49893  -0.49864  -0.49490
 Alpha  occ. eigenvalues --   -0.49488  -0.49203  -0.49190  -0.49105  -0.49072
 Alpha  occ. eigenvalues --   -0.48568  -0.48559  -0.48436  -0.48420  -0.48373
 Alpha  occ. eigenvalues --   -0.48339  -0.47670  -0.47594  -0.47272  -0.47118
 Alpha  occ. eigenvalues --   -0.46772  -0.46708  -0.46554  -0.46531  -0.46334
 Alpha  occ. eigenvalues --   -0.46269  -0.46138  -0.46084  -0.45821  -0.45797
 Alpha  occ. eigenvalues --   -0.45206  -0.45176  -0.44553  -0.44514  -0.44481
 Alpha  occ. eigenvalues --   -0.44476  -0.44127  -0.44119  -0.44076  -0.44064
 Alpha  occ. eigenvalues --   -0.43994  -0.43940  -0.43552  -0.43470  -0.43386
 Alpha  occ. eigenvalues --   -0.43361  -0.43002  -0.42930  -0.42900  -0.42674
 Alpha  occ. eigenvalues --   -0.42629  -0.42550  -0.41984  -0.41961  -0.41679
 Alpha  occ. eigenvalues --   -0.41669  -0.41509  -0.41458  -0.41116  -0.40989
 Alpha  occ. eigenvalues --   -0.40844  -0.40797  -0.40722  -0.40698  -0.40546
 Alpha  occ. eigenvalues --   -0.40490  -0.40228  -0.40209  -0.39419  -0.39415
 Alpha  occ. eigenvalues --   -0.38444  -0.38347  -0.37723  -0.37655  -0.37295
 Alpha  occ. eigenvalues --   -0.37264  -0.37239  -0.37200  -0.36771  -0.36689
 Alpha  occ. eigenvalues --   -0.36215  -0.36168  -0.34261  -0.34253  -0.33862
 Alpha  occ. eigenvalues --   -0.33746  -0.33175  -0.33161  -0.31319  -0.31273
 Alpha  occ. eigenvalues --   -0.31010  -0.30972  -0.30004  -0.29955  -0.29424
 Alpha  occ. eigenvalues --   -0.29327  -0.29297  -0.29211  -0.24055  -0.24036
 Alpha  occ. eigenvalues --   -0.21116  -0.21102
 Alpha virt. eigenvalues --   -0.08792  -0.08749  -0.01724  -0.01683  -0.00033
 Alpha virt. eigenvalues --   -0.00029   0.02208   0.02225   0.03147   0.03228
 Alpha virt. eigenvalues --    0.04730   0.04742   0.05122   0.05165   0.06182

 Mulliken charges:
               1
     1  Mg   0.838712
     2  C   -0.002955
     3  C   -0.094117
     4  C   -0.045879
     5  C   -0.063951
     6  N   -0.256781
     7  C   -0.052471
     8  C   -0.014031
     9  C   -0.086976
    10  C    0.046320
    11  C    0.104812
    12  C    0.053464
    13  C   -0.071800
    14  H    0.036131
    15  N   -0.433138
    16  C    0.168425
    17  C   -0.177146
    18  C   -0.003996
    19  C    0.148732
    20  C    0.110178
    21  C    0.012301
    22  O   -0.249614
    23  C    0.062469
    24  N   -0.341118
    25  C    0.041249
    26  C   -0.028190
    27  C   -0.023941
    28  C    0.074818
    29  C    0.076175
    30  C    0.035115
    31  C   -0.004500
    32  N   -0.310454
    33  C    0.080411
    34  C   -0.169719
    35  C    0.008352
    36  C    0.082981
    37  C    0.127311
    38  C    0.046115
    39  O   -0.188459
    40  C   -0.005342
    41  C    0.212878
    42  O   -0.257096
    43  O   -0.304803
    44  C    0.157695
    45  H   -0.017614
    46  H   -0.016831
    47  H   -0.041493
    48  H    0.000923
    49  H   -0.004031
    50  H    0.025463
    51  H    0.016442
    52  H    0.016642
    53  H    0.011224
    54  H    0.044129
    55  H    0.017852
    56  H    0.017955
    57  H    0.005866
    58  H    0.026813
    59  H    0.039583
    60  H    0.037327
    61  H    0.035670
    62  H    0.031533
    63  H    0.016575
    64  H    0.009445
    65  H    0.023217
    66  H    0.012532
    67  H    0.004740
    68  H    0.006370
    69  H    0.004727
    70  H    0.008796
    71  H    0.018165
    72  H    0.028980
    73  H    0.047569
    74  H    0.009117
    75  H    0.045990
    76  H    0.035133
    77  H    0.042930
    78  H    0.046401
    79  H    0.053691
    80  Mg   0.837870
    81  C   -0.016819
    82  C   -0.087806
    83  C   -0.045521
    84  C   -0.064865
    85  N   -0.254543
    86  C   -0.049838
    87  C   -0.015107
    88  C   -0.090495
    89  C    0.045735
    90  C    0.114379
    91  C    0.062523
    92  C   -0.077898
    93  H    0.034913
    94  N   -0.423518
    95  C    0.162935
    96  C   -0.174645
    97  C   -0.007808
    98  C    0.152134
    99  C    0.099376
   100  C    0.015577
   101  O   -0.253158
   102  C    0.061181
   103  N   -0.350088
   104  C    0.037512
   105  C   -0.019833
   106  C   -0.034862
   107  C    0.088935
   108  C    0.073656
   109  C    0.034727
   110  C   -0.007700
   111  N   -0.324115
   112  C    0.078450
   113  C   -0.163098
   114  C    0.002238
   115  C    0.096209
   116  C    0.131481
   117  C    0.042388
   118  O   -0.187850
   119  C    0.000898
   120  C    0.211273
   121  O   -0.250999
   122  O   -0.305641
   123  C    0.152022
   124  H   -0.019689
   125  H   -0.015551
   126  H   -0.040372
   127  H   -0.000656
   128  H   -0.004333
   129  H    0.022449
   130  H    0.014420
   131  H    0.016264
   132  H    0.013927
   133  H    0.037688
   134  H    0.020774
   135  H    0.019588
   136  H    0.008748
   137  H    0.026117
   138  H    0.039798
   139  H    0.038229
   140  H    0.036400
   141  H    0.033909
   142  H    0.014446
   143  H    0.012467
   144  H    0.025183
   145  H    0.011579
   146  H    0.005717
   147  H    0.006369
   148  H    0.003728
   149  H    0.010944
   150  H    0.018024
   151  H    0.030040
   152  H    0.046045
   153  H    0.008594
   154  H    0.046945
   155  H    0.035007
   156  H    0.043914
   157  H    0.049485
   158  H    0.053598
 Sum of Mulliken charges =  -0.00000

 Dipole moment (field-independent basis, Debye):
    X=              0.3784    Y=              6.4274    Z=             -5.1357  Tot=              8.2359
 Quadrupole moment (field-independent basis, Debye-Ang):
   XX=           -365.9180   YY=           -548.4828   ZZ=           -479.6056
   XY=            -27.4330   XZ=              9.8443   YZ=            -10.5798

 Normal termination of Gaussian 16 at Sun Sep 12 22:36:06 2021.
