 Gaussian 16, Revision A.03,
 Gaussian 16:  ES64L-G16RevA.03 25-Dec-2016

 -----------------------------------
 #p cam-b3lyp/Def2SVP td=(nstates=5)
 -----------------------------------

 --------------------------------
 TDDFT excited states in gaussian
 --------------------------------
 Symbolic Z-matrix:
 Charge =  0 Multiplicity = 1

                         Standard orientation:
 ---------------------------------------------------------------------
 Center     Atomic      Atomic             Coordinates (Angstroms)
 Number     Number       Type             X           Y           Z
 ---------------------------------------------------------------------
      1         12           0       -5.156048   -0.825108    0.052298
      2          6           0       -5.453018    1.951781    2.291251
      3          6           0       -6.108905    1.285053   -2.454163
      4          6           0       -5.341583   -3.350930   -1.856215
      5          6           0       -5.340949   -2.905049    2.842517
      6          7           0       -5.684782    1.324549    0.044437
      7          6           0       -5.701050    2.289280    0.958877
      8          6           0       -5.932298    3.707480    0.356708
      9          6           0       -6.672794    3.290493   -0.992287
     10          6           0       -6.095403    1.896741   -1.165487
     11          6           0       -8.187141    3.180244   -0.847032
     12          6           0       -4.588242    4.455798    0.064708
     13          6           0       -4.722729    5.955553   -0.214580
     14          1           0       -3.677192    6.851896    0.255282
     15          7           0       -5.174369   -0.942263   -1.919703
     16          6           0       -5.578715    0.019062   -2.784367
     17          6           0       -5.400855   -0.549214   -4.137921
     18          6           0       -5.039719   -1.985912   -3.984386
     19          6           0       -5.198457   -2.159308   -2.563079
     20          6           0       -5.525330    0.259389   -5.392679
     21          6           0       -4.628557   -3.038592   -4.964663
     22          8           0       -4.585347   -4.277944   -4.653676
     23          6           0       -4.359463   -2.585172   -6.341268
     24          7           0       -5.538264   -2.846709    0.405394
     25          6           0       -5.502882   -3.739745   -0.589703
     26          6           0       -5.524606   -5.144355   -0.063833
     27          6           0       -5.336487   -5.027303    1.517515
     28          6           0       -5.320371   -3.483574    1.639623
     29          6           0       -6.792921   -5.953452   -0.368381
     30          6           0       -4.170537   -5.829283    2.148235
     31          6           0       -2.847526   -5.257405    1.690310
     32          7           0       -5.182492   -0.558147    2.206150
     33          6           0       -5.286761   -1.562779    3.179042
     34          6           0       -5.372895   -0.889343    4.487909
     35          6           0       -5.329153    0.469510    4.182210
     36          6           0       -5.248903    0.634922    2.769946
     37          6           0       -5.534185   -1.532275    5.746899
     38          6           0       -5.356366    1.820622    4.718507
     39          8           0       -5.322467    2.305076    5.850606
     40          6           0       -5.560477    2.835871    3.508782
     41          6           0       -4.551270    3.940294    3.667088
     42          8           0       -3.330297    3.713730    3.543563
     43          8           0       -5.186770    5.121599    3.701725
     44          6           0       -4.240545    6.262168    3.827877
     45          1           0       -6.622761    1.791589   -3.273501
     46          1           0       -5.298711   -4.252890   -2.470273
     47          1           0       -5.315523   -3.490625    3.763335
     48          1           0       -6.577999    4.353962    0.951313
     49          1           0       -6.383984    3.926916   -1.828515
     50          1           0       -8.495946    3.280806    0.193375
     51          1           0       -8.444722    2.191310   -1.226709
     52          1           0       -8.691804    3.892722   -1.500077
     53          1           0       -4.192785    4.123098   -0.894971
     54          1           0       -3.877058    4.302727    0.877181
     55          1           0       -5.705037    6.328678    0.076551
     56          1           0       -4.684295    6.106861   -1.293389
     57          1           0       -5.960414    1.238573   -5.196606
     58          1           0       -6.258877   -0.242425   -6.023395
     59          1           0       -4.577208    0.340267   -5.924520
     60          1           0       -5.253593   -2.109469   -6.744737
     61          1           0       -3.992504   -3.458561   -6.879212
     62          1           0       -3.587890   -1.815153   -6.314918
     63          1           0       -4.705192   -5.729938   -0.478657
     64          1           0       -6.218180   -5.368323    2.060651
     65          1           0       -6.600639   -6.884902   -0.901422
     66          1           0       -7.473402   -5.314497   -0.930497
     67          1           0       -7.398003   -6.200297    0.503605
     68          1           0       -4.202498   -6.867283    1.818869
     69          1           0       -4.186382   -5.826550    3.238186
     70          1           0       -2.694988   -5.739311    0.725256
     71          1           0       -2.054929   -5.524928    2.389905
     72          1           0       -2.918308   -4.184384    1.511140
     73          1           0       -4.851895   -1.032370    6.434317
     74          1           0       -5.316817   -2.597927    5.678047
     75          1           0       -6.587742   -1.332765    5.942017
     76          1           0       -6.583832    3.203516    3.577359
     77          1           0       -4.539705    6.831577    4.707940
     78          1           0       -4.245347    6.776540    2.866730
     79          1           0       -3.211876    6.008740    4.086628
     80         12           0        5.415962   -0.447569    0.044592
     81          6           0        4.378799    1.900240   -2.463624
     82          6           0        7.169657    2.096976    1.488341
     83          6           0        6.705957   -2.582121    2.005972
     84          6           0        4.549773   -2.990504   -2.175528
     85          7           0        5.663590    1.679452   -0.509240
     86          6           0        5.172104    2.473876   -1.448213
     87          6           0        5.486030    3.980454   -1.245158
     88          6           0        6.804682    3.831562   -0.340802
     89          6           0        6.519907    2.467220    0.283822
     90          6           0        8.083812    3.726715   -1.154529
     91          6           0        4.343107    4.730667   -0.475131
     92          6           0        4.437672    6.257568   -0.511972
     93          1           0        3.199915    7.030459   -0.567388
     94          7           0        6.333383   -0.201036    1.787033
     95          6           0        6.974607    0.904792    2.219761
     96          6           0        7.495795    0.571296    3.554423
     97          6           0        7.251663   -0.875130    3.805369
     98          6           0        6.762196   -1.289205    2.505734
     99          6           0        8.078633    1.598964    4.480504
    100          6           0        7.441012   -1.744753    5.011225
    101          8           0        7.388436   -3.023103    4.934455
    102          6           0        7.782310   -1.059689    6.266494
    103          7           0        5.801544   -2.481976   -0.142126
    104          6           0        6.320968   -3.183862    0.880358
    105          6           0        6.253015   -4.668553    0.613032
    106          6           0        5.356193   -4.827801   -0.701474
    107          6           0        5.124817   -3.336977   -1.032095
    108          6           0        7.595249   -5.368405    0.400928
    109          6           0        4.120170   -5.763125   -0.601107
    110          6           0        3.094186   -5.164069    0.333720
    111          7           0        4.441480   -0.566965   -1.880036
    112          6           0        4.202992   -1.729943   -2.644690
    113          6           0        3.618040   -1.294001   -3.929299
    114          6           0        3.577779    0.105021   -3.831299
    115          6           0        4.119370    0.513410   -2.582542
    116          6           0        3.251486   -2.146770   -5.008443
    117          6           0        3.210074    1.329808   -4.504624
    118          8           0        2.626103    1.603522   -5.552391
    119          6           0        3.828843    2.553646   -3.701050
    120          6           0        2.750545    3.587827   -3.527036
    121          8           0        1.748026    3.344930   -2.832370
    122          8           0        3.180423    4.760948   -4.026398
    123          6           0        2.149687    5.821152   -3.867094
    124          1           0        7.933102    2.762729    1.891834
    125          1           0        7.037221   -3.366859    2.690030
    126          1           0        4.162100   -3.728436   -2.881111
    127          1           0        5.717761    4.522699   -2.154023
    128          1           0        6.846654    4.600704    0.426015
    129          1           0        7.882976    3.650633   -2.212835
    130          1           0        8.585991    2.836200   -0.799766
    131          1           0        8.749640    4.562043   -0.919502
    132          1           0        4.465899    4.560751    0.602276
    133          1           0        3.378750    4.419740   -0.827205
    134          1           0        5.144333    6.608527   -1.273825
    135          1           0        4.868226    6.601449    0.431637
    136          1           0        8.278128    2.543273    3.959087
    137          1           0        9.069417    1.237491    4.776384
    138          1           0        7.474400    1.748249    5.377878
    139          1           0        8.702195   -0.495724    6.131563
    140          1           0        7.788991   -1.838216    7.031824
    141          1           0        6.996237   -0.330402    6.491959
    142          1           0        5.770783   -5.187349    1.432427
    143          1           0        5.931546   -5.249716   -1.538610
    144          1           0        7.766903   -6.205471    1.103734
    145          1           0        8.382205   -4.631100    0.488268
    146          1           0        7.757596   -5.762003   -0.601039
    147          1           0        4.407543   -6.725635   -0.170812
    148          1           0        3.652588   -5.965311   -1.558952
    149          1           0        3.451868   -5.470021    1.321412
    150          1           0        2.105741   -5.570223    0.128635
    151          1           0        3.121284   -4.068793    0.298025
    152          1           0        2.292194   -1.799011   -5.368071
    153          1           0        3.205850   -3.187613   -4.694860
    154          1           0        4.081982   -1.960852   -5.694715
    155          1           0        4.671006    2.933817   -4.280538
    156          1           0        1.960393    6.234856   -4.862439
    157          1           0        2.548551    6.512965   -3.101556
    158          1           0        1.153412    5.511551   -3.573771
 ---------------------------------------------------------------------

 SCF Done:  E(RCAM-B3LYP) =  -4069.81208582     A.U. after   19 cycles

 Excitation energies and oscillator strengths:

 Excited State   1:      Singlet-A      1.6578 eV  747.89 nm  f=0.0550  <S**2>=0.000
     309 -> 315        0.12819
     310 -> 316        0.11036
     311 -> 313        0.52079
     312 -> 314        0.44827
 This state for optimization and/or second-order correction.
 Total Energy, E(TD-HF/TD-DFT) =  -4069.75116360
 Copying the excited state density for this state as the 1-particle RhoCI density.

 Excited State   2:      Singlet-A      1.6962 eV  730.94 nm  f=0.6784  <S**2>=0.000
     309 -> 315       -0.11666
     310 -> 316        0.13597
     311 -> 313       -0.44670
     312 -> 314        0.51895

 Excited State   3:      Singlet-A      2.1833 eV  567.89 nm  f=0.0233  <S**2>=0.000
     309 -> 313        0.58204
     310 -> 314       -0.27556
     311 -> 315       -0.24466
     312 -> 316        0.11488

 Excited State   4:      Singlet-A      2.1947 eV  564.93 nm  f=0.1581  <S**2>=0.000
     309 -> 313        0.27281
     310 -> 314        0.57853
     311 -> 315       -0.11986
     312 -> 316       -0.25301

 Excited State   5:      Singlet-A      2.5089 eV  494.17 nm  f=0.0000  <S**2>=0.000
     312 -> 313        0.70694

 The electronic state is 1-A.
 Alpha  occ. eigenvalues --  -46.87553 -46.87448 -19.26374 -19.26048 -19.19160
 Alpha  occ. eigenvalues --  -19.18754 -19.18602 -19.18476 -19.18028 -19.17880
 Alpha  occ. eigenvalues --  -14.42393 -14.42107 -14.41261 -14.41125 -14.39245
 Alpha  occ. eigenvalues --  -14.39050 -14.38503 -14.38252 -10.39085 -10.38813
 Alpha  occ. eigenvalues --  -10.35278 -10.35105 -10.34204 -10.34102 -10.31829
 Alpha  occ. eigenvalues --  -10.31489 -10.31221 -10.31078 -10.30921 -10.30558
 Alpha  occ. eigenvalues --  -10.30303 -10.30271 -10.30237 -10.30185 -10.30031
 Alpha  occ. eigenvalues --  -10.29881 -10.29806 -10.29626 -10.29330 -10.29308
 Alpha  occ. eigenvalues --  -10.29302 -10.28908 -10.28627 -10.28570 -10.28411
 Alpha  occ. eigenvalues --  -10.28312 -10.28235 -10.28053 -10.28022 -10.27915
 Alpha  occ. eigenvalues --  -10.27791 -10.27569 -10.27461 -10.27419 -10.27393
 Alpha  occ. eigenvalues --  -10.27387 -10.27367 -10.27343 -10.27285 -10.27247
 Alpha  occ. eigenvalues --  -10.27238 -10.27204 -10.27076 -10.27056 -10.27015
 Alpha  occ. eigenvalues --  -10.26871 -10.26571 -10.26312 -10.26279 -10.26027
 Alpha  occ. eigenvalues --  -10.26011 -10.25968 -10.25958 -10.25951 -10.25832
 Alpha  occ. eigenvalues --  -10.25797 -10.25701 -10.25580 -10.25322 -10.25217
 Alpha  occ. eigenvalues --  -10.24793 -10.24608 -10.24596 -10.24508 -10.24480
 Alpha  occ. eigenvalues --  -10.24472  -3.16301  -3.16189  -1.91183  -1.91070
 Alpha  occ. eigenvalues --   -1.90772  -1.90657  -1.90609  -1.90500  -1.16663
 Alpha  occ. eigenvalues --   -1.16390  -1.08643  -1.08345  -1.06948  -1.06880
 Alpha  occ. eigenvalues --   -1.06853  -1.06380  -1.04396  -1.04240  -1.03563
 Alpha  occ. eigenvalues --   -1.03434  -1.02941  -1.02899  -1.02081  -1.02015
 Alpha  occ. eigenvalues --   -0.91912  -0.91655  -0.89399  -0.89236  -0.89059
 Alpha  occ. eigenvalues --   -0.88857  -0.88125  -0.88010  -0.87717  -0.87586
 Alpha  occ. eigenvalues --   -0.87561  -0.87338  -0.87010  -0.86906  -0.84907
 Alpha  occ. eigenvalues --   -0.84654  -0.83788  -0.83679  -0.82822  -0.82625
 Alpha  occ. eigenvalues --   -0.82564  -0.82326  -0.81559  -0.81307  -0.80374
 Alpha  occ. eigenvalues --   -0.80285  -0.78537  -0.78449  -0.77053  -0.76913
 Alpha  occ. eigenvalues --   -0.76832  -0.76643  -0.75776  -0.75625  -0.74724
 Alpha  occ. eigenvalues --   -0.74627  -0.72610  -0.72459  -0.71500  -0.71370
 Alpha  occ. eigenvalues --   -0.69657  -0.69654  -0.68739  -0.68550  -0.67517
 Alpha  occ. eigenvalues --   -0.67322  -0.67096  -0.66873  -0.65190  -0.64963
 Alpha  occ. eigenvalues --   -0.64693  -0.64581  -0.64550  -0.64324  -0.64114
 Alpha  occ. eigenvalues --   -0.63980  -0.62247  -0.62030  -0.60236  -0.60103
 Alpha  occ. eigenvalues --   -0.59705  -0.59473  -0.58909  -0.58678  -0.58351
 Alpha  occ. eigenvalues --   -0.58195  -0.57518  -0.57297  -0.57151  -0.57011
 Alpha  occ. eigenvalues --   -0.56126  -0.55992  -0.55851  -0.55706  -0.55378
 Alpha  occ. eigenvalues --   -0.55193  -0.55181  -0.55077  -0.54432  -0.54265
 Alpha  occ. eigenvalues --   -0.53821  -0.53564  -0.53141  -0.53066  -0.52987
 Alpha  occ. eigenvalues --   -0.52887  -0.52831  -0.52617  -0.52559  -0.52398
 Alpha  occ. eigenvalues --   -0.52300  -0.52189  -0.51825  -0.51629  -0.51565
 Alpha  occ. eigenvalues --   -0.51275  -0.51137  -0.50903  -0.50356  -0.50190
 Alpha  occ. eigenvalues --   -0.49882  -0.49773  -0.49747  -0.49575  -0.49394
 Alpha  occ. eigenvalues --   -0.49188  -0.49128  -0.49039  -0.48898  -0.48792
 Alpha  occ. eigenvalues --   -0.48501  -0.48311  -0.48307  -0.48241  -0.48188
 Alpha  occ. eigenvalues --   -0.48112  -0.47512  -0.47380  -0.47030  -0.46978
 Alpha  occ. eigenvalues --   -0.46622  -0.46495  -0.46464  -0.46233  -0.46186
 Alpha  occ. eigenvalues --   -0.46045  -0.46015  -0.45877  -0.45776  -0.45548
 Alpha  occ. eigenvalues --   -0.45123  -0.44929  -0.44456  -0.44386  -0.44292
 Alpha  occ. eigenvalues --   -0.44181  -0.44061  -0.43991  -0.43851  -0.43846
 Alpha  occ. eigenvalues --   -0.43788  -0.43696  -0.43521  -0.43305  -0.43219
 Alpha  occ. eigenvalues --   -0.43073  -0.42910  -0.42834  -0.42727  -0.42453
 Alpha  occ. eigenvalues --   -0.42440  -0.42398  -0.41871  -0.41729  -0.41604
 Alpha  occ. eigenvalues --   -0.41400  -0.41367  -0.41218  -0.40908  -0.40836
 Alpha  occ. eigenvalues --   -0.40622  -0.40592  -0.40566  -0.40476  -0.40402
 Alpha  occ. eigenvalues --   -0.40295  -0.40118  -0.39875  -0.39320  -0.39194
 Alpha  occ. eigenvalues --   -0.38255  -0.38190  -0.37561  -0.37420  -0.37172
 Alpha  occ. eigenvalues --   -0.37106  -0.37025  -0.36928  -0.36756  -0.36450
 Alpha  occ. eigenvalues --   -0.36142  -0.35908  -0.34162  -0.33959  -0.33842
 Alpha  occ. eigenvalues --   -0.33491  -0.33083  -0.32861  -0.31163  -0.31010
 Alpha  occ. eigenvalues --   -0.30880  -0.30712  -0.29935  -0.29743  -0.29229
 Alpha  occ. eigenvalues --   -0.29127  -0.29103  -0.28990  -0.23939  -0.23748
 Alpha  occ. eigenvalues --   -0.21019  -0.20795
 Alpha virt. eigenvalues --   -0.08698  -0.08437  -0.01582  -0.01419   0.00070
 Alpha virt. eigenvalues --    0.00288   0.02271   0.02505   0.03378   0.03624
 Alpha virt. eigenvalues --    0.04823   0.05040   0.05174   0.05370   0.06258

 Mulliken charges:
               1
     1  Mg   0.841414
     2  C   -0.002338
     3  C   -0.092283
     4  C   -0.046382
     5  C   -0.064424
     6  N   -0.256737
     7  C   -0.051986
     8  C   -0.014559
     9  C   -0.087434
    10  C    0.047434
    11  C    0.104962
    12  C    0.053096
    13  C   -0.070880
    14  H    0.034114
    15  N   -0.433160
    16  C    0.170112
    17  C   -0.175298
    18  C   -0.003364
    19  C    0.149252
    20  C    0.109966
    21  C    0.012611
    22  O   -0.251065
    23  C    0.061542
    24  N   -0.341165
    25  C    0.041453
    26  C   -0.028011
    27  C   -0.023694
    28  C    0.074570
    29  C    0.076448
    30  C    0.035387
    31  C   -0.004614
    32  N   -0.310204
    33  C    0.080086
    34  C   -0.170386
    35  C    0.007819
    36  C    0.083007
    37  C    0.127468
    38  C    0.045689
    39  O   -0.189959
    40  C   -0.005382
    41  C    0.212507
    42  O   -0.256456
    43  O   -0.304929
    44  C    0.158259
    45  H   -0.017905
    46  H   -0.017672
    47  H   -0.042432
    48  H   -0.000112
    49  H   -0.003637
    50  H    0.024963
    51  H    0.016202
    52  H    0.016063
    53  H    0.015113
    54  H    0.044937
    55  H    0.016665
    56  H    0.017919
    57  H    0.005744
    58  H    0.025701
    59  H    0.043637
    60  H    0.036836
    61  H    0.034571
    62  H    0.035350
    63  H    0.015719
    64  H    0.008861
    65  H    0.022453
    66  H    0.012567
    67  H    0.004273
    68  H    0.005320
    69  H    0.004487
    70  H    0.007472
    71  H    0.017723
    72  H    0.030380
    73  H    0.046779
    74  H    0.008600
    75  H    0.045266
    76  H    0.034467
    77  H    0.041873
    78  H    0.046318
    79  H    0.053034
    80  Mg   0.839554
    81  C   -0.016548
    82  C   -0.087458
    83  C   -0.045416
    84  C   -0.064756
    85  N   -0.254638
    86  C   -0.049494
    87  C   -0.015498
    88  C   -0.090649
    89  C    0.046347
    90  C    0.114434
    91  C    0.062387
    92  C   -0.077606
    93  H    0.034173
    94  N   -0.423509
    95  C    0.163749
    96  C   -0.174248
    97  C   -0.007385
    98  C    0.152529
    99  C    0.099388
   100  C    0.016061
   101  O   -0.253288
   102  C    0.060879
   103  N   -0.350071
   104  C    0.037656
   105  C   -0.019832
   106  C   -0.034758
   107  C    0.088778
   108  C    0.073752
   109  C    0.034697
   110  C   -0.007959
   111  N   -0.323960
   112  C    0.078368
   113  C   -0.163237
   114  C    0.001386
   115  C    0.096515
   116  C    0.131747
   117  C    0.041951
   118  O   -0.190314
   119  C    0.001045
   120  C    0.210409
   121  O   -0.250461
   122  O   -0.305562
   123  C    0.152730
   124  H   -0.019764
   125  H   -0.015620
   126  H   -0.040355
   127  H   -0.001358
   128  H   -0.004097
   129  H    0.022107
   130  H    0.014377
   131  H    0.016075
   132  H    0.015518
   133  H    0.038345
   134  H    0.019999
   135  H    0.019963
   136  H    0.008749
   137  H    0.025891
   138  H    0.040865
   139  H    0.037964
   140  H    0.036413
   141  H    0.035009
   142  H    0.014439
   143  H    0.012161
   144  H    0.024979
   145  H    0.011502
   146  H    0.005497
   147  H    0.005789
   148  H    0.004094
   149  H    0.010492
   150  H    0.018498
   151  H    0.030665
   152  H    0.044505
   153  H    0.009433
   154  H    0.046390
   155  H    0.034599
   156  H    0.042608
   157  H    0.050026
   158  H    0.052331
 Sum of Mulliken charges =  -0.00000

 Dipole moment (field-independent basis, Debye):
    X=              1.4657    Y=              3.1276    Z=             -1.8737  Tot=              3.9295
 Quadrupole moment (field-independent basis, Debye-Ang):
   XX=           -466.3577   YY=           -462.1554   ZZ=           -539.9149
   XY=             14.9038   XZ=             24.5790   YZ=            -10.0791

 Normal termination of Gaussian 16 at Fri Sep 10 14:52:58 2021.
