 Gaussian 16, Revision A.03,
 Gaussian 16:  ES64L-G16RevA.03 25-Dec-2016

 -----------------------------------
 #p cam-b3lyp/Def2SVP td=(nstates=5)
 -----------------------------------

 --------------------------------
 TDDFT excited states in gaussian
 --------------------------------
 Symbolic Z-matrix:
 Charge =  0 Multiplicity = 1

                         Standard orientation:
 ---------------------------------------------------------------------
 Center     Atomic      Atomic             Coordinates (Angstroms)
 Number     Number       Type             X           Y           Z
 ---------------------------------------------------------------------
      1         12           0        6.448391   -1.061415    0.081563
      2          6           0        7.177622    2.285570   -0.956768
      3          6           0        7.530490   -0.173221    3.193353
      4          6           0        6.242877   -4.116599    0.906327
      5          6           0        6.511331   -1.962128   -3.284506
      6          7           0        7.229328    0.844961    0.891820
      7          6           0        7.402758    2.069585    0.404595
      8          6           0        7.773943    3.120716    1.493044
      9          6           0        8.396554    2.141637    2.586551
     10          6           0        7.649388    0.869460    2.227065
     11          6           0        9.891933    1.900305    2.407375
     12          6           0        6.516973    3.872586    2.046623
     13          6           0        6.816769    5.130972    2.866343
     14          1           0        5.908542    6.263588    2.768103
     15          7           0        6.361994   -1.903577    1.866541
     16          6           0        6.838194   -1.392227    3.027162
     17          6           0        6.531718   -2.394570    4.070264
     18          6           0        6.008899   -3.612633    3.391238
     19          6           0        6.210883   -3.264785    2.007915
     20          6           0        6.694183   -2.132663    5.536129
     21          6           0        5.430291   -4.892029    3.907464
     22          8           0        5.253599   -5.910847    3.155558
     23          6           0        5.154380   -4.951624    5.354310
     24          7           0        6.602068   -2.838475   -1.002908
     25          6           0        6.414545   -4.024660   -0.414023
     26          6           0        6.292370   -5.124001   -1.427166
     27          6           0        6.192413   -4.405221   -2.849529
     28          6           0        6.366536   -2.938102   -2.385296
     29          6           0        7.439562   -6.143530   -1.450079
     30          6           0        4.969178   -4.759375   -3.731963
     31          6           0        3.704373   -4.234063   -3.090547
     32          7           0        6.605440   -0.019703   -1.816125
     33          6           0        6.633464   -0.595813   -3.094399
     34          6           0        6.859486    0.498395   -4.056527
     35          6           0        6.964466    1.640209   -3.264640
     36          6           0        6.839787    1.278328   -1.892856
     37          6           0        7.000429    0.353839   -5.464956
     38          6           0        7.177562    3.078397   -3.256668
     39          8           0        7.253835    3.948548   -4.125294
     40          6           0        7.445773    3.536875   -1.755439
     41          6           0        6.584137    4.740546   -1.486984
     42          8           0        5.340462    4.642630   -1.454573
     43          8           0        7.357181    5.758464   -1.078586
     44          6           0        6.560852    6.975379   -0.766926
     45          1           0        8.063026   -0.077321    4.141588
     46          1           0        6.064360   -5.168577    1.138513
     47          1           0        6.458419   -2.155574   -4.357460
     48          1           0        8.518901    3.853344    1.182051
     49          1           0        8.147778    2.453475    3.600745
     50          1           0       10.257996    2.339491    1.479455
     51          1           0       10.011765    0.816886    2.389022
     52          1           0       10.447601    2.248514    3.278443
     53          1           0        6.040934    3.260970    2.813027
     54          1           0        5.830661    4.124471    1.237392
     55          1           0        7.848957    5.456450    2.733824
     56          1           0        6.747190    4.874556    3.923514
     57          1           0        7.251717   -1.215043    5.719633
     58          1           0        7.332752   -2.922216    5.931786
     59          1           0        5.739105   -2.134342    6.061633
     60          1           0        6.079475   -4.778378    5.904523
     61          1           0        4.661354   -5.907582    5.527286
     62          1           0        4.482396   -4.134903    5.619549
     63          1           0        5.390664   -5.711644   -1.259753
     64          1           0        7.051037   -4.630089   -3.482675
     65          1           0        7.113060   -7.173426   -1.303741
     66          1           0        8.164991   -5.851689   -0.691216
     67          1           0        8.050209   -6.124297   -2.352385
     68          1           0        4.861693   -5.840357   -3.814846
     69          1           0        5.035276   -4.354264   -4.741798
     70          1           0        3.451175   -5.015992   -2.375488
     71          1           0        2.918456   -4.118918   -3.837733
     72          1           0        3.894585   -3.322810   -2.523164
     73          1           0        6.415070    1.156125   -5.914023
     74          1           0        6.654327   -0.623945   -5.799253
     75          1           0        8.078119    0.474884   -5.573526
     76          1           0        8.507794    3.769439   -1.683698
     77          1           0        6.966019    7.787460   -1.370745
     78          1           0        6.582947    7.091008    0.316839
     79          1           0        5.522243    6.970051   -1.099497
     80         12           0       -6.616985    1.050682    0.291184
     81          6           0       -6.986582   -2.458592   -0.362585
     82          6           0       -5.724010    1.414002   -2.980690
     83          6           0       -5.848807    4.060456    0.938199
     84          6           0       -6.418220    0.257124    3.678886
     85          7           0       -6.418621   -0.408434   -1.359234
     86          6           0       -6.644869   -1.705311   -1.505047
     87          6           0       -6.574970   -2.209509   -2.971495
     88          6           0       -5.629510   -1.060769   -3.575937
     89          6           0       -5.965240    0.068611   -2.604104
     90          6           0       -4.147626   -1.373480   -3.451216
     91          6           0       -7.981319   -2.221112   -3.667239
     92          6           0       -8.038150   -2.988650   -4.989900
     93          1           0       -9.257939   -3.721681   -5.317394
     94          7           0       -6.369872    2.602160   -0.921425
     95          6           0       -6.029471    2.568486   -2.226892
     96          6           0       -5.956146    3.972510   -2.659898
     97          6           0       -6.119664    4.841665   -1.463011
     98          6           0       -6.097847    3.846602   -0.409694
     99          6           0       -5.828285    4.374074   -4.100670
    100          6           0       -6.258234    6.324315   -1.293465
    101          8           0       -6.149557    6.883834   -0.145440
    102          6           0       -6.431813    7.111390   -2.523040
    103          7           0       -5.983097    2.001998    2.027720
    104          6           0       -5.768346    3.329141    2.049960
    105          6           0       -5.588644    3.829018    3.463551
    106          6           0       -5.969451    2.595283    4.407196
    107          6           0       -6.228823    1.521617    3.327672
    108          6           0       -4.188607    4.328558    3.819570
    109          6           0       -7.063552    2.842544    5.481655
    110          6           0       -8.400275    3.071873    4.813826
    111          7           0       -6.869356   -0.729624    1.489045
    112          6           0       -6.715226   -0.845412    2.887942
    113          6           0       -6.875649   -2.274346    3.226828
    114          6           0       -7.090825   -2.898933    1.989060
    115          6           0       -7.046151   -1.930661    0.949853
    116          6           0       -6.767636   -2.837545    4.529622
    117          6           0       -7.335041   -4.158704    1.324201
    118          8           0       -7.557459   -5.309536    1.698177
    119          6           0       -7.152603   -3.947950   -0.240630
    120          6           0       -8.327298   -4.581146   -0.934659
    121          8           0       -9.474288   -4.126905   -0.777546
    122          8           0       -7.878120   -5.475670   -1.833797
    123          6           0       -9.006048   -6.122443   -2.555807
    124          1           0       -5.213905    1.604874   -3.925274
    125          1           0       -5.687777    5.101229    1.228602
    126          1           0       -6.467500   -0.057481    4.723520
    127          1           0       -6.108330   -3.179233   -3.096690
    128          1           0       -5.927637   -0.795143   -4.586848
    129          1           0       -3.971739   -2.265449   -2.868461
    130          1           0       -3.704919   -0.512385   -2.967932
    131          1           0       -3.689748   -1.431065   -4.442866
    132          1           0       -8.211267   -1.209884   -4.026797
    133          1           0       -8.733444   -2.594850   -2.999963
    134          1           0       -7.156669   -3.624836   -5.135483
    135          1           0       -7.988099   -2.269347   -5.810947
    136          1           0       -5.563703    3.518835   -4.734670
    137          1           0       -4.963068    5.042163   -4.170843
    138          1           0       -6.711172    4.899089   -4.471549
    139          1           0       -5.583639    6.943003   -3.182365
    140          1           0       -6.602596    8.137455   -2.191543
    141          1           0       -7.318789    6.744118   -3.051239
    142          1           0       -6.262080    4.651431    3.671451
    143          1           0       -5.105702    2.249054    4.993618
    144          1           0       -4.177889    5.372010    4.187227
    145          1           0       -3.557545    4.226426    2.946718
    146          1           0       -3.658928    3.730196    4.558894
    147          1           0       -6.839879    3.749882    6.048103
    148          1           0       -7.158115    2.031815    6.196339
    149          1           0       -8.366120    4.133510    4.551425
    150          1           0       -9.214546    2.861992    5.504441
    151          1           0       -8.476052    2.503650    3.879469
    152          1           0       -7.580511   -3.544168    4.631710
    153          1           0       -6.808316   -2.069662    5.299340
    154          1           0       -5.778604   -3.298444    4.461471
    155          1           0       -6.208630   -4.413815   -0.526077
    156          1           0       -8.891128   -7.202950   -2.425502
    157          1           0       -8.961691   -5.732252   -3.589990
    158          1           0      -10.005284   -5.967492   -2.165975
 ---------------------------------------------------------------------

 SCF Done:  E(RCAM-B3LYP) =  -4069.81183389     A.U. after   19 cycles

 Excitation energies and oscillator strengths:

 Excited State   1:      Singlet-A      1.6669 eV  743.81 nm  f=0.0530  <S**2>=0.000
     309 -> 315        0.10903
     310 -> 316        0.13268
     311 -> 313        0.43425
     312 -> 314        0.53173
 This state for optimization and/or second-order correction.
 Total Energy, E(TD-HF/TD-DFT) =  -4069.75057721
 Copying the excited state density for this state as the 1-particle RhoCI density.

 Excited State   2:      Singlet-A      1.6884 eV  734.32 nm  f=0.6870  <S**2>=0.000
     309 -> 315        0.13766
     310 -> 316       -0.11194
     311 -> 313        0.53067
     312 -> 314       -0.43348

 Excited State   3:      Singlet-A      2.1858 eV  567.22 nm  f=0.0509  <S**2>=0.000
     309 -> 313        0.18780
     310 -> 314        0.61486
     312 -> 316       -0.26069

 Excited State   4:      Singlet-A      2.1935 eV  565.23 nm  f=0.1403  <S**2>=0.000
     309 -> 313        0.61270
     310 -> 314       -0.18628
     311 -> 315       -0.26672

 Excited State   5:      Singlet-A      2.6491 eV  468.03 nm  f=0.0000  <S**2>=0.000
     312 -> 313        0.70710

 The electronic state is 1-A.
 Alpha  occ. eigenvalues --  -46.87854 -46.87551 -19.26337 -19.26269 -19.19079
 Alpha  occ. eigenvalues --  -19.19077 -19.18846 -19.18595 -19.18234 -19.17951
 Alpha  occ. eigenvalues --  -14.42505 -14.42386 -14.41508 -14.41254 -14.39458
 Alpha  occ. eigenvalues --  -14.39240 -14.38648 -14.38494 -10.39138 -10.39005
 Alpha  occ. eigenvalues --  -10.35477 -10.35271 -10.34454 -10.34129 -10.31724
 Alpha  occ. eigenvalues --  -10.31686 -10.31464 -10.31199 -10.30958 -10.30906
 Alpha  occ. eigenvalues --  -10.30632 -10.30566 -10.30294 -10.30262 -10.30254
 Alpha  occ. eigenvalues --  -10.30035 -10.29983 -10.29799 -10.29688 -10.29322
 Alpha  occ. eigenvalues --  -10.29309 -10.29293 -10.28794 -10.28609 -10.28571
 Alpha  occ. eigenvalues --  -10.28568 -10.28420 -10.28291 -10.28163 -10.28020
 Alpha  occ. eigenvalues --  -10.27891 -10.27852 -10.27782 -10.27637 -10.27568
 Alpha  occ. eigenvalues --  -10.27550 -10.27521 -10.27508 -10.27459 -10.27445
 Alpha  occ. eigenvalues --  -10.27376 -10.27352 -10.27313 -10.27297 -10.27216
 Alpha  occ. eigenvalues --  -10.26952 -10.26746 -10.26596 -10.26422 -10.26281
 Alpha  occ. eigenvalues --  -10.26278 -10.26272 -10.26085 -10.26082 -10.25931
 Alpha  occ. eigenvalues --  -10.25882 -10.25835 -10.25775 -10.25483 -10.25319
 Alpha  occ. eigenvalues --  -10.24893 -10.24843 -10.24792 -10.24765 -10.24677
 Alpha  occ. eigenvalues --  -10.24584  -3.16597  -3.16301  -1.91479  -1.91184
 Alpha  occ. eigenvalues --   -1.91065  -1.90907  -1.90772  -1.90609  -1.16687
 Alpha  occ. eigenvalues --   -1.16562  -1.08693  -1.08561  -1.07245  -1.06862
 Alpha  occ. eigenvalues --   -1.06846  -1.06701  -1.04636  -1.04384  -1.03817
 Alpha  occ. eigenvalues --   -1.03555  -1.03292  -1.02933  -1.02469  -1.02004
 Alpha  occ. eigenvalues --   -0.92030  -0.91882  -0.89586  -0.89404  -0.89236
 Alpha  occ. eigenvalues --   -0.89039  -0.88350  -0.88134  -0.87938  -0.87727
 Alpha  occ. eigenvalues --   -0.87696  -0.87576  -0.87318  -0.86995  -0.85030
 Alpha  occ. eigenvalues --   -0.84892  -0.84004  -0.83796  -0.83008  -0.82816
 Alpha  occ. eigenvalues --   -0.82695  -0.82542  -0.81641  -0.81504  -0.80649
 Alpha  occ. eigenvalues --   -0.80341  -0.78850  -0.78520  -0.77277  -0.77040
 Alpha  occ. eigenvalues --   -0.76987  -0.76804  -0.75976  -0.75731  -0.74956
 Alpha  occ. eigenvalues --   -0.74712  -0.72835  -0.72595  -0.71726  -0.71476
 Alpha  occ. eigenvalues --   -0.69981  -0.69682  -0.68922  -0.68720  -0.67694
 Alpha  occ. eigenvalues --   -0.67497  -0.67262  -0.67093  -0.65338  -0.65167
 Alpha  occ. eigenvalues --   -0.64911  -0.64676  -0.64670  -0.64555  -0.64333
 Alpha  occ. eigenvalues --   -0.64115  -0.62354  -0.62189  -0.60491  -0.60227
 Alpha  occ. eigenvalues --   -0.59855  -0.59685  -0.59045  -0.58891  -0.58561
 Alpha  occ. eigenvalues --   -0.58324  -0.57644  -0.57459  -0.57366  -0.57138
 Alpha  occ. eigenvalues --   -0.56367  -0.56098  -0.56030  -0.55792  -0.55568
 Alpha  occ. eigenvalues --   -0.55402  -0.55344  -0.55163  -0.54585  -0.54405
 Alpha  occ. eigenvalues --   -0.53942  -0.53802  -0.53353  -0.53267  -0.53126
 Alpha  occ. eigenvalues --   -0.53034  -0.52971  -0.52802  -0.52796  -0.52541
 Alpha  occ. eigenvalues --   -0.52516  -0.52331  -0.51990  -0.51798  -0.51662
 Alpha  occ. eigenvalues --   -0.51548  -0.51257  -0.51106  -0.50609  -0.50348
 Alpha  occ. eigenvalues --   -0.50094  -0.49961  -0.49867  -0.49770  -0.49559
 Alpha  occ. eigenvalues --   -0.49374  -0.49269  -0.49146  -0.49092  -0.48999
 Alpha  occ. eigenvalues --   -0.48649  -0.48518  -0.48488  -0.48456  -0.48289
 Alpha  occ. eigenvalues --   -0.48222  -0.47746  -0.47487  -0.47347  -0.47007
 Alpha  occ. eigenvalues --   -0.46857  -0.46611  -0.46602  -0.46446  -0.46418
 Alpha  occ. eigenvalues --   -0.46224  -0.46167  -0.45994  -0.45885  -0.45732
 Alpha  occ. eigenvalues --   -0.45260  -0.45116  -0.44639  -0.44554  -0.44418
 Alpha  occ. eigenvalues --   -0.44369  -0.44205  -0.44137  -0.44069  -0.44022
 Alpha  occ. eigenvalues --   -0.43981  -0.43826  -0.43553  -0.43465  -0.43438
 Alpha  occ. eigenvalues --   -0.43283  -0.43085  -0.42840  -0.42805  -0.42757
 Alpha  occ. eigenvalues --   -0.42721  -0.42462  -0.42075  -0.41877  -0.41761
 Alpha  occ. eigenvalues --   -0.41582  -0.41568  -0.41359  -0.41193  -0.40923
 Alpha  occ. eigenvalues --   -0.40882  -0.40857  -0.40633  -0.40617  -0.40589
 Alpha  occ. eigenvalues --   -0.40405  -0.40274  -0.40123  -0.39518  -0.39353
 Alpha  occ. eigenvalues --   -0.38529  -0.38263  -0.37794  -0.37554  -0.37381
 Alpha  occ. eigenvalues --   -0.37313  -0.37173  -0.37091  -0.36771  -0.36688
 Alpha  occ. eigenvalues --   -0.36251  -0.36125  -0.34344  -0.34149  -0.33829
 Alpha  occ. eigenvalues --   -0.33774  -0.33244  -0.33069  -0.31376  -0.31155
 Alpha  occ. eigenvalues --   -0.31090  -0.30865  -0.30094  -0.29857  -0.29502
 Alpha  occ. eigenvalues --   -0.29383  -0.29212  -0.29104  -0.24138  -0.23928
 Alpha  occ. eigenvalues --   -0.21185  -0.21008
 Alpha virt. eigenvalues --   -0.08830  -0.08681  -0.01805  -0.01576  -0.00103
 Alpha virt. eigenvalues --    0.00090   0.02139   0.02308   0.03055   0.03323
 Alpha virt. eigenvalues --    0.04667   0.04839   0.05040   0.05253   0.06137

 Mulliken charges:
               1
     1  Mg   0.838612
     2  C   -0.002946
     3  C   -0.094068
     4  C   -0.045812
     5  C   -0.064151
     6  N   -0.256804
     7  C   -0.052470
     8  C   -0.014030
     9  C   -0.086994
    10  C    0.046390
    11  C    0.104772
    12  C    0.053450
    13  C   -0.071975
    14  H    0.036468
    15  N   -0.433207
    16  C    0.168518
    17  C   -0.177019
    18  C   -0.003804
    19  C    0.148771
    20  C    0.110152
    21  C    0.012495
    22  O   -0.249214
    23  C    0.062382
    24  N   -0.341111
    25  C    0.041262
    26  C   -0.028310
    27  C   -0.023869
    28  C    0.074687
    29  C    0.076092
    30  C    0.035194
    31  C   -0.004443
    32  N   -0.310350
    33  C    0.080156
    34  C   -0.170228
    35  C    0.008248
    36  C    0.082755
    37  C    0.127445
    38  C    0.045844
    39  O   -0.188766
    40  C   -0.005201
    41  C    0.212815
    42  O   -0.257311
    43  O   -0.304749
    44  C    0.157681
    45  H   -0.017403
    46  H   -0.016552
    47  H   -0.041852
    48  H    0.000985
    49  H   -0.003912
    50  H    0.025501
    51  H    0.016473
    52  H    0.016822
    53  H    0.011167
    54  H    0.044089
    55  H    0.017908
    56  H    0.017998
    57  H    0.005935
    58  H    0.027082
    59  H    0.039716
    60  H    0.037353
    61  H    0.036240
    62  H    0.031518
    63  H    0.016754
    64  H    0.009486
    65  H    0.023500
    66  H    0.012684
    67  H    0.004755
    68  H    0.006563
    69  H    0.004293
    70  H    0.009337
    71  H    0.016943
    72  H    0.028953
    73  H    0.046949
    74  H    0.008740
    75  H    0.046137
    76  H    0.035240
    77  H    0.042947
    78  H    0.046629
    79  H    0.053661
    80  Mg   0.838025
    81  C   -0.016807
    82  C   -0.087358
    83  C   -0.045164
    84  C   -0.065067
    85  N   -0.254567
    86  C   -0.049846
    87  C   -0.015131
    88  C   -0.090514
    89  C    0.045683
    90  C    0.114145
    91  C    0.062549
    92  C   -0.077762
    93  H    0.034529
    94  N   -0.423668
    95  C    0.162940
    96  C   -0.173699
    97  C   -0.007564
    98  C    0.152366
    99  C    0.098953
   100  C    0.015877
   101  O   -0.253337
   102  C    0.061118
   103  N   -0.350008
   104  C    0.037709
   105  C   -0.019882
   106  C   -0.034587
   107  C    0.088811
   108  C    0.073625
   109  C    0.034843
   110  C   -0.007602
   111  N   -0.324006
   112  C    0.078303
   113  C   -0.163450
   114  C    0.002190
   115  C    0.096041
   116  C    0.131511
   117  C    0.042261
   118  O   -0.188263
   119  C    0.000943
   120  C    0.211204
   121  O   -0.251148
   122  O   -0.305596
   123  C    0.152106
   124  H   -0.018756
   125  H   -0.015583
   126  H   -0.041058
   127  H   -0.000803
   128  H   -0.004340
   129  H    0.022310
   130  H    0.015533
   131  H    0.016393
   132  H    0.013906
   133  H    0.037516
   134  H    0.020684
   135  H    0.019648
   136  H    0.009097
   137  H    0.027564
   138  H    0.039576
   139  H    0.039099
   140  H    0.036187
   141  H    0.033627
   142  H    0.014178
   143  H    0.011844
   144  H    0.024739
   145  H    0.012753
   146  H    0.004977
   147  H    0.005813
   148  H    0.003267
   149  H    0.010877
   150  H    0.017623
   151  H    0.030360
   152  H    0.045725
   153  H    0.008043
   154  H    0.046741
   155  H    0.035118
   156  H    0.043732
   157  H    0.049466
   158  H    0.053441
 Sum of Mulliken charges =  -0.00000

 Dipole moment (field-independent basis, Debye):
    X=              4.3133    Y=              1.0842    Z=              0.6069  Tot=              4.4887
 Quadrupole moment (field-independent basis, Debye-Ang):
   XX=           -521.9023   YY=           -544.0087   ZZ=           -453.3406
   XY=            -20.4623   XZ=             58.4874   YZ=             39.4810

 Normal termination of Gaussian 16 at Sat Sep  4 07:47:42 2021.
