 Gaussian 16, Revision A.03,
 Gaussian 16:  ES64L-G16RevA.03 25-Dec-2016

 -----------------------------------
 #p cam-b3lyp/Def2SVP td=(nstates=5)
 -----------------------------------

 --------------------------------
 TDDFT excited states in gaussian
 --------------------------------
 Symbolic Z-matrix:
 Charge =  0 Multiplicity = 1

                         Standard orientation:
 ---------------------------------------------------------------------
 Center     Atomic      Atomic             Coordinates (Angstroms)
 Number     Number       Type             X           Y           Z
 ---------------------------------------------------------------------
      1         12           0       -7.848460    0.625100   -0.479248
      2          6           0       -8.085577   -2.696561    0.833213
      3          6           0       -8.896764    1.744512    2.568873
      4          6           0       -8.083873    3.522933   -1.745648
      5          6           0       -7.927892   -0.786328   -3.664719
      6          7           0       -8.389174   -0.438626    1.385359
      7          6           0       -8.380110   -1.709219    1.776108
      8          6           0       -8.639384   -1.888219    3.301922
      9          6           0       -9.422433   -0.528634    3.585399
     10          6           0       -8.843401    0.322465    2.469032
     11          6           0      -10.930407   -0.641028    3.385682
     12          6           0       -7.310101   -1.966210    4.125728
     13          6           0       -7.462280   -2.463789    5.566079
     14          1           0       -6.406579   -3.285629    6.138287
     15          7           0       -7.932359    2.398774    0.386716
     16          6           0       -8.370893    2.668233    1.639858
     17          6           0       -8.235428    4.130489    1.813455
     18          6           0       -7.861308    4.712549    0.494617
     19          6           0       -7.971240    3.556353   -0.357735
     20          6           0       -8.406503    4.821998    3.131142
     21          6           0       -7.477427    6.094146    0.068050
     22          8           0       -7.416864    6.433725   -1.163044
     23          6           0       -7.257268    7.076723    1.144671
     24          7           0       -8.207287    1.301222   -2.421344
     25          6           0       -8.200359    2.607293   -2.709640
     26          6           0       -8.196549    2.839325   -4.191560
     27          6           0       -7.956073    1.410257   -4.862148
     28          6           0       -7.944498    0.545651   -3.577394
     29          6           0       -9.469835    3.468476   -4.773732
     30          6           0       -6.765127    1.286310   -5.845359
     31          6           0       -5.461465    1.438914   -5.094177
     32          7           0       -7.804029   -1.381685   -1.305010
     33          6           0       -7.869937   -1.737552   -2.659887
     34          6           0       -7.915820   -3.210164   -2.717999
     35          6           0       -7.889972   -3.610776   -1.383575
     36          6           0       -7.858135   -2.460608   -0.544294
     37          6           0       -8.031129   -3.994358   -3.899598
     38          6           0       -7.906710   -4.742399   -0.470884
     39          8           0       -7.837511   -5.965073   -0.604202
     40          6           0       -8.157018   -4.193769    1.002947
     41          6           0       -7.149256   -4.847641    1.908583
     42          8           0       -5.931873   -4.596394    1.798039
     43          8           0       -7.789830   -5.475248    2.906739
     44          6           0       -6.846295   -6.120566    3.858295
     45          1           0       -9.440678    2.195142    3.401357
     46          1           0       -8.056609    4.501904   -2.228670
     47          1           0       -7.868274   -1.299392   -4.626313
     48          1           0       -9.268352   -2.740669    3.559124
     49          1           0       -9.165441   -0.105863    4.556451
     50          1           0      -11.204645   -1.604289    2.955748
     51          1           0      -11.195062    0.168703    2.705399
     52          1           0      -11.460698   -0.436129    4.316050
     53          1           0       -6.945251   -0.956828    4.315712
     54          1           0       -6.571180   -2.579361    3.608652
     55          1           0       -8.436325   -2.926641    5.727054
     56          1           0       -7.460954   -1.598062    6.228434
     57          1           0       -8.840224    4.158520    3.878288
     58          1           0       -9.158005    5.598216    2.988173
     59          1           0       -7.477248    5.270333    3.483014
     60          1           0       -8.167094    7.170424    1.737956
     61          1           0       -6.903708    7.983987    0.656082
     62          1           0       -6.489564    6.695776    1.818806
     63          1           0       -7.388271    3.509953   -4.480298
     64          1           0       -8.817102    1.081709   -5.444694
     65          1           0       -9.290360    4.395378   -5.319027
     66          1           0      -10.172377    3.625699   -3.955805
     67          1           0      -10.043893    2.814718   -5.429838
     68          1           0       -6.802328    2.082343   -6.588254
     69          1           0       -6.744364    0.335772   -6.378555
     70          1           0       -5.338738    2.519870   -5.036685
     71          1           0       -4.644330    0.982432   -5.653754
     72          1           0       -5.544225    1.065612   -4.073255
     73          1           0       -7.328938   -4.820355   -3.787231
     74          1           0       -7.810240   -3.404895   -4.789173
     75          1           0       -9.078635   -4.290190   -3.844192
     76          1           0       -9.179532   -4.461288    1.267561
     77          1           0       -7.118902   -7.174432    3.915607
     78          1           0       -6.886258   -5.536851    4.778125
     79          1           0       -5.808113   -6.193974    3.532523
     80         12           0        8.011110    0.784841    0.359387
     81          6           0        7.929402   -2.346058   -1.392723
     82          6           0        7.004375   -0.915384    3.139728
     83          6           0        7.638081    3.580628    1.812604
     84          6           0        7.890045    2.366073   -2.743959
     85          7           0        7.558844   -1.352722    0.703711
     86          6           0        7.622364   -2.459719   -0.020771
     87          6           0        7.419776   -3.769620    0.787103
     88          6           0        6.587815   -3.165199    2.020555
     89          6           0        7.103229   -1.727993    1.982151
     90          6           0        5.087471   -3.141129    1.780323
     91          6           0        8.778158   -4.395133    1.262007
     92          6           0        8.677281   -5.829196    1.786461
     93          1           0        9.783740   -6.745520    1.524596
     94          7           0        7.888867    1.221781    2.291408
     95          6           0        7.481799    0.405595    3.286095
     96          6           0        7.553565    1.206157    4.518209
     97          6           0        7.878682    2.610183    4.147077
     98          6           0        7.792101    2.527872    2.702845
     99          6           0        7.402012    0.608525    5.886891
    100          6           0        8.200130    3.828686    4.958330
    101          8           0        8.216201    4.999586    4.437205
    102          6           0        8.403742    3.621774    6.399586
    103          7           0        7.582240    2.693563   -0.344326
    104          6           0        7.527501    3.743356    0.494038
    105          6           0        7.479408    5.046981   -0.266639
    106          6           0        7.758345    4.663701   -1.794016
    107          6           0        7.834295    3.126976   -1.659489
    108          6           0        6.167997    5.826130   -0.169060
    109          6           0        8.926557    5.402248   -2.502887
    110          6           0       10.245816    4.986317   -1.893006
    111          7           0        8.110741    0.163834   -1.707612
    112          6           0        8.014376    0.986783   -2.851100
    113          6           0        8.021314    0.096550   -4.030026
    114          6           0        8.098648   -1.194157   -3.485436
    115          6           0        8.116827   -1.115034   -2.066671
    116          6           0        7.912899    0.512316   -5.387045
    117          6           0        8.158331   -2.606131   -3.787915
    118          8           0        8.261442   -3.270133   -4.818547
    119          6           0        7.923832   -3.421261   -2.443681
    120          6           0        8.978997   -4.489844   -2.358378
    121          8           0       10.178120   -4.185370   -2.231921
    122          8           0        8.382542   -5.688137   -2.221663
    123          6           0        9.388293   -6.779144   -2.121774
    124          1           0        6.473707   -1.309809    4.006740
    125          1           0        7.616173    4.577051    2.259971
    126          1           0        7.954097    2.786910   -3.749676
    127          1           0        6.835926   -4.529429    0.281544
    128          1           0        6.864185   -3.644513    2.956094
    129          1           0        4.836697   -3.426150    0.769368
    130          1           0        4.774637   -2.123683    1.975204
    131          1           0        4.576821   -3.760921    2.522894
    132          1           0        9.107870   -3.883753    2.175519
    133          1           0        9.513279   -4.346379    0.482349
    134          1           0        7.720500   -6.297346    1.525038
    135          1           0        8.671604   -5.799614    2.878757
    136          1           0        7.006568   -0.413547    5.837993
    137          1           0        6.619544    1.178257    6.399732
    138          1           0        8.321107    0.662619    6.474256
    139          1           0        7.509589    3.177661    6.830526
    140          1           0        8.711209    4.592389    6.793589
    141          1           0        9.213378    2.896547    6.537961
    142          1           0        8.255045    5.722076    0.073555
    143          1           0        6.890207    4.880635   -2.433629
    144          1           0        6.299339    6.855357    0.215023
    145          1           0        5.486284    5.269529    0.460216
    146          1           0        5.608974    5.907741   -1.099676
    147          1           0        8.840575    6.480936   -2.350580
    148          1           0        8.960228    5.229857   -3.573463
    149          1           0       10.324467    5.630489   -1.012125
    150          1           0       11.063138    5.166916   -2.588280
    151          1           0       10.206809    3.949100   -1.540452
    152          1           0        8.640496   -0.059929   -5.947072
    153          1           0        8.082769    1.582055   -5.489891
    154          1           0        6.874089    0.240067   -5.592039
    155          1           0        6.918230   -3.841389   -2.486509
    156          1           0        9.152961   -7.503564   -2.907598
    157          1           0        9.338602   -7.136452   -1.076009
    158          1           0       10.417149   -6.535694   -2.359787
 ---------------------------------------------------------------------

 SCF Done:  E(RCAM-B3LYP) =  -4069.81182476     A.U. after   19 cycles

 Excitation energies and oscillator strengths:

 Excited State   1:      Singlet-A      1.6723 eV  741.40 nm  f=0.1543  <S**2>=0.000
     310 -> 316        0.14606
     311 -> 313       -0.36551
     312 -> 314        0.58078
 This state for optimization and/or second-order correction.
 Total Energy, E(TD-HF/TD-DFT) =  -4069.75036923
 Copying the excited state density for this state as the 1-particle RhoCI density.

 Excited State   2:      Singlet-A      1.6825 eV  736.89 nm  f=0.5986  <S**2>=0.000
     309 -> 315        0.14928
     311 -> 313        0.58015
     312 -> 314        0.36517

 Excited State   3:      Singlet-A      2.1853 eV  567.36 nm  f=0.0814  <S**2>=0.000
     310 -> 314        0.63511
     312 -> 316       -0.26910

 Excited State   4:      Singlet-A      2.1930 eV  565.37 nm  f=0.1153  <S**2>=0.000
     309 -> 313        0.63313
     311 -> 315       -0.27524

 Excited State   5:      Singlet-A      2.7636 eV  448.63 nm  f=0.0000  <S**2>=0.000
     312 -> 313        0.70710

 The electronic state is 1-A.
 Alpha  occ. eigenvalues --  -46.87838 -46.87585 -19.26364 -19.26254 -19.19098
 Alpha  occ. eigenvalues --  -19.19073 -19.18849 -19.18665 -19.18216 -19.17971
 Alpha  occ. eigenvalues --  -14.42494 -14.42417 -14.41488 -14.41286 -14.39444
 Alpha  occ. eigenvalues --  -14.39280 -14.38628 -14.38525 -10.39154 -10.39001
 Alpha  occ. eigenvalues --  -10.35482 -10.35344 -10.34438 -10.34147 -10.31772
 Alpha  occ. eigenvalues --  -10.31661 -10.31450 -10.31222 -10.30956 -10.30942
 Alpha  occ. eigenvalues --  -10.30612 -10.30547 -10.30327 -10.30284 -10.30242
 Alpha  occ. eigenvalues --  -10.30074 -10.29957 -10.29824 -10.29670 -10.29367
 Alpha  occ. eigenvalues --  -10.29332 -10.29292 -10.28809 -10.28628 -10.28616
 Alpha  occ. eigenvalues --  -10.28557 -10.28408 -10.28329 -10.28170 -10.28029
 Alpha  occ. eigenvalues --  -10.27929 -10.27832 -10.27769 -10.27623 -10.27589
 Alpha  occ. eigenvalues --  -10.27526 -10.27519 -10.27476 -10.27459 -10.27449
 Alpha  occ. eigenvalues --  -10.27412 -10.27405 -10.27400 -10.27317 -10.27213
 Alpha  occ. eigenvalues --  -10.26960 -10.26782 -10.26600 -10.26440 -10.26382
 Alpha  occ. eigenvalues --  -10.26282 -10.26201 -10.26087 -10.26055 -10.25875
 Alpha  occ. eigenvalues --  -10.25871 -10.25864 -10.25783 -10.25458 -10.25342
 Alpha  occ. eigenvalues --  -10.24874 -10.24826 -10.24799 -10.24705 -10.24684
 Alpha  occ. eigenvalues --  -10.24620  -3.16581  -3.16335  -1.91463  -1.91217
 Alpha  occ. eigenvalues --   -1.91049  -1.90891  -1.90806  -1.90643  -1.16712
 Alpha  occ. eigenvalues --   -1.16550  -1.08676  -1.08577  -1.07250  -1.06918
 Alpha  occ. eigenvalues --   -1.06857  -1.06719  -1.04626  -1.04414  -1.03800
 Alpha  occ. eigenvalues --   -1.03588  -1.03274  -1.02967  -1.02451  -1.02038
 Alpha  occ. eigenvalues --   -0.92018  -0.91907  -0.89553  -0.89427  -0.89244
 Alpha  occ. eigenvalues --   -0.89049  -0.88319  -0.88156  -0.87907  -0.87721
 Alpha  occ. eigenvalues --   -0.87718  -0.87605  -0.87311  -0.87061  -0.85036
 Alpha  occ. eigenvalues --   -0.84910  -0.83968  -0.83814  -0.83001  -0.82880
 Alpha  occ. eigenvalues --   -0.82699  -0.82571  -0.81644  -0.81513  -0.80645
 Alpha  occ. eigenvalues --   -0.80365  -0.78835  -0.78569  -0.77261  -0.77065
 Alpha  occ. eigenvalues --   -0.76988  -0.76814  -0.75976  -0.75746  -0.74934
 Alpha  occ. eigenvalues --   -0.74734  -0.72813  -0.72625  -0.71715  -0.71499
 Alpha  occ. eigenvalues --   -0.69934  -0.69698  -0.68923  -0.68742  -0.67684
 Alpha  occ. eigenvalues --   -0.67529  -0.67276  -0.67122  -0.65341  -0.65182
 Alpha  occ. eigenvalues --   -0.64901  -0.64693  -0.64669  -0.64572  -0.64304
 Alpha  occ. eigenvalues --   -0.64137  -0.62358  -0.62196  -0.60478  -0.60278
 Alpha  occ. eigenvalues --   -0.59854  -0.59704  -0.59030  -0.58917  -0.58547
 Alpha  occ. eigenvalues --   -0.58350  -0.57639  -0.57470  -0.57349  -0.57169
 Alpha  occ. eigenvalues --   -0.56352  -0.56131  -0.56045  -0.55801  -0.55562
 Alpha  occ. eigenvalues --   -0.55381  -0.55381  -0.55177  -0.54572  -0.54414
 Alpha  occ. eigenvalues --   -0.53951  -0.53814  -0.53339  -0.53271  -0.53159
 Alpha  occ. eigenvalues --   -0.53064  -0.52967  -0.52822  -0.52799  -0.52602
 Alpha  occ. eigenvalues --   -0.52465  -0.52344  -0.51950  -0.51814  -0.51670
 Alpha  occ. eigenvalues --   -0.51576  -0.51241  -0.51124  -0.50607  -0.50421
 Alpha  occ. eigenvalues --   -0.50063  -0.49958  -0.49902  -0.49804  -0.49562
 Alpha  occ. eigenvalues --   -0.49414  -0.49260  -0.49147  -0.49122  -0.49011
 Alpha  occ. eigenvalues --   -0.48643  -0.48496  -0.48488  -0.48473  -0.48311
 Alpha  occ. eigenvalues --   -0.48276  -0.47740  -0.47519  -0.47338  -0.47050
 Alpha  occ. eigenvalues --   -0.46838  -0.46634  -0.46611  -0.46464  -0.46400
 Alpha  occ. eigenvalues --   -0.46204  -0.46201  -0.46013  -0.45872  -0.45740
 Alpha  occ. eigenvalues --   -0.45235  -0.45142  -0.44625  -0.44549  -0.44435
 Alpha  occ. eigenvalues --   -0.44392  -0.44184  -0.44138  -0.44065  -0.44040
 Alpha  occ. eigenvalues --   -0.44013  -0.43869  -0.43549  -0.43471  -0.43431
 Alpha  occ. eigenvalues --   -0.43303  -0.43070  -0.42848  -0.42820  -0.42762
 Alpha  occ. eigenvalues --   -0.42693  -0.42491  -0.42050  -0.41892  -0.41748
 Alpha  occ. eigenvalues --   -0.41590  -0.41587  -0.41375  -0.41185  -0.40917
 Alpha  occ. eigenvalues --   -0.40904  -0.40864  -0.40657  -0.40619  -0.40607
 Alpha  occ. eigenvalues --   -0.40422  -0.40300  -0.40140  -0.39467  -0.39367
 Alpha  occ. eigenvalues --   -0.38505  -0.38281  -0.37812  -0.37567  -0.37356
 Alpha  occ. eigenvalues --   -0.37318  -0.37195  -0.37115  -0.36776  -0.36687
 Alpha  occ. eigenvalues --   -0.36243  -0.36141  -0.34328  -0.34177  -0.33842
 Alpha  occ. eigenvalues --   -0.33777  -0.33229  -0.33101  -0.31379  -0.31223
 Alpha  occ. eigenvalues --   -0.31078  -0.30897  -0.30077  -0.29874  -0.29488
 Alpha  occ. eigenvalues --   -0.29362  -0.29260  -0.29138  -0.24122  -0.23960
 Alpha  occ. eigenvalues --   -0.21168  -0.21043
 Alpha virt. eigenvalues --   -0.08814  -0.08720  -0.01789  -0.01612  -0.00098
 Alpha virt. eigenvalues --    0.00039   0.02159   0.02282   0.03076   0.03293
 Alpha virt. eigenvalues --    0.04667   0.04816   0.05027   0.05254   0.06105

 Mulliken charges:
               1
     1  Mg   0.838639
     2  C   -0.003125
     3  C   -0.094228
     4  C   -0.045804
     5  C   -0.063828
     6  N   -0.256775
     7  C   -0.052545
     8  C   -0.014003
     9  C   -0.086977
    10  C    0.046245
    11  C    0.104790
    12  C    0.053506
    13  C   -0.071575
    14  H    0.035392
    15  N   -0.433161
    16  C    0.168421
    17  C   -0.177177
    18  C   -0.003941
    19  C    0.148682
    20  C    0.110171
    21  C    0.012304
    22  O   -0.249531
    23  C    0.062472
    24  N   -0.341132
    25  C    0.041249
    26  C   -0.028191
    27  C   -0.024013
    28  C    0.074827
    29  C    0.076139
    30  C    0.035086
    31  C   -0.004549
    32  N   -0.310473
    33  C    0.080364
    34  C   -0.169603
    35  C    0.008329
    36  C    0.082951
    37  C    0.127302
    38  C    0.046093
    39  O   -0.188491
    40  C   -0.005353
    41  C    0.212902
    42  O   -0.257443
    43  O   -0.304658
    44  C    0.157833
    45  H   -0.017593
    46  H   -0.016729
    47  H   -0.041272
    48  H    0.000929
    49  H   -0.004145
    50  H    0.025508
    51  H    0.016576
    52  H    0.016673
    53  H    0.011118
    54  H    0.043839
    55  H    0.018054
    56  H    0.017955
    57  H    0.005808
    58  H    0.026931
    59  H    0.039553
    60  H    0.037385
    61  H    0.035774
    62  H    0.031492
    63  H    0.016603
    64  H    0.009576
    65  H    0.023303
    66  H    0.012534
    67  H    0.004861
    68  H    0.006499
    69  H    0.004935
    70  H    0.008723
    71  H    0.018427
    72  H    0.028793
    73  H    0.047633
    74  H    0.009332
    75  H    0.046068
    76  H    0.035212
    77  H    0.042994
    78  H    0.046294
    79  H    0.053237
    80  Mg   0.837945
    81  C   -0.016793
    82  C   -0.087685
    83  C   -0.045664
    84  C   -0.064914
    85  N   -0.254612
    86  C   -0.049541
    87  C   -0.015149
    88  C   -0.090572
    89  C    0.045821
    90  C    0.114324
    91  C    0.062509
    92  C   -0.077880
    93  H    0.034639
    94  N   -0.423492
    95  C    0.162883
    96  C   -0.174690
    97  C   -0.008017
    98  C    0.152160
    99  C    0.099430
   100  C    0.015414
   101  O   -0.253443
   102  C    0.061260
   103  N   -0.350050
   104  C    0.037602
   105  C   -0.019842
   106  C   -0.034813
   107  C    0.088983
   108  C    0.073675
   109  C    0.034770
   110  C   -0.007637
   111  N   -0.324155
   112  C    0.078552
   113  C   -0.163148
   114  C    0.002371
   115  C    0.096208
   116  C    0.131462
   117  C    0.042439
   118  O   -0.187772
   119  C    0.000921
   120  C    0.211211
   121  O   -0.251232
   122  O   -0.305375
   123  C    0.152080
   124  H   -0.019538
   125  H   -0.015838
   126  H   -0.040569
   127  H   -0.000117
   128  H   -0.004481
   129  H    0.023203
   130  H    0.014489
   131  H    0.016864
   132  H    0.013699
   133  H    0.037528
   134  H    0.021269
   135  H    0.019474
   136  H    0.008841
   137  H    0.025826
   138  H    0.039564
   139  H    0.038061
   140  H    0.036094
   141  H    0.033887
   142  H    0.014205
   143  H    0.012477
   144  H    0.024858
   145  H    0.011675
   146  H    0.005789
   147  H    0.006117
   148  H    0.003604
   149  H    0.010820
   150  H    0.017797
   151  H    0.030185
   152  H    0.045910
   153  H    0.008359
   154  H    0.047132
   155  H    0.035682
   156  H    0.044019
   157  H    0.049566
   158  H    0.053360
 Sum of Mulliken charges =  -0.00000

 Dipole moment (field-independent basis, Debye):
    X=             -4.4403    Y=              2.1317    Z=              6.6480  Tot=              8.2738
 Quadrupole moment (field-independent basis, Debye-Ang):
   XX=           -517.7355   YY=           -532.4489   ZZ=           -466.8324
   XY=            -21.2914   XZ=              5.4649   YZ=            -31.0590

 Normal termination of Gaussian 16 at Sat Sep  4 16:03:38 2021.
