 Gaussian 16, Revision A.03,
 Gaussian 16:  ES64L-G16RevA.03 25-Dec-2016

 -----------------------------------
 #p cam-b3lyp/Def2SVP td=(nstates=5)
 -----------------------------------

 --------------------------------
 TDDFT excited states in gaussian
 --------------------------------
 Symbolic Z-matrix:
 Charge =  0 Multiplicity = 1

                         Standard orientation:
 ---------------------------------------------------------------------
 Center     Atomic      Atomic             Coordinates (Angstroms)
 Number     Number       Type             X           Y           Z
 ---------------------------------------------------------------------
      1         12           0       -4.897173    0.841610   -0.154734
      2          6           0       -5.357235   -2.247881    1.593295
      3          6           0       -5.715365    2.434896    2.749585
      4          6           0       -4.941314    3.560699   -1.786061
      5          6           0       -5.232196   -0.957101   -3.120886
      6          7           0       -5.445163    0.080510    1.850529
      7          6           0       -5.526607   -1.124575    2.405785
      8          6           0       -5.734293   -1.080889    3.949266
      9          6           0       -6.386888    0.368397    4.074530
     10          6           0       -5.786563    1.012844    2.837509
     11          6           0       -7.906147    0.366258    3.939076
     12          6           0       -4.382188   -1.170109    4.733856
     13          6           0       -4.513822   -1.461660    6.231529
     14          1           0       -3.507661   -2.293584    6.874094
     15          7           0       -4.793790    2.712715    0.470668
     16          6           0       -5.153787    3.180039    1.690216
     17          6           0       -4.888047    4.634473    1.664082
     18          6           0       -4.523120    5.005346    0.268597
     19          6           0       -4.766758    3.763117   -0.419070
     20          6           0       -4.943392    5.503060    2.883198
     21          6           0       -4.042666    6.280327   -0.349235
     22          8           0       -4.006585    6.451084   -1.615772
     23          6           0       -3.694319    7.370251    0.580154
     24          7           0       -5.280727    1.290244   -2.157045
     25          6           0       -5.175967    2.542187   -2.616011
     26          6           0       -5.216235    2.579366   -4.114989
     27          6           0       -5.126266    1.059864   -4.597452
     28          6           0       -5.132546    0.371101   -3.210428
     29          6           0       -6.455694    3.239142   -4.735027
     30          6           0       -3.993363    0.703947   -5.592576
     31          6           0       -2.650417    0.835355   -4.909695
     32          7           0       -5.057797   -1.250987   -0.708163
     33          6           0       -5.211638   -1.771745   -2.001151
     34          6           0       -5.384112   -3.229474   -1.862058
     35          6           0       -5.334883   -3.454861   -0.487786
     36          6           0       -5.170060   -2.213301    0.190191
     37          6           0       -5.615843   -4.146419   -2.925048
     38          6           0       -5.407867   -4.452906    0.566934
     39          8           0       -5.447909   -5.683806    0.594765
     40          6           0       -5.547442   -3.698154    1.962175
     41          6           0       -4.560507   -4.316801    2.914301
     42          8           0       -3.332136   -4.191702    2.733134
     43          8           0       -5.208309   -4.750323    4.006525
     44          6           0       -4.282617   -5.348847    5.005032
     45          1           0       -6.183044    3.036156    3.531700
     46          1           0       -4.852284    4.462610   -2.395215
     47          1           0       -5.257452   -1.593460   -4.007375
     48          1           0       -6.421342   -1.833310    4.336887
     49          1           0       -6.053660    0.888528    4.972385
     50          1           0       -8.278925   -0.616134    3.649485
     51          1           0       -8.130481    1.101597    3.166131
     52          1           0       -8.376802    0.736281    4.850308
     53          1           0       -3.925617   -0.181290    4.776766
     54          1           0       -3.720552   -1.908501    4.279609
     55          1           0       -5.515645   -1.810946    6.483043
     56          1           0       -4.410980   -0.521159    6.772899
     57          1           0       -5.399078    4.983179    3.724992
     58          1           0       -5.632136    6.318265    2.662334
     59          1           0       -3.965358    5.908328    3.143083
     60          1           0       -4.566665    7.620766    1.184143
     61          1           0       -3.286751    8.171481   -0.035288
     62          1           0       -2.933268    7.012642    1.274319
     63          1           0       -4.367383    3.132132   -4.515396
     64          1           0       -6.036177    0.736973   -5.103888
     65          1           0       -6.222207    4.067983   -5.403765
     66          1           0       -7.106679    3.562926   -3.923440
     67          1           0       -7.110534    2.559939   -5.280266
     68          1           0       -3.995111    1.397347   -6.432898
     69          1           0       -4.075827   -0.305581   -5.995444
     70          1           0       -2.434531    1.899351   -4.999902
     71          1           0       -1.899519    0.239203   -5.429279
     72          1           0       -2.720469    0.606100   -3.846201
     73          1           0       -4.981704   -5.010337   -2.726349
     74          1           0       -5.384397   -3.699041   -3.891427
     75          1           0       -6.681232   -4.337851   -2.797945
     76          1           0       -6.576577   -3.836805    2.291993
     77          1           0       -4.640493   -6.357859    5.210103
     78          1           0       -4.233624   -4.649873    5.840161
     79          1           0       -3.269289   -5.556195    4.659327
     80         12           0        5.648365    0.080964    0.053726
     81          6           0        3.104982   -1.878511   -1.549606
     82          6           0        3.813968    2.843381   -0.745437
     83          6           0        8.076811    1.860969    1.054569
     84          6           0        7.777866   -2.656528   -0.288475
     85          7           0        3.724589    0.322556   -1.010679
     86          6           0        2.818280   -0.497787   -1.520569
     87          6           0        1.497694    0.192757   -1.955044
     88          6           0        2.066790    1.676625   -2.185507
     89          6           0        3.257731    1.632757   -1.230302
     90          6           0        2.591502    1.908130   -3.592780
     91          6           0        0.408647    0.164161   -0.825812
     92          6           0       -1.001892    0.542500   -1.282999
     93          1           0       -2.138654   -0.137290   -0.668083
     94          7           0        5.707060    1.993008    0.582158
     95          6           0        4.871236    2.973947    0.181643
     96          6           0        5.349701    4.201978    0.835219
     97          6           0        6.633741    3.897497    1.523141
     98          6           0        6.871434    2.547722    1.052286
     99          6           0        4.565536    5.482025    0.835687
    100          6           0        7.510070    4.694462    2.441349
    101          8           0        8.700375    4.317757    2.731346
    102          6           0        6.967991    5.975756    2.916668
    103          7           0        7.697437   -0.256607    0.152202
    104          6           0        8.525056    0.662957    0.678861
    105          6           0        9.906282    0.092726    0.896633
    106          6           0        9.769397   -1.478251    0.630374
    107          6           0        8.287452   -1.533616    0.198925
    108          6           0       11.010049    0.665057    0.007518
    109          6           0       10.245352   -2.428198    1.763407
    110          6           0        9.336528   -2.295277    2.964138
    111          7           0        5.451924   -1.971119   -0.593108
    112          6           0        6.476205   -2.939089   -0.682451
    113          6           0        5.879718   -4.150017   -1.282679
    114          6           0        4.544784   -3.791959   -1.524029
    115          6           0        4.329916   -2.445816   -1.122486
    116          6           0        6.570795   -5.358820   -1.578211
    117          6           0        3.271231   -4.243224   -2.036978
    118          8           0        2.826863   -5.319490   -2.434369
    119          6           0        2.314375   -2.983692   -2.193151
    120          6           0        0.981978   -3.334951   -1.589939
    121          8           0        0.877361   -3.548406   -0.369245
    122          8           0        0.018608   -3.148504   -2.510555
    123          6           0       -1.322631   -3.473266   -1.956077
    124          1           0        3.434093    3.784838   -1.143224
    125          1           0        8.922768    2.394773    1.493766
    126          1           0        8.351333   -3.584615   -0.337918
    127          1           0        1.067293   -0.187269   -2.873807
    128          1           0        1.349730    2.428628   -1.866615
    129          1           0        2.603556    0.997536   -4.173145
    130          1           0        3.595526    2.293547   -3.472679
    131          1           0        2.020374    2.702265   -4.082159
    132          1           0        0.603088    0.981999   -0.120063
    133          1           0        0.387040   -0.792681   -0.341467
    134          1           0       -1.096264    0.537422   -2.375706
    135          1           0       -1.190563    1.581612   -1.002518
    136          1           0        3.742555    5.449862    0.111073
    137          1           0        5.231109    6.264890    0.456222
    138          1           0        4.220418    5.764199    1.832661
    139          1           0        6.738905    6.609728    2.063404
    140          1           0        7.700806    6.356133    3.630932
    141          1           0        6.019341    5.785112    3.430799
    142          1           0       10.232653    0.249005    1.917494
    143          1           0       10.362090   -1.797237   -0.239564
    144          1           0       11.852789    1.095707    0.580574
    145          1           0       10.572218    1.410516   -0.642967
    146          1           0       11.441093   -0.037588   -0.703603
    147          1           0       11.246251   -2.145741    2.098943
    148          1           0       10.288120   -3.470092    1.464042
    149          1           0        9.737258   -1.418172    3.481051
    150          1           0        9.396057   -3.183553    3.589815
    151          1           0        8.311385   -2.057325    2.657386
    152          1           0        5.928913   -6.169930   -1.261065
    153          1           0        7.536785   -5.396762   -1.079023
    154          1           0        6.672567   -5.265161   -2.662707
    155          1           0        2.235924   -2.761930   -3.258153
    156          1           0       -1.769663   -4.221027   -2.618426
    157          1           0       -1.849238   -2.505020   -1.861494
    158          1           0       -1.359820   -3.986367   -1.002249
 ---------------------------------------------------------------------

 SCF Done:  E(RCAM-B3LYP) =  -4069.81392342     A.U. after   19 cycles

 Excitation energies and oscillator strengths:

 Excited State   1:      Singlet-A      1.6500 eV  751.40 nm  f=0.0057  <S**2>=0.000
     309 -> 315        0.12224
     310 -> 316       -0.11347
     311 -> 313        0.50273
     312 -> 314       -0.46893
 This state for optimization and/or second-order correction.
 Total Energy, E(TD-HF/TD-DFT) =  -4069.75328563
 Copying the excited state density for this state as the 1-particle RhoCI density.

 Excited State   2:      Singlet-A      1.6975 eV  730.40 nm  f=0.7024  <S**2>=0.000
     309 -> 315        0.12213
     310 -> 316        0.13078
     311 -> 313        0.46660
     312 -> 314        0.50065

 Excited State   3:      Singlet-A      2.1814 eV  568.37 nm  f=0.0856  <S**2>=0.000
     309 -> 313        0.41190
     310 -> 314        0.49512
     311 -> 315       -0.17248
     312 -> 316       -0.20713

 Excited State   4:      Singlet-A      2.1863 eV  567.09 nm  f=0.1168  <S**2>=0.000
     309 -> 313        0.49341
     310 -> 314       -0.41016
     311 -> 315       -0.21120
     312 -> 316        0.17591

 Excited State   5:      Singlet-A      2.4188 eV  512.58 nm  f=0.0000  <S**2>=0.000
     312 -> 313        0.70629

 The electronic state is 1-A.
 Alpha  occ. eigenvalues --  -46.87982 -46.87480 -19.26199 -19.25609 -19.19139
 Alpha  occ. eigenvalues --  -19.18948 -19.18582 -19.18468 -19.18343 -19.17758
 Alpha  occ. eigenvalues --  -14.42655 -14.42330 -14.41656 -14.41177 -14.39621
 Alpha  occ. eigenvalues --  -14.39174 -14.38861 -14.38405 -10.39019 -10.38442
 Alpha  occ. eigenvalues --  -10.35772 -10.35264 -10.34557 -10.33923 -10.31612
 Alpha  occ. eigenvalues --  -10.31527 -10.31111 -10.31085 -10.30850 -10.30813
 Alpha  occ. eigenvalues --  -10.30778 -10.30717 -10.30456 -10.30214 -10.30181
 Alpha  occ. eigenvalues --  -10.30161 -10.29989 -10.29909 -10.29713 -10.29528
 Alpha  occ. eigenvalues --  -10.29272 -10.29219 -10.28985 -10.28841 -10.28599
 Alpha  occ. eigenvalues --  -10.28597 -10.28509 -10.28242 -10.28199 -10.28068
 Alpha  occ. eigenvalues --  -10.27967 -10.27945 -10.27859 -10.27804 -10.27774
 Alpha  occ. eigenvalues --  -10.27733 -10.27729 -10.27603 -10.27494 -10.27381
 Alpha  occ. eigenvalues --  -10.27343 -10.27291 -10.27278 -10.27261 -10.27236
 Alpha  occ. eigenvalues --  -10.26750 -10.26714 -10.26687 -10.26650 -10.26514
 Alpha  occ. eigenvalues --  -10.26354 -10.26333 -10.26278 -10.26111 -10.26015
 Alpha  occ. eigenvalues --  -10.25850 -10.25760 -10.25677 -10.25658 -10.25276
 Alpha  occ. eigenvalues --  -10.25134 -10.25117 -10.25050 -10.24663 -10.24609
 Alpha  occ. eigenvalues --  -10.24508  -3.16684  -3.16229  -1.91563  -1.91155
 Alpha  occ. eigenvalues --   -1.91112  -1.91000  -1.90701  -1.90537  -1.16552
 Alpha  occ. eigenvalues --   -1.15920  -1.08784  -1.08334  -1.07545  -1.06838
 Alpha  occ. eigenvalues --   -1.06571  -1.06264  -1.04787  -1.04317  -1.03983
 Alpha  occ. eigenvalues --   -1.03486  -1.03485  -1.02858  -1.02657  -1.01925
 Alpha  occ. eigenvalues --   -0.92165  -0.91741  -0.89786  -0.89318  -0.89311
 Alpha  occ. eigenvalues --   -0.89018  -0.88549  -0.88139  -0.88063  -0.87874
 Alpha  occ. eigenvalues --   -0.87609  -0.87549  -0.87526  -0.86972  -0.85131
 Alpha  occ. eigenvalues --   -0.84880  -0.84212  -0.83694  -0.83265  -0.82812
 Alpha  occ. eigenvalues --   -0.82796  -0.82477  -0.81691  -0.81190  -0.80761
 Alpha  occ. eigenvalues --   -0.80107  -0.79054  -0.78466  -0.77451  -0.77075
 Alpha  occ. eigenvalues --   -0.77024  -0.76660  -0.76052  -0.75529  -0.75122
 Alpha  occ. eigenvalues --   -0.74567  -0.73019  -0.72519  -0.71870  -0.71369
 Alpha  occ. eigenvalues --   -0.70238  -0.69608  -0.69052  -0.68699  -0.67869
 Alpha  occ. eigenvalues --   -0.67406  -0.67360  -0.67145  -0.65435  -0.65112
 Alpha  occ. eigenvalues --   -0.65032  -0.64781  -0.64576  -0.64514  -0.64320
 Alpha  occ. eigenvalues --   -0.63994  -0.62362  -0.61760  -0.60706  -0.60180
 Alpha  occ. eigenvalues --   -0.59968  -0.59637  -0.59201  -0.58783  -0.58707
 Alpha  occ. eigenvalues --   -0.58180  -0.57729  -0.57490  -0.57202  -0.56970
 Alpha  occ. eigenvalues --   -0.56540  -0.56017  -0.56005  -0.55744  -0.55545
 Alpha  occ. eigenvalues --   -0.55496  -0.55163  -0.54948  -0.54652  -0.54116
 Alpha  occ. eigenvalues --   -0.54018  -0.53772  -0.53540  -0.53404  -0.53074
 Alpha  occ. eigenvalues --   -0.53024  -0.53006  -0.52942  -0.52731  -0.52562
 Alpha  occ. eigenvalues --   -0.52508  -0.52258  -0.52119  -0.51762  -0.51662
 Alpha  occ. eigenvalues --   -0.51517  -0.51377  -0.50932  -0.50855  -0.50353
 Alpha  occ. eigenvalues --   -0.50318  -0.50163  -0.49845  -0.49722  -0.49689
 Alpha  occ. eigenvalues --   -0.49407  -0.49352  -0.49231  -0.48996  -0.48921
 Alpha  occ. eigenvalues --   -0.48767  -0.48712  -0.48631  -0.48269  -0.48198
 Alpha  occ. eigenvalues --   -0.48098  -0.47895  -0.47507  -0.47401  -0.47016
 Alpha  occ. eigenvalues --   -0.46900  -0.46701  -0.46605  -0.46547  -0.46438
 Alpha  occ. eigenvalues --   -0.46374  -0.46072  -0.45974  -0.45792  -0.45496
 Alpha  occ. eigenvalues --   -0.45446  -0.45026  -0.44851  -0.44751  -0.44499
 Alpha  occ. eigenvalues --   -0.44297  -0.44240  -0.44212  -0.44174  -0.43955
 Alpha  occ. eigenvalues --   -0.43896  -0.43700  -0.43624  -0.43553  -0.43285
 Alpha  occ. eigenvalues --   -0.43218  -0.43037  -0.42976  -0.42687  -0.42643
 Alpha  occ. eigenvalues --   -0.42413  -0.42273  -0.42185  -0.41903  -0.41825
 Alpha  occ. eigenvalues --   -0.41699  -0.41428  -0.41407  -0.41300  -0.41128
 Alpha  occ. eigenvalues --   -0.41103  -0.40823  -0.40792  -0.40610  -0.40536
 Alpha  occ. eigenvalues --   -0.40327  -0.40307  -0.40025  -0.39751  -0.39288
 Alpha  occ. eigenvalues --   -0.38697  -0.38269  -0.37899  -0.37698  -0.37546
 Alpha  occ. eigenvalues --   -0.37362  -0.37114  -0.37052  -0.36790  -0.36319
 Alpha  occ. eigenvalues --   -0.36267  -0.35799  -0.34478  -0.34062  -0.33767
 Alpha  occ. eigenvalues --   -0.33379  -0.33288  -0.32915  -0.31662  -0.31251
 Alpha  occ. eigenvalues --   -0.31138  -0.30768  -0.30190  -0.29710  -0.29651
 Alpha  occ. eigenvalues --   -0.29593  -0.29155  -0.29003  -0.24288  -0.23840
 Alpha  occ. eigenvalues --   -0.21381  -0.20941
 Alpha virt. eigenvalues --   -0.09026  -0.08605  -0.02002  -0.01514  -0.00322
 Alpha virt. eigenvalues --    0.00139   0.01958   0.02207   0.02550   0.03440
 Alpha virt. eigenvalues --    0.04541   0.05100   0.05194   0.05741   0.05970

 Mulliken charges:
               1
     1  Mg   0.793739
     2  C    0.001630
     3  C   -0.093456
     4  C   -0.048263
     5  C   -0.062929
     6  N   -0.253119
     7  C   -0.054104
     8  C   -0.013935
     9  C   -0.087008
    10  C    0.048490
    11  C    0.104752
    12  C    0.053128
    13  C   -0.072452
    14  H    0.038491
    15  N   -0.432108
    16  C    0.169710
    17  C   -0.177233
    18  C   -0.004600
    19  C    0.147903
    20  C    0.110085
    21  C    0.010382
    22  O   -0.250378
    23  C    0.063029
    24  N   -0.336102
    25  C    0.043423
    26  C   -0.028279
    27  C   -0.024416
    28  C    0.073674
    29  C    0.076249
    30  C    0.046726
    31  C   -0.036127
    32  N   -0.309631
    33  C    0.076798
    34  C   -0.178651
    35  C    0.006934
    36  C    0.079166
    37  C    0.127542
    38  C    0.045473
    39  O   -0.185417
    40  C   -0.007130
    41  C    0.212479
    42  O   -0.252847
    43  O   -0.305595
    44  C    0.156642
    45  H   -0.017238
    46  H   -0.018161
    47  H   -0.042939
    48  H    0.001455
    49  H   -0.003538
    50  H    0.025891
    51  H    0.016138
    52  H    0.017170
    53  H    0.011088
    54  H    0.046763
    55  H    0.017636
    56  H    0.017545
    57  H    0.006821
    58  H    0.027277
    59  H    0.039064
    60  H    0.038489
    61  H    0.035107
    62  H    0.030193
    63  H    0.014810
    64  H    0.010353
    65  H    0.023100
    66  H    0.013244
    67  H    0.005433
    68  H    0.006094
    69  H    0.005757
    70  H    0.006847
    71  H    0.020380
    72  H    0.051099
    73  H    0.046354
    74  H    0.010130
    75  H    0.047517
    76  H    0.035776
    77  H    0.043180
    78  H    0.046025
    79  H    0.057049
    80  Mg   0.837759
    81  C   -0.015005
    82  C   -0.088090
    83  C   -0.045931
    84  C   -0.065439
    85  N   -0.254217
    86  C   -0.048712
    87  C   -0.020969
    88  C   -0.091164
    89  C    0.045128
    90  C    0.114189
    91  C    0.079468
    92  C   -0.135602
    93  H    0.079976
    94  N   -0.423328
    95  C    0.162381
    96  C   -0.174997
    97  C   -0.008411
    98  C    0.151978
    99  C    0.099341
   100  C    0.015159
   101  O   -0.253710
   102  C    0.061456
   103  N   -0.350200
   104  C    0.037378
   105  C   -0.019644
   106  C   -0.034875
   107  C    0.089263
   108  C    0.073828
   109  C    0.034834
   110  C   -0.007630
   111  N   -0.324325
   112  C    0.078937
   113  C   -0.163151
   114  C    0.002782
   115  C    0.096353
   116  C    0.131363
   117  C    0.043261
   118  O   -0.186041
   119  C    0.001105
   120  C    0.210273
   121  O   -0.246160
   122  O   -0.310201
   123  C    0.144168
   124  H   -0.019263
   125  H   -0.016171
   126  H   -0.040706
   127  H    0.001894
   128  H   -0.002420
   129  H    0.021780
   130  H    0.014201
   131  H    0.017232
   132  H    0.011726
   133  H    0.042481
   134  H    0.031866
   135  H    0.036814
   136  H    0.009079
   137  H    0.025819
   138  H    0.038171
   139  H    0.038122
   140  H    0.035745
   141  H    0.033097
   142  H    0.014006
   143  H    0.012179
   144  H    0.024678
   145  H    0.011556
   146  H    0.005366
   147  H    0.005848
   148  H    0.003625
   149  H    0.010582
   150  H    0.017746
   151  H    0.030529
   152  H    0.046835
   153  H    0.008094
   154  H    0.046601
   155  H    0.033366
   156  H    0.038905
   157  H    0.055688
   158  H    0.067775
 Sum of Mulliken charges =  -0.00000

 Dipole moment (field-independent basis, Debye):
    X=             -2.7610    Y=              7.0535    Z=              1.6039  Tot=              7.7426
 Quadrupole moment (field-independent basis, Debye-Ang):
   XX=           -486.4981   YY=           -543.8711   ZZ=           -473.9926
   XY=            -28.0806   XZ=            -21.8819   YZ=              4.2086

 Normal termination of Gaussian 16 at Fri Sep 10 17:27:15 2021.
