 Gaussian 16, Revision A.03,
 Gaussian 16:  ES64L-G16RevA.03 25-Dec-2016

 -----------------------------------
 #p cam-b3lyp/Def2SVP td=(nstates=5)
 -----------------------------------

 --------------------------------
 TDDFT excited states in gaussian
 --------------------------------
 Symbolic Z-matrix:
 Charge =  0 Multiplicity = 1

                         Standard orientation:
 ---------------------------------------------------------------------
 Center     Atomic      Atomic             Coordinates (Angstroms)
 Number     Number       Type             X           Y           Z
 ---------------------------------------------------------------------
      1         12           0        6.309317   -1.157616    0.365370
      2          6           0        6.796881    2.236042   -0.663018
      3          6           0        7.081903   -0.152235    3.533238
      4          6           0        6.329960   -4.213255    1.213463
      5          6           0        6.693097   -2.070243   -2.976109
      6          7           0        6.851082    0.818513    1.203256
      7          6           0        6.944307    2.050806    0.713426
      8          6           0        7.138684    3.138997    1.811347
      9          6           0        7.770496    2.229379    2.958259
     10          6           0        7.171670    0.890729    2.564115
     11          6           0        9.290707    2.127504    2.886971
     12          6           0        5.781509    3.773838    2.266083
     13          6           0        5.904771    5.059978    3.088279
     14          1           0        4.904745    6.102233    2.912207
     15          7           0        6.175409   -1.992621    2.150779
     16          6           0        6.518992   -1.431577    3.335037
     17          6           0        6.233760   -2.451390    4.367173
     18          6           0        5.875318   -3.717289    3.669237
     19          6           0        6.141440   -3.361050    2.298963
     20          6           0        6.267286   -2.166004    5.837268
     21          6           0        5.382699   -5.041740    4.160448
     22          8           0        5.354719   -6.077436    3.411365
     23          6           0        5.011963   -5.117480    5.585180
     24          7           0        6.703195   -2.919545   -0.682533
     25          6           0        6.585230   -4.114225   -0.092782
     26          6           0        6.637313   -5.226691   -1.097594
     27          6           0        6.571945   -4.529576   -2.532694
     28          6           0        6.576169   -3.049643   -2.076570
     29          6           0        7.872759   -6.134834   -1.027175
     30          6           0        5.452197   -5.002033   -3.493613
     31          6           0        4.102022   -4.592921   -2.948863
     32          7           0        6.502873   -0.118070   -1.530131
     33          6           0        6.674392   -0.697294   -2.795736
     34          6           0        6.865487    0.406997   -3.753908
     35          6           0        6.808025    1.558715   -2.971546
     36          6           0        6.620796    1.195644   -1.607209
     37          6           0        7.118373    0.267133   -5.147077
     38          6           0        6.885874    3.010534   -2.967439
     39          8           0        6.942388    3.878379   -3.839876
     40          6           0        7.003716    3.501727   -1.457251
     41          6           0        6.017474    4.621441   -1.265225
     42          8           0        4.789049    4.408098   -1.318364
     43          8           0        6.662098    5.709677   -0.817180
     44          6           0        5.736438    6.848950   -0.577675
     45          1           0        7.534932   -0.000934    4.514978
     46          1           0        6.233708   -5.275782    1.446297
     47          1           0        6.734275   -2.274707   -4.047534
     48          1           0        7.832672    3.935928    1.543567
     49          1           0        7.422868    2.523181    3.948490
     50          1           0        9.679152    2.592934    1.981209
     51          1           0        9.511387    1.059901    2.891115
     52          1           0        9.748788    2.531669    3.790070
     53          1           0        5.311222    3.125428    3.005309
     54          1           0        5.133713    3.955343    1.407747
     55          1           0        6.909140    5.479502    3.023851
     56          1           0        5.784726    4.805019    4.141267
     57          1           0        6.723050   -1.199191    6.047260
     58          1           0        6.946695   -2.889945    6.286737
     59          1           0        5.281738   -2.253415    6.294857
     60          1           0        5.875833   -4.855106    6.196274
     61          1           0        4.598631   -6.114140    5.735767
     62          1           0        4.250154   -4.365340    5.792258
     63          1           0        5.784357   -5.894827   -0.985850
     64          1           0        7.490288   -4.677415   -3.101434
     65          1           0        7.633550   -7.189740   -0.890582
     66          1           0        8.512594   -5.771672   -0.223425
     67          1           0        8.541218   -6.064524   -1.884868
     68          1           0        5.451442   -6.088842   -3.569724
     69          1           0        5.551665   -4.599051   -4.501563
     70          1           0        3.872463   -5.390433   -2.243094
     71          1           0        3.363582   -4.556452   -3.750478
     72          1           0        4.166433   -3.664248   -2.381496
     73          1           0        6.494405    1.008372   -5.646274
     74          1           0        6.888829   -0.740822   -5.491953
     75          1           0        8.185181    0.487522   -5.181783
     76          1           0        8.031891    3.832848   -1.314644
     77          1           0        6.106277    7.691383   -1.162277
     78          1           0        5.671098    6.973133    0.503396
     79          1           0        4.728894    6.744570   -0.981778
     80         12           0       -6.877775   -0.264277   -0.356110
     81          6           0       -4.714849    2.598036   -0.445565
     82          6           0       -8.069724    0.915816    2.613944
     83          6           0       -8.465447   -2.991183   -0.023409
     84          6           0       -4.755857   -1.766761   -2.676824
     85          7           0       -6.378460    1.535709    0.828369
     86          6           0       -5.584731    2.583339    0.664630
     87          6           0       -5.788717    3.714182    1.708251
     88          6           0       -6.419022    2.835148    2.895212
     89          6           0       -7.027446    1.705735    2.066412
     90          6           0       -5.373498    2.237612    3.822125
     91          6           0       -6.793103    4.812349    1.211026
     92          6           0       -6.804302    6.097247    2.042096
     93          1           0       -7.018012    7.368315    1.355662
     94          7           0       -8.423241   -0.717294    0.803579
     95          6           0       -8.773214   -0.121087    1.962606
     96          6           0       -9.969130   -0.834515    2.436930
     97          6           0      -10.199795   -2.005851    1.548397
     98          6           0       -9.000246   -1.961105    0.736503
     99          6           0      -10.810772   -0.342612    3.578456
    100          6           0      -11.309455   -3.008865    1.454533
    101          8           0      -11.189475   -4.083292    0.766013
    102          6           0      -12.505201   -2.741618    2.267093
    103          7           0       -6.534439   -2.190515   -1.059011
    104          6           0       -7.408724   -3.182109   -0.813487
    105          6           0       -7.095941   -4.403386   -1.644761
    106          6           0       -5.970053   -3.940355   -2.681845
    107          6           0       -5.753424   -2.492290   -2.190372
    108          6           0       -6.603104   -5.626183   -0.871284
    109          6           0       -6.263204   -4.173220   -4.189331
    110          6           0       -7.400568   -3.283800   -4.637331
    111          7           0       -5.169879    0.350215   -1.528097
    112          6           0       -4.415418   -0.445180   -2.418159
    113          6           0       -3.285083    0.381183   -2.889223
    114          6           0       -3.448671    1.602048   -2.217510
    115          6           0       -4.588175    1.534037   -1.371100
    116          6           0       -2.259713   -0.042528   -3.780976
    117          6           0       -2.910400    2.929262   -2.023941
    118          8           0       -2.005257    3.583404   -2.540235
    119          6           0       -3.633448    3.590227   -0.772251
    120          6           0       -4.053095    4.981759   -1.159648
    121          8           0       -4.914444    5.160480   -2.038712
    122          8           0       -3.531812    5.859319   -0.282996
    123          6           0       -3.929123    7.252575   -0.618887
    124          1           0       -8.348997    1.075284    3.655792
    125          1           0       -9.039964   -3.920365   -0.028979
    126          1           0       -4.105824   -2.129455   -3.475940
    127          1           0       -4.876412    4.192522    2.043909
    128          1           0       -7.196091    3.382551    3.422354
    129          1           0       -4.370314    2.405977    3.459617
    130          1           0       -5.588049    1.177745    3.863173
    131          1           0       -5.513317    2.613052    4.839880
    132          1           0       -7.819321    4.465359    1.387714
    133          1           0       -6.617584    5.050413    0.179936
    134          1           0       -5.937845    6.162839    2.711350
    135          1           0       -7.662817    6.066277    2.717381
    136          1           0      -10.301823    0.449585    4.141297
    137          1           0      -10.897408   -1.169648    4.291454
    138          1           0      -11.812105   -0.040734    3.263997
    139          1           0      -12.222299   -2.675140    3.314949
    140          1           0      -13.221335   -3.520523    1.998158
    141          1           0      -12.906794   -1.761444    1.986732
    142          1           0       -7.969042   -4.729692   -2.196411
    143          1           0       -5.021633   -4.472903   -2.518310
    144          1           0       -7.224087   -6.526777   -1.036814
    145          1           0       -6.570875   -5.374580    0.180480
    146          1           0       -5.572643   -5.914780   -1.071466
    147          1           0       -6.589546   -5.202553   -4.357075
    148          1           0       -5.403808   -3.999664   -4.828321
    149          1           0       -8.288380   -3.849680   -4.339579
    150          1           0       -7.369727   -3.136042   -5.714945
    151          1           0       -7.407242   -2.341390   -4.077432
    152          1           0       -2.103979    0.765832   -4.482969
    153          1           0       -2.531460   -0.965084   -4.289708
    154          1           0       -1.436821   -0.189399   -3.076312
    155          1           0       -2.921389    3.592448    0.053911
    156          1           0       -3.006442    7.832321   -0.720114
    157          1           0       -4.633854    7.562056    0.175667
    158          1           0       -4.392763    7.422802   -1.583507
 ---------------------------------------------------------------------

 SCF Done:  E(RCAM-B3LYP) =  -4069.81081937     A.U. after   19 cycles

 Excitation energies and oscillator strengths:

 Excited State   1:      Singlet-A      1.6662 eV  744.12 nm  f=0.1396  <S**2>=0.000
     309 -> 315       -0.11143
     310 -> 316        0.13049
     311 -> 313       -0.44481
     312 -> 314        0.52294
 This state for optimization and/or second-order correction.
 Total Energy, E(TD-HF/TD-DFT) =  -4069.74958798
 Copying the excited state density for this state as the 1-particle RhoCI density.

 Excited State   2:      Singlet-A      1.6893 eV  733.95 nm  f=0.6216  <S**2>=0.000
     309 -> 315        0.13517
     310 -> 316        0.11442
     311 -> 313        0.52184
     312 -> 314        0.44404

 Excited State   3:      Singlet-A      2.1853 eV  567.36 nm  f=0.0208  <S**2>=0.000
     309 -> 313       -0.28344
     310 -> 314        0.57706
     311 -> 315        0.11979
     312 -> 316       -0.24490

 Excited State   4:      Singlet-A      2.1931 eV  565.35 nm  f=0.1659  <S**2>=0.000
     309 -> 313        0.57461
     310 -> 314        0.28152
     311 -> 315       -0.25090
     312 -> 316       -0.12295

 Excited State   5:      Singlet-A      2.6731 eV  463.83 nm  f=0.0000  <S**2>=0.000
     312 -> 313        0.70698

 The electronic state is 1-A.
 Alpha  occ. eigenvalues --  -46.87669 -46.87519 -19.26163 -19.26019 -19.18972
 Alpha  occ. eigenvalues --  -19.18724 -19.18723 -19.18590 -19.17984 -19.17796
 Alpha  occ. eigenvalues --  -14.42364 -14.42323 -14.41331 -14.41219 -14.39280
 Alpha  occ. eigenvalues --  -14.39210 -14.38449 -14.38445 -10.38902 -10.38800
 Alpha  occ. eigenvalues --  -10.35359 -10.35270 -10.34202 -10.33978 -10.31589
 Alpha  occ. eigenvalues --  -10.31412 -10.31266 -10.31160 -10.30894 -10.30780
 Alpha  occ. eigenvalues --  -10.30431 -10.30378 -10.30242 -10.30200 -10.30107
 Alpha  occ. eigenvalues --  -10.30019 -10.29798 -10.29744 -10.29501 -10.29301
 Alpha  occ. eigenvalues --  -10.29245 -10.29139 -10.28610 -10.28605 -10.28566
 Alpha  occ. eigenvalues --  -10.28398 -10.28252 -10.28228 -10.28031 -10.27989
 Alpha  occ. eigenvalues --  -10.27833 -10.27657 -10.27605 -10.27535 -10.27462
 Alpha  occ. eigenvalues --  -10.27423 -10.27402 -10.27394 -10.27367 -10.27355
 Alpha  occ. eigenvalues --  -10.27337 -10.27317 -10.27264 -10.27255 -10.26965
 Alpha  occ. eigenvalues --  -10.26846 -10.26585 -10.26547 -10.26347 -10.26317
 Alpha  occ. eigenvalues --  -10.26131 -10.26120 -10.26033 -10.25940 -10.25904
 Alpha  occ. eigenvalues --  -10.25795 -10.25690 -10.25615 -10.25361 -10.25286
 Alpha  occ. eigenvalues --  -10.24698 -10.24688 -10.24668 -10.24655 -10.24627
 Alpha  occ. eigenvalues --  -10.24546  -3.16412  -3.16269  -1.91294  -1.91152
 Alpha  occ. eigenvalues --   -1.90880  -1.90740  -1.90722  -1.90577  -1.16456
 Alpha  occ. eigenvalues --   -1.16364  -1.08431  -1.08397  -1.07127  -1.06844
 Alpha  occ. eigenvalues --   -1.06752  -1.06355  -1.04450  -1.04357  -1.03640
 Alpha  occ. eigenvalues --   -1.03521  -1.03106  -1.02894  -1.02284  -1.01964
 Alpha  occ. eigenvalues --   -0.91822  -0.91820  -0.89418  -0.89359  -0.89054
 Alpha  occ. eigenvalues --   -0.89036  -0.88189  -0.88093  -0.87728  -0.87611
 Alpha  occ. eigenvalues --   -0.87548  -0.87546  -0.87167  -0.86988  -0.84876
 Alpha  occ. eigenvalues --   -0.84851  -0.83840  -0.83747  -0.82879  -0.82812
 Alpha  occ. eigenvalues --   -0.82527  -0.82516  -0.81432  -0.81406  -0.80448
 Alpha  occ. eigenvalues --   -0.80293  -0.78679  -0.78488  -0.77102  -0.77014
 Alpha  occ. eigenvalues --   -0.76793  -0.76765  -0.75772  -0.75698  -0.74788
 Alpha  occ. eigenvalues --   -0.74670  -0.72648  -0.72546  -0.71545  -0.71444
 Alpha  occ. eigenvalues --   -0.69829  -0.69639  -0.68744  -0.68699  -0.67509
 Alpha  occ. eigenvalues --   -0.67451  -0.67090  -0.67080  -0.65146  -0.65138
 Alpha  occ. eigenvalues --   -0.64712  -0.64627  -0.64511  -0.64480  -0.64162
 Alpha  occ. eigenvalues --   -0.64070  -0.62114  -0.62102  -0.60335  -0.60205
 Alpha  occ. eigenvalues --   -0.59671  -0.59666  -0.58855  -0.58845  -0.58365
 Alpha  occ. eigenvalues --   -0.58271  -0.57399  -0.57364  -0.57170  -0.57088
 Alpha  occ. eigenvalues --   -0.56178  -0.56050  -0.55777  -0.55730  -0.55398
 Alpha  occ. eigenvalues --   -0.55307  -0.55206  -0.55100  -0.54359  -0.54339
 Alpha  occ. eigenvalues --   -0.53794  -0.53758  -0.53180  -0.53089  -0.53085
 Alpha  occ. eigenvalues --   -0.53002  -0.52757  -0.52751  -0.52645  -0.52552
 Alpha  occ. eigenvalues --   -0.52349  -0.52278  -0.51761  -0.51678  -0.51532
 Alpha  occ. eigenvalues --   -0.51480  -0.51052  -0.51031  -0.50487  -0.50361
 Alpha  occ. eigenvalues --   -0.49945  -0.49860  -0.49811  -0.49739  -0.49387
 Alpha  occ. eigenvalues --   -0.49360  -0.49067  -0.49055  -0.48959  -0.48946
 Alpha  occ. eigenvalues --   -0.48436  -0.48402  -0.48355  -0.48304  -0.48236
 Alpha  occ. eigenvalues --   -0.48181  -0.47571  -0.47459  -0.47173  -0.46986
 Alpha  occ. eigenvalues --   -0.46677  -0.46573  -0.46433  -0.46418  -0.46234
 Alpha  occ. eigenvalues --   -0.46127  -0.46015  -0.45929  -0.45651  -0.45646
 Alpha  occ. eigenvalues --   -0.45100  -0.45078  -0.44419  -0.44400  -0.44376
 Alpha  occ. eigenvalues --   -0.44322  -0.44037  -0.43985  -0.43964  -0.43942
 Alpha  occ. eigenvalues --   -0.43866  -0.43780  -0.43400  -0.43321  -0.43265
 Alpha  occ. eigenvalues --   -0.43243  -0.42892  -0.42774  -0.42724  -0.42590
 Alpha  occ. eigenvalues --   -0.42437  -0.42427  -0.41895  -0.41837  -0.41561
 Alpha  occ. eigenvalues --   -0.41491  -0.41405  -0.41337  -0.41015  -0.40853
 Alpha  occ. eigenvalues --   -0.40755  -0.40725  -0.40605  -0.40583  -0.40464
 Alpha  occ. eigenvalues --   -0.40365  -0.40119  -0.40098  -0.39371  -0.39309
 Alpha  occ. eigenvalues --   -0.38371  -0.38230  -0.37610  -0.37537  -0.37213
 Alpha  occ. eigenvalues --   -0.37136  -0.37123  -0.37066  -0.36601  -0.36509
 Alpha  occ. eigenvalues --   -0.36074  -0.36012  -0.34154  -0.34105  -0.33681
 Alpha  occ. eigenvalues --   -0.33506  -0.33040  -0.33028  -0.31252  -0.31150
 Alpha  occ. eigenvalues --   -0.30903  -0.30830  -0.29840  -0.29699  -0.29327
 Alpha  occ. eigenvalues --   -0.29179  -0.29177  -0.29032  -0.23949  -0.23891
 Alpha  occ. eigenvalues --   -0.21002  -0.20972
 Alpha virt. eigenvalues --   -0.08646  -0.08639  -0.01631  -0.01547   0.00061
 Alpha virt. eigenvalues --    0.00113   0.02353   0.02401   0.03257   0.03357
 Alpha virt. eigenvalues --    0.04845   0.04854   0.05357   0.05357   0.06290

 Mulliken charges:
               1
     1  Mg   0.838884
     2  C   -0.002127
     3  C   -0.094255
     4  C   -0.046180
     5  C   -0.064299
     6  N   -0.256648
     7  C   -0.052327
     8  C   -0.013999
     9  C   -0.086951
    10  C    0.046226
    11  C    0.104903
    12  C    0.053465
    13  C   -0.071601
    14  H    0.036439
    15  N   -0.433003
    16  C    0.168183
    17  C   -0.177489
    18  C   -0.004361
    19  C    0.148546
    20  C    0.110310
    21  C    0.011965
    22  O   -0.250118
    23  C    0.062631
    24  N   -0.341109
    25  C    0.041043
    26  C   -0.028039
    27  C   -0.023972
    28  C    0.074914
    29  C    0.076270
    30  C    0.035234
    31  C   -0.004414
    32  N   -0.310768
    33  C    0.080852
    34  C   -0.169152
    35  C    0.008936
    36  C    0.083703
    37  C    0.127027
    38  C    0.047443
    39  O   -0.187296
    40  C   -0.005786
    41  C    0.212503
    42  O   -0.253966
    43  O   -0.305588
    44  C    0.157150
    45  H   -0.018002
    46  H   -0.017321
    47  H   -0.041624
    48  H    0.000979
    49  H   -0.004418
    50  H    0.025473
    51  H    0.016259
    52  H    0.016264
    53  H    0.010751
    54  H    0.045723
    55  H    0.017591
    56  H    0.017150
    57  H    0.005632
    58  H    0.026455
    59  H    0.038892
    60  H    0.037236
    61  H    0.035195
    62  H    0.031158
    63  H    0.016058
    64  H    0.009404
    65  H    0.022844
    66  H    0.012580
    67  H    0.004590
    68  H    0.005976
    69  H    0.004831
    70  H    0.008340
    71  H    0.017210
    72  H    0.029546
    73  H    0.048794
    74  H    0.008785
    75  H    0.045781
    76  H    0.034706
    77  H    0.042517
    78  H    0.045437
    79  H    0.056029
    80  Mg   0.837455
    81  C   -0.016704
    82  C   -0.087986
    83  C   -0.045656
    84  C   -0.065023
    85  N   -0.254426
    86  C   -0.049949
    87  C   -0.014951
    88  C   -0.090476
    89  C    0.045502
    90  C    0.114478
    91  C    0.062641
    92  C   -0.077604
    93  H    0.034752
    94  N   -0.423394
    95  C    0.162592
    96  C   -0.175039
    97  C   -0.008130
    98  C    0.151868
    99  C    0.099542
   100  C    0.015315
   101  O   -0.253578
   102  C    0.061311
   103  N   -0.350033
   104  C    0.037276
   105  C   -0.019700
   106  C   -0.034847
   107  C    0.089166
   108  C    0.073729
   109  C    0.034776
   110  C   -0.007613
   111  N   -0.324309
   112  C    0.078646
   113  C   -0.163223
   114  C    0.003301
   115  C    0.095966
   116  C    0.131930
   117  C    0.043188
   118  O   -0.183557
   119  C    0.000565
   120  C    0.211754
   121  O   -0.251314
   122  O   -0.305478
   123  C    0.152126
   124  H   -0.020300
   125  H   -0.015926
   126  H   -0.040407
   127  H   -0.000704
   128  H   -0.004726
   129  H    0.022427
   130  H    0.014262
   131  H    0.015441
   132  H    0.013802
   133  H    0.037926
   134  H    0.020415
   135  H    0.019233
   136  H    0.008344
   137  H    0.025610
   138  H    0.039392
   139  H    0.038001
   140  H    0.036028
   141  H    0.033759
   142  H    0.014146
   143  H    0.012388
   144  H    0.024814
   145  H    0.011562
   146  H    0.005640
   147  H    0.005969
   148  H    0.003575
   149  H    0.010782
   150  H    0.017799
   151  H    0.030302
   152  H    0.047237
   153  H    0.007557
   154  H    0.048502
   155  H    0.035839
   156  H    0.044147
   157  H    0.048639
   158  H    0.053637
 Sum of Mulliken charges =  -0.00000

 Dipole moment (field-independent basis, Debye):
    X=              0.4021    Y=             -0.3499    Z=              8.0190  Tot=              8.0367
 Quadrupole moment (field-independent basis, Debye-Ang):
   XX=           -483.8891   YY=           -514.3868   ZZ=           -479.5625
   XY=            -22.8226   XZ=             -2.5133   YZ=             59.5399

 Normal termination of Gaussian 16 at Sat Sep 11 13:11:51 2021.
