 Gaussian 16, Revision A.03,
 Gaussian 16:  ES64L-G16RevA.03 25-Dec-2016

 -----------------------------------
 #p cam-b3lyp/Def2SVP td=(nstates=5)
 -----------------------------------

 --------------------------------
 TDDFT excited states in gaussian
 --------------------------------
 Symbolic Z-matrix:
 Charge =  0 Multiplicity = 1

                         Standard orientation:
 ---------------------------------------------------------------------
 Center     Atomic      Atomic             Coordinates (Angstroms)
 Number     Number       Type             X           Y           Z
 ---------------------------------------------------------------------
      1         12           0       -6.612681   -0.518532    0.208763
      2          6           0       -6.662861    3.041919    0.573291
      3          6           0       -7.551098   -0.050237   -3.038256
      4          6           0       -7.016287   -3.656112   -0.013309
      5          6           0       -6.795853   -0.728956    3.682642
      6          7           0       -7.021996    1.311828   -0.967199
      7          6           0       -6.947058    2.617048   -0.726464
      8          6           0       -7.124605    3.491984   -2.003311
      9          6           0       -7.942367    2.460847   -2.903322
     10          6           0       -7.450370    1.161041   -2.291468
     11          6           0       -9.453145    2.551855   -2.714189
     12          6           0       -5.754642    3.866688   -2.662497
     13          6           0       -5.817749    4.978700   -3.713592
     14          1           0       -4.705779    5.911929   -3.813361
     15          7           0       -6.719349   -1.687246   -1.380444
     16          6           0       -7.105670   -1.325265   -2.627445
     17          6           0       -7.015796   -2.548672   -3.453205
     18          6           0       -6.728329   -3.691902   -2.542995
     19          6           0       -6.837193   -3.053403   -1.256198
     20          6           0       -7.147539   -2.545773   -4.945313
     21          6           0       -6.416899   -5.133673   -2.792870
     22          8           0       -6.429181   -6.004337   -1.856726
     23          6           0       -6.180651   -5.521226   -4.195379
     24          7           0       -7.090741   -1.991378    1.608699
     25          6           0       -7.146010   -3.281786    1.261170
     26          6           0       -7.223252   -4.169410    2.467858
     27          6           0       -6.963427   -3.224833    3.728817
     28          6           0       -6.857189   -1.868208    2.989525
     29          6           0       -8.545792   -4.924453    2.659719
     30          6           0       -5.818256   -3.633130    4.689179
     31          6           0       -4.485906   -3.494768    3.987184
     32          7           0       -6.534857    0.877431    1.868967
     33          6           0       -6.653828    0.573079    3.232744
     34          6           0       -6.648257    1.853846    3.963273
     35          6           0       -6.542423    2.821362    2.965998
     36          6           0       -6.511926    2.186505    1.691511
     37          6           0       -6.792290    2.011510    5.369982
     38          6           0       -6.472819    4.244993    2.679143
     39          8           0       -6.365262    5.263318    3.363934
     40          6           0       -6.670747    4.450720    1.112513
     41          6           0       -5.596497    5.391154    0.638297
     42          8           0       -4.396055    5.050408    0.652404
     43          8           0       -6.163931    6.441924    0.026381
     44          6           0       -5.151856    7.399451   -0.494194
     45          1           0       -8.069852   -0.036517   -3.998801
     46          1           0       -7.048745   -4.747370   -0.036577
     47          1           0       -6.764504   -0.719999    4.773692
     48          1           0       -7.708429    4.400464   -1.854184
     49          1           0       -7.653912    2.518769   -3.952684
     50          1           0       -9.712442    3.222802   -1.895338
     51          1           0       -9.780394    1.535939   -2.492116
     52          1           0       -9.944467    2.827612   -3.647643
     53          1           0       -5.418339    3.039470   -3.287535
     54          1           0       -5.019833    4.131329   -1.901348
     55          1           0       -6.765052    5.516722   -3.668235
     56          1           0       -5.815890    4.516189   -4.700648
     57          1           0       -7.519469   -1.590124   -5.312668
     58          1           0       -7.933201   -3.257893   -5.196967
     59          1           0       -6.219317   -2.832508   -5.439802
     60          1           0       -7.063193   -5.281049   -4.788662
     61          1           0       -5.885058   -6.569523   -4.171970
     62          1           0       -5.367381   -4.915896   -4.596773
     63          1           0       -6.455304   -4.941180    2.435412
     64          1           0       -7.839247   -3.154145    4.374276
     65          1           0       -8.427454   -6.006626    2.719729
     66          1           0       -9.212787   -4.648663    1.843417
     67          1           0       -9.126806   -4.615271    3.528192
     68          1           0       -5.921037   -4.678277    4.979095
     69          1           0       -5.788626   -3.037260    5.601490
     70          1           0       -4.400390   -4.432995    3.440146
     71          1           0       -3.680877   -3.392836    4.715709
     72          1           0       -4.504821   -2.689690    3.252353
     73          1           0       -6.055512    2.756387    5.670457
     74          1           0       -6.637038    1.067678    5.892171
     75          1           0       -7.824230    2.357014    5.429839
     76          1           0       -7.668549    4.866006    0.974484
     77          1           0       -5.382352    8.374770   -0.065406
     78          1           0       -5.168229    7.307587   -1.580333
     79          1           0       -4.128857    7.257278   -0.144051
     80         12           0        6.607856   -1.049083   -0.129862
     81          6           0        7.180804    2.478548    0.196705
     82          6           0        5.128219   -0.379704   -3.129398
     83          6           0        5.689198   -4.084051   -0.241491
     84          6           0        7.077229   -1.303371    3.314085
     85          7           0        6.260544    0.844722   -1.218498
     86          6           0        6.576875    2.116333   -1.025386
     87          6           0        6.299248    3.040046   -2.241628
     88          6           0        5.160708    2.161287   -2.956041
     89          6           0        5.554845    0.780643   -2.435343
     90          6           0        3.758667    2.475931   -2.461460
     91          6           0        7.557649    3.208835   -3.163554
     92          6           0        7.453691    4.335707   -4.193649
     93          1           0        8.660169    5.088248   -4.526161
     94          7           0        6.010593   -2.154431   -1.666115
     95          6           0        5.452336   -1.717655   -2.814526
     96          6           0        5.175054   -2.923052   -3.610957
     97          6           0        5.463682   -4.117031   -2.770817
     98          6           0        5.718046   -3.484328   -1.492115
     99          6           0        4.761286   -2.868222   -5.052907
    100          6           0        5.491934   -5.586131   -3.066003
    101          8           0        5.533852   -6.460381   -2.129642
    102          6           0        5.374851   -5.973180   -4.479494
    103          7           0        6.201281   -2.454405    1.347327
    104          6           0        5.871865   -3.718148    1.027393
    105          6           0        5.895993   -4.612760    2.243733
    106          6           0        6.548008   -3.734317    3.410266
    107          6           0        6.713333   -2.396117    2.657086
    108          6           0        4.539394   -5.144755    2.705254
    109          6           0        7.785101   -4.332737    4.134273
    110          6           0        8.957820   -4.399429    3.182606
    111          7           0        7.228862    0.278603    1.457476
    112          6           0        7.332444   -0.025739    2.832516
    113          6           0        7.681003    1.228495    3.530971
    114          6           0        7.733853    2.187841    2.508541
    115          6           0        7.419246    1.578855    1.263691
    116          6           0        7.854426    1.377775    4.935877
    117          6           0        7.973845    3.579376    2.200768
    118          8           0        8.363575    4.555739    2.839949
    119          6           0        7.502598    3.855346    0.708063
    120          6           0        8.591712    4.624506    0.011830
    121          8           0        9.701507    4.102515   -0.194275
    122          8           0        8.077318    5.763613   -0.486366
    123          6           0        9.116952    6.555834   -1.195849
    124          1           0        4.445761   -0.259194   -3.971190
    125          1           0        5.485708   -5.157386   -0.237866
    126          1           0        7.336831   -1.319195    4.374751
    127          1           0        5.909670    4.018924   -1.989028
    128          1           0        5.252088    2.200986   -4.038369
    129          1           0        3.770396    3.157381   -1.623817
    130          1           0        3.329304    1.526171   -2.170536
    131          1           0        3.142178    2.845481   -3.285911
    132          1           0        7.626824    2.344682   -3.836746
    133          1           0        8.445917    3.337112   -2.576050
    134          1           0        6.623027    5.017959   -3.975809
    135          1           0        7.194895    3.898667   -5.161139
    136          1           0        4.470454   -1.852952   -5.349610
    137          1           0        3.839056   -3.452321   -5.143369
    138          1           0        5.513548   -3.289385   -5.723276
    139          1           0        4.443956   -5.583653   -4.884665
    140          1           0        5.505157   -7.056956   -4.497475
    141          1           0        6.186227   -5.496792   -5.041041
    142          1           0        6.516359   -5.483630    2.071026
    143          1           0        5.835563   -3.549003    4.227528
    144          1           0        4.496469   -6.249334    2.751386
    145          1           0        3.777969   -4.762132    2.038637
    146          1           0        4.204427   -4.777273    3.673738
    147          1           0        7.580677   -5.359547    4.447357
    148          1           0        8.077437   -3.778222    5.019733
    149          1           0        8.780369   -5.331174    2.637222
    150          1           0        9.895932   -4.436595    3.732708
    151          1           0        8.921717   -3.579875    2.455506
    152          1           0        8.734476    1.990922    5.077536
    153          1           0        7.957504    0.413150    5.428467
    154          1           0        6.915602    1.873625    5.196689
    155          1           0        6.570527    4.419566    0.757800
    156          1           0        9.126982    7.550705   -0.739975
    157          1           0        8.857008    6.496309   -2.269457
    158          1           0       10.150183    6.254571   -1.068822
 ---------------------------------------------------------------------

 SCF Done:  E(RCAM-B3LYP) =  -4069.81163671     A.U. after   19 cycles

 Excitation energies and oscillator strengths:

 Excited State   1:      Singlet-A      1.6655 eV  744.44 nm  f=0.0202  <S**2>=0.000
     309 -> 315       -0.10967
     310 -> 316        0.13165
     311 -> 313       -0.43782
     312 -> 314        0.52893
 This state for optimization and/or second-order correction.
 Total Energy, E(TD-HF/TD-DFT) =  -4069.75043222
 Copying the excited state density for this state as the 1-particle RhoCI density.

 Excited State   2:      Singlet-A      1.6889 eV  734.10 nm  f=0.7256  <S**2>=0.000
     309 -> 315        0.13719
     310 -> 316        0.11277
     311 -> 313        0.52774
     312 -> 314        0.43691

 Excited State   3:      Singlet-A      2.1844 eV  567.58 nm  f=0.0413  <S**2>=0.000
     309 -> 313       -0.19609
     310 -> 314        0.61257
     312 -> 316       -0.25887

 Excited State   4:      Singlet-A      2.1934 eV  565.26 nm  f=0.1476  <S**2>=0.000
     309 -> 313        0.61006
     310 -> 314        0.19431
     311 -> 315       -0.26589

 Excited State   5:      Singlet-A      2.6419 eV  469.30 nm  f=0.0000  <S**2>=0.000
     312 -> 313        0.70709

 The electronic state is 1-A.
 Alpha  occ. eigenvalues --  -46.87881 -46.87554 -19.26376 -19.26248 -19.19114
 Alpha  occ. eigenvalues --  -19.19061 -19.18891 -19.18633 -19.18244 -19.17938
 Alpha  occ. eigenvalues --  -14.42538 -14.42390 -14.41530 -14.41254 -14.39487
 Alpha  occ. eigenvalues --  -14.39250 -14.38669 -14.38492 -10.39172 -10.38988
 Alpha  occ. eigenvalues --  -10.35526 -10.35313 -10.34465 -10.34114 -10.31774
 Alpha  occ. eigenvalues --  -10.31666 -10.31492 -10.31197 -10.31002 -10.30920
 Alpha  occ. eigenvalues --  -10.30653 -10.30586 -10.30293 -10.30286 -10.30255
 Alpha  occ. eigenvalues --  -10.30044 -10.29994 -10.29788 -10.29712 -10.29337
 Alpha  occ. eigenvalues --  -10.29337 -10.29302 -10.28857 -10.28685 -10.28608
 Alpha  occ. eigenvalues --  -10.28582 -10.28450 -10.28300 -10.28217 -10.28020
 Alpha  occ. eigenvalues --  -10.27897 -10.27873 -10.27814 -10.27668 -10.27585
 Alpha  occ. eigenvalues --  -10.27566 -10.27564 -10.27510 -10.27489 -10.27425
 Alpha  occ. eigenvalues --  -10.27411 -10.27377 -10.27371 -10.27280 -10.27241
 Alpha  occ. eigenvalues --  -10.26931 -10.26841 -10.26605 -10.26497 -10.26360
 Alpha  occ. eigenvalues --  -10.26323 -10.26241 -10.26098 -10.26057 -10.25904
 Alpha  occ. eigenvalues --  -10.25859 -10.25832 -10.25735 -10.25489 -10.25297
 Alpha  occ. eigenvalues --  -10.24912 -10.24865 -10.24766 -10.24744 -10.24656
 Alpha  occ. eigenvalues --  -10.24586  -3.16624  -3.16304  -1.91506  -1.91186
 Alpha  occ. eigenvalues --   -1.91092  -1.90934  -1.90775  -1.90612  -1.16725
 Alpha  occ. eigenvalues --   -1.16542  -1.08702  -1.08544  -1.07292  -1.06886
 Alpha  occ. eigenvalues --   -1.06845  -1.06735  -1.04669  -1.04388  -1.03842
 Alpha  occ. eigenvalues --   -1.03558  -1.03315  -1.02935  -1.02493  -1.02006
 Alpha  occ. eigenvalues --   -0.92055  -0.91878  -0.89592  -0.89397  -0.89291
 Alpha  occ. eigenvalues --   -0.89038  -0.88357  -0.88124  -0.87946  -0.87763
 Alpha  occ. eigenvalues --   -0.87685  -0.87582  -0.87361  -0.87039  -0.85082
 Alpha  occ. eigenvalues --   -0.84896  -0.84004  -0.83782  -0.83049  -0.82855
 Alpha  occ. eigenvalues --   -0.82741  -0.82554  -0.81673  -0.81495  -0.80683
 Alpha  occ. eigenvalues --   -0.80343  -0.78882  -0.78544  -0.77304  -0.77045
 Alpha  occ. eigenvalues --   -0.77026  -0.76797  -0.76013  -0.75729  -0.74969
 Alpha  occ. eigenvalues --   -0.74703  -0.72854  -0.72595  -0.71754  -0.71472
 Alpha  occ. eigenvalues --   -0.69973  -0.69667  -0.68968  -0.68726  -0.67724
 Alpha  occ. eigenvalues --   -0.67503  -0.67327  -0.67112  -0.65384  -0.65167
 Alpha  occ. eigenvalues --   -0.64937  -0.64707  -0.64668  -0.64552  -0.64343
 Alpha  occ. eigenvalues --   -0.64107  -0.62383  -0.62178  -0.60524  -0.60251
 Alpha  occ. eigenvalues --   -0.59899  -0.59687  -0.59068  -0.58889  -0.58585
 Alpha  occ. eigenvalues --   -0.58323  -0.57668  -0.57445  -0.57386  -0.57139
 Alpha  occ. eigenvalues --   -0.56392  -0.56106  -0.56071  -0.55789  -0.55604
 Alpha  occ. eigenvalues --   -0.55412  -0.55360  -0.55149  -0.54601  -0.54391
 Alpha  occ. eigenvalues --   -0.53998  -0.53804  -0.53380  -0.53315  -0.53132
 Alpha  occ. eigenvalues --   -0.53044  -0.53001  -0.52849  -0.52804  -0.52585
 Alpha  occ. eigenvalues --   -0.52503  -0.52315  -0.51985  -0.51773  -0.51717
 Alpha  occ. eigenvalues --   -0.51563  -0.51277  -0.51099  -0.50664  -0.50404
 Alpha  occ. eigenvalues --   -0.50105  -0.50004  -0.49880  -0.49774  -0.49606
 Alpha  occ. eigenvalues --   -0.49393  -0.49299  -0.49188  -0.49099  -0.48990
 Alpha  occ. eigenvalues --   -0.48677  -0.48535  -0.48524  -0.48452  -0.48279
 Alpha  occ. eigenvalues --   -0.48251  -0.47782  -0.47499  -0.47380  -0.47028
 Alpha  occ. eigenvalues --   -0.46879  -0.46656  -0.46609  -0.46452  -0.46439
 Alpha  occ. eigenvalues --   -0.46239  -0.46174  -0.45983  -0.45902  -0.45715
 Alpha  occ. eigenvalues --   -0.45271  -0.45109  -0.44659  -0.44596  -0.44411
 Alpha  occ. eigenvalues --   -0.44375  -0.44223  -0.44182  -0.44103  -0.44019
 Alpha  occ. eigenvalues --   -0.43988  -0.43847  -0.43578  -0.43474  -0.43453
 Alpha  occ. eigenvalues --   -0.43282  -0.43108  -0.42831  -0.42796  -0.42783
 Alpha  occ. eigenvalues --   -0.42728  -0.42462  -0.42089  -0.41870  -0.41785
 Alpha  occ. eigenvalues --   -0.41633  -0.41562  -0.41360  -0.41225  -0.40963
 Alpha  occ. eigenvalues --   -0.40911  -0.40879  -0.40645  -0.40637  -0.40603
 Alpha  occ. eigenvalues --   -0.40394  -0.40353  -0.40137  -0.39506  -0.39337
 Alpha  occ. eigenvalues --   -0.38545  -0.38253  -0.37861  -0.37561  -0.37397
 Alpha  occ. eigenvalues --   -0.37363  -0.37167  -0.37097  -0.36799  -0.36672
 Alpha  occ. eigenvalues --   -0.36276  -0.36117  -0.34369  -0.34148  -0.33862
 Alpha  occ. eigenvalues --   -0.33761  -0.33269  -0.33072  -0.31421  -0.31191
 Alpha  occ. eigenvalues --   -0.31118  -0.30868  -0.30103  -0.29841  -0.29532
 Alpha  occ. eigenvalues --   -0.29401  -0.29231  -0.29104  -0.24164  -0.23929
 Alpha  occ. eigenvalues --   -0.21210  -0.21013
 Alpha virt. eigenvalues --   -0.08857  -0.08689  -0.01831  -0.01581  -0.00142
 Alpha virt. eigenvalues --    0.00066   0.02124   0.02316   0.03024   0.03320
 Alpha virt. eigenvalues --    0.04622   0.04836   0.05007   0.05269   0.06059

 Mulliken charges:
               1
     1  Mg   0.838504
     2  C   -0.003143
     3  C   -0.094547
     4  C   -0.045690
     5  C   -0.063812
     6  N   -0.256762
     7  C   -0.052609
     8  C   -0.013931
     9  C   -0.086942
    10  C    0.046159
    11  C    0.104797
    12  C    0.053632
    13  C   -0.071536
    14  H    0.035369
    15  N   -0.433145
    16  C    0.168265
    17  C   -0.177433
    18  C   -0.004006
    19  C    0.148671
    20  C    0.110237
    21  C    0.012334
    22  O   -0.249203
    23  C    0.062557
    24  N   -0.341120
    25  C    0.041203
    26  C   -0.028232
    27  C   -0.024033
    28  C    0.074871
    29  C    0.076097
    30  C    0.035081
    31  C   -0.004525
    32  N   -0.310513
    33  C    0.080445
    34  C   -0.169513
    35  C    0.008476
    36  C    0.082985
    37  C    0.127269
    38  C    0.046231
    39  O   -0.188054
    40  C   -0.005378
    41  C    0.212999
    42  O   -0.257385
    43  O   -0.304709
    44  C    0.157650
    45  H   -0.017678
    46  H   -0.016583
    47  H   -0.041250
    48  H    0.001115
    49  H   -0.004385
    50  H    0.025623
    51  H    0.016611
    52  H    0.016666
    53  H    0.010552
    54  H    0.043890
    55  H    0.018323
    56  H    0.017612
    57  H    0.005685
    58  H    0.027021
    59  H    0.038841
    60  H    0.037353
    61  H    0.035980
    62  H    0.030839
    63  H    0.016789
    64  H    0.009617
    65  H    0.023434
    66  H    0.012539
    67  H    0.004872
    68  H    0.006573
    69  H    0.004796
    70  H    0.009061
    71  H    0.018083
    72  H    0.028816
    73  H    0.047843
    74  H    0.009245
    75  H    0.046181
    76  H    0.035295
    77  H    0.043342
    78  H    0.046082
    79  H    0.053605
    80  Mg   0.838155
    81  C   -0.016717
    82  C   -0.087752
    83  C   -0.045468
    84  C   -0.064703
    85  N   -0.254591
    86  C   -0.049373
    87  C   -0.015142
    88  C   -0.090673
    89  C    0.045986
    90  C    0.114432
    91  C    0.062573
    92  C   -0.077645
    93  H    0.034476
    94  N   -0.423477
    95  C    0.162946
    96  C   -0.174828
    97  C   -0.007924
    98  C    0.152110
    99  C    0.099556
   100  C    0.015488
   101  O   -0.253211
   102  C    0.061290
   103  N   -0.349984
   104  C    0.037572
   105  C   -0.019837
   106  C   -0.034810
   107  C    0.089016
   108  C    0.073646
   109  C    0.034730
   110  C   -0.007609
   111  N   -0.324194
   112  C    0.078669
   113  C   -0.162907
   114  C    0.002514
   115  C    0.096252
   116  C    0.131384
   117  C    0.042681
   118  O   -0.187666
   119  C    0.000767
   120  C    0.211153
   121  O   -0.251288
   122  O   -0.305382
   123  C    0.152135
   124  H   -0.020099
   125  H   -0.015670
   126  H   -0.040493
   127  H   -0.000240
   128  H   -0.005024
   129  H    0.023891
   130  H    0.014950
   131  H    0.015827
   132  H    0.013653
   133  H    0.037588
   134  H    0.020915
   135  H    0.019188
   136  H    0.008339
   137  H    0.025531
   138  H    0.039375
   139  H    0.037894
   140  H    0.036194
   141  H    0.033681
   142  H    0.014176
   143  H    0.012521
   144  H    0.024915
   145  H    0.012080
   146  H    0.005583
   147  H    0.006076
   148  H    0.003601
   149  H    0.010823
   150  H    0.017740
   151  H    0.030158
   152  H    0.045849
   153  H    0.008296
   154  H    0.047735
   155  H    0.036014
   156  H    0.043930
   157  H    0.049287
   158  H    0.053368
 Sum of Mulliken charges =  -0.00000

 Dipole moment (field-independent basis, Debye):
    X=             -5.1619    Y=             -1.4861    Z=             -7.0621  Tot=              8.8728
 Quadrupole moment (field-independent basis, Debye-Ang):
   XX=           -530.9655   YY=           -544.6847   ZZ=           -452.3680
   XY=            -11.0767   XZ=              5.9806   YZ=            -51.5488

 Normal termination of Gaussian 16 at Sat Sep 11 05:30:16 2021.
