 Gaussian 16, Revision A.03,
 Gaussian 16:  ES64L-G16RevA.03 25-Dec-2016

 -----------------------------------
 #p cam-b3lyp/Def2SVP td=(nstates=5)
 -----------------------------------

 --------------------------------
 TDDFT excited states in gaussian
 --------------------------------
 Symbolic Z-matrix:
 Charge =  0 Multiplicity = 1

                         Standard orientation:
 ---------------------------------------------------------------------
 Center     Atomic      Atomic             Coordinates (Angstroms)
 Number     Number       Type             X           Y           Z
 ---------------------------------------------------------------------
      1         12           0        4.679160   -0.398337    0.550077
      2          6           0        4.887306    2.671210   -1.279341
      3          6           0        5.159369    1.433657    3.388433
      4          6           0        4.952915   -3.130303    2.136910
      5          6           0        5.348626   -2.055420   -2.441837
      6          7           0        4.971514    1.770564    0.883308
      7          6           0        4.970724    2.847280    0.103658
      8          6           0        4.990807    4.186449    0.899645
      9          6           0        5.640870    3.662273    2.257827
     10          6           0        5.202292    2.209934    2.192363
     11          6           0        7.165225    3.715239    2.263885
     12          6           0        3.552794    4.758996    1.136370
     13          6           0        3.498890    6.213176    1.613665
     14          1           0        2.412489    7.062720    1.149603
     15          7           0        4.523461   -0.778737    2.482408
     16          6           0        4.738986    0.090544    3.498866
     17          6           0        4.495882   -0.669637    4.743738
     18          6           0        4.306822   -2.099881    4.373940
     19          6           0        4.616834   -2.063899    2.967535
     20          6           0        4.413893   -0.029986    6.095727
     21          6           0        3.919963   -3.309295    5.165009
     22          8           0        4.039316   -4.493772    4.698809
     23          6           0        3.474963   -3.073381    6.550419
     24          7           0        5.307331   -2.308795   -0.009554
     25          6           0        5.273902   -3.327488    0.856546
     26          6           0        5.495530   -4.639832    0.164756
     27          6           0        5.446262   -4.328271   -1.400573
     28          6           0        5.276527   -2.790589   -1.329904
     29          6           0        6.808707   -5.360073    0.500659
     30          6           0        4.437766   -5.143455   -2.248411
     31          6           0        3.023796   -4.765396   -1.867809
     32          7           0        4.880309    0.158607   -1.538080
     33          6           0        5.183050   -0.691040   -2.611914
     34          6           0        5.319884    0.158221   -3.809453
     35          6           0        5.102172    1.453126   -3.342906
     36          6           0        4.871554    1.417856   -1.937964
     37          6           0        5.667366   -0.290636   -5.114145
     38          6           0        5.035097    2.860868   -3.700147
     39          8           0        5.056661    3.488567   -4.759875
     40          6           0        5.014053    3.717908   -2.358184
     41          6           0        3.911879    4.733992   -2.485050
     42          8           0        2.716014    4.379266   -2.523019
     43          8           0        4.417626    5.963502   -2.303202
     44          6           0        3.370877    7.016801   -2.387057
     45          1           0        5.536271    1.870748    4.315167
     46          1           0        4.949042   -4.106996    2.625269
     47          1           0        5.473202   -2.510932   -3.425932
     48          1           0        5.616850    4.965074    0.463485
     49          1           0        5.207830    4.149890    3.130998
     50          1           0        7.558425    3.984037    1.283548
     51          1           0        7.490190    2.712628    2.542568
     52          1           0        7.526690    4.377080    3.051341
     53          1           0        3.106320    4.264006    1.998754
     54          1           0        2.942083    4.651112    0.239308
     55          1           0        4.458682    6.712730    1.478927
     56          1           0        3.342685    6.212990    2.692461
     57          1           0        4.758183    1.003177    6.071516
     58          1           0        5.134049   -0.541392    6.734121
     59          1           0        3.416565   -0.111054    6.528273
     60          1           0        4.270847   -2.574812    7.104085
     61          1           0        3.154459   -4.042010    6.932371
     62          1           0        2.631327   -2.382686    6.537522
     63          1           0        4.708025   -5.350385    0.412496
     64          1           0        6.406769   -4.508504   -1.883912
     65          1           0        6.667770   -6.368920    0.889335
     66          1           0        7.360655   -4.741965    1.208182
     67          1           0        7.516434   -5.428915   -0.325052
     68          1           0        4.549433   -6.208829   -2.049780
     69          1           0        4.556170   -4.991941   -3.321386
     70          1           0        2.833221   -5.385495   -0.992599
     71          1           0        2.334096   -5.009070   -2.676603
     72          1           0        2.962004   -3.724579   -1.549429
     73          1           0        5.003503    0.231362   -5.803183
     74          1           0        5.559844   -1.371463   -5.202766
     75          1           0        6.707194    0.031376   -5.168199
     76          1           0        5.994024    4.185825   -2.269680
     77          1           0        3.689165    7.725477   -3.151717
     78          1           0        3.229702    7.394692   -1.374302
     79          1           0        2.404351    6.705291   -2.784710
     80         12           0       -4.250037   -0.927351   -0.359292
     81          6           0       -6.932154    1.381047    0.237859
     82          6           0       -2.252366    1.775536   -0.940927
     83          6           0       -1.989280   -2.931638   -1.328446
     84          6           0       -6.665310   -3.390559   -0.854040
     85          7           0       -4.655221    1.246791   -0.324794
     86          6           0       -5.696420    2.008403   -0.024458
     87          6           0       -5.377219    3.524264    0.074605
     88          6           0       -4.071406    3.556603   -0.859572
     89          6           0       -3.603064    2.114640   -0.674983
     90          6           0       -4.388669    3.771205   -2.330155
     91          6           0       -5.045069    3.970516    1.541764
     92          6           0       -5.026967    5.484315    1.765001
     93          1           0       -5.501073    6.004936    3.044312
     94          7           0       -2.293921   -0.657826   -0.558222
     95          6           0       -1.650422    0.510068   -0.766081
     96          6           0       -0.222177    0.170877   -0.862304
     97          6           0       -0.090843   -1.311499   -0.858881
     98          6           0       -1.484778   -1.699823   -0.937729
     99          6           0        0.862217    1.208900   -0.866025
    100          6           0        1.093981   -2.227892   -0.807683
    101          8           0        0.987282   -3.480924   -1.055411
    102          6           0        2.398109   -1.599598   -0.550777
    103          7           0       -4.316498   -2.825148   -1.205642
    104          6           0       -3.186106   -3.498035   -1.483783
    105          6           0       -3.479367   -4.939425   -1.825519
    106          6           0       -5.026188   -5.156235   -1.482105
    107          6           0       -5.397609   -3.715671   -1.067146
    108          6           0       -3.218530   -5.345585   -3.275830
    109          6           0       -5.375644   -6.318152   -0.512306
    110          6           0       -4.850196   -6.011097    0.871533
    111          7           0       -6.395121   -1.068082   -0.142915
    112          6           0       -7.209790   -2.185521   -0.428805
    113          6           0       -8.612068   -1.762830   -0.235531
    114          6           0       -8.516347   -0.411629    0.129981
    115          6           0       -7.151947   -0.014437    0.142611
    116          6           0       -9.762143   -2.574973   -0.445030
    117          6           0       -9.259893    0.771850    0.497689
    118          8           0      -10.441992    1.015928    0.736020
    119          6           0       -8.275226    2.019024    0.460947
    120          6           0       -8.475325    2.806268    1.726930
    121          8           0       -8.177530    2.315490    2.830137
    122          8           0       -8.778103    4.078708    1.411353
    123          6           0       -8.975054    4.901847    2.634251
    124          1           0       -1.599227    2.539462   -1.363676
    125          1           0       -1.242758   -3.692989   -1.566185
    126          1           0       -7.471246   -4.126488   -0.893391
    127          1           0       -6.140964    4.176785   -0.331214
    128          1           0       -3.328374    4.250910   -0.475910
    129          1           0       -5.451398    3.748450   -2.520539
    130          1           0       -3.892380    2.967689   -2.858468
    131          1           0       -3.925295    4.696382   -2.684650
    132          1           0       -3.994855    3.736108    1.758241
    133          1           0       -5.715614    3.510125    2.241071
    134          1           0       -5.489626    6.029196    0.933126
    135          1           0       -3.988098    5.823063    1.762460
    136          1           0        0.455413    2.215022   -1.026150
    137          1           0        1.480697    1.022040   -1.750577
    138          1           0        1.494031    1.161180    0.023463
    139          1           0        2.600053   -0.858854   -1.320829
    140          1           0        3.107552   -2.424633   -0.462060
    141          1           0        2.344308   -1.058194    0.400329
    142          1           0       -2.886607   -5.609847   -1.215370
    143          1           0       -5.615143   -5.385704   -2.382279
    144          1           0       -2.510826   -6.190569   -3.371918
    145          1           0       -2.852503   -4.480156   -3.812100
    146          1           0       -4.105744   -5.613198   -3.847167
    147          1           0       -4.884496   -7.240056   -0.833287
    148          1           0       -6.438973   -6.524352   -0.450712
    149          1           0       -3.803783   -6.325339    0.813524
    150          1           0       -5.392639   -6.581792    1.622604
    151          1           0       -4.860119   -4.932309    1.065874
    152          1           0      -10.429533   -2.389964    0.386150
    153          1           0       -9.497607   -3.627897   -0.516759
    154          1           0      -10.112855   -2.173887   -1.399708
    155          1           0       -8.519324    2.603085   -0.427240
    156          1           0       -9.968450    5.354643    2.558029
    157          1           0       -8.109623    5.589748    2.673912
    158          1           0       -9.051988    4.381395    3.581704
 ---------------------------------------------------------------------

 SCF Done:  E(RCAM-B3LYP) =  -4069.79375312     A.U. after   19 cycles

 Excitation energies and oscillator strengths:

 Excited State   1:      Singlet-A      1.6469 eV  752.83 nm  f=0.3639  <S**2>=0.000
     310 -> 316       -0.11884
     311 -> 313        0.42318
     312 -> 314        0.54108
 This state for optimization and/or second-order correction.
 Total Energy, E(TD-HF/TD-DFT) =  -4069.73323051
 Copying the excited state density for this state as the 1-particle RhoCI density.

 Excited State   2:      Singlet-A      1.6819 eV  737.16 nm  f=0.4445  <S**2>=0.000
     309 -> 315       -0.12919
     311 -> 313        0.53666
     312 -> 314       -0.41966

 Excited State   3:      Singlet-A      2.1670 eV  572.14 nm  f=0.0062  <S**2>=0.000
     309 -> 313        0.53150
     310 -> 314       -0.36791
     311 -> 315        0.19820
     312 -> 316       -0.13097

 Excited State   4:      Singlet-A      2.1863 eV  567.09 nm  f=0.1648  <S**2>=0.000
     309 -> 313        0.36238
     310 -> 314        0.52677
     311 -> 315        0.15466
     312 -> 316        0.20849

 Excited State   5:      Singlet-A      2.3053 eV  537.83 nm  f=0.0001  <S**2>=0.000
     312 -> 313        0.70313

 The electronic state is 1-A.
 Alpha  occ. eigenvalues --  -46.87966 -46.87564 -19.26852 -19.26305 -19.19725
 Alpha  occ. eigenvalues --  -19.19113 -19.18980 -19.18929 -19.18448 -19.17968
 Alpha  occ. eigenvalues --  -14.42644 -14.42393 -14.41342 -14.41245 -14.39543
 Alpha  occ. eigenvalues --  -14.39285 -14.38698 -14.38504 -10.39696 -10.39040
 Alpha  occ. eigenvalues --  -10.35976 -10.35555 -10.34685 -10.34146 -10.32218
 Alpha  occ. eigenvalues --  -10.31730 -10.31679 -10.31144 -10.31134 -10.30900
 Alpha  occ. eigenvalues --  -10.30829 -10.30726 -10.30372 -10.30202 -10.30089
 Alpha  occ. eigenvalues --  -10.30046 -10.30010 -10.29869 -10.29838 -10.29391
 Alpha  occ. eigenvalues --  -10.29332 -10.29322 -10.29073 -10.28978 -10.28610
 Alpha  occ. eigenvalues --  -10.28586 -10.28570 -10.28393 -10.28294 -10.27977
 Alpha  occ. eigenvalues --  -10.27945 -10.27891 -10.27887 -10.27809 -10.27643
 Alpha  occ. eigenvalues --  -10.27618 -10.27510 -10.27462 -10.27457 -10.27402
 Alpha  occ. eigenvalues --  -10.27391 -10.27336 -10.27169 -10.27104 -10.27095
 Alpha  occ. eigenvalues --  -10.26973 -10.26961 -10.26672 -10.26613 -10.26474
 Alpha  occ. eigenvalues --  -10.26462 -10.26097 -10.26082 -10.25970 -10.25821
 Alpha  occ. eigenvalues --  -10.25767 -10.25762 -10.25383 -10.25206 -10.25057
 Alpha  occ. eigenvalues --  -10.24967 -10.24775 -10.24707 -10.24671 -10.24617
 Alpha  occ. eigenvalues --  -10.22243  -3.16676  -3.16314  -1.91567  -1.91196
 Alpha  occ. eigenvalues --   -1.91146  -1.90989  -1.90784  -1.90622  -1.17209
 Alpha  occ. eigenvalues --   -1.16597  -1.08936  -1.08580  -1.07687  -1.07318
 Alpha  occ. eigenvalues --   -1.07279  -1.06897  -1.04809  -1.04387  -1.03923
 Alpha  occ. eigenvalues --   -1.03581  -1.03433  -1.02948  -1.02588  -1.02013
 Alpha  occ. eigenvalues --   -0.92226  -0.91890  -0.89521  -0.89410  -0.89317
 Alpha  occ. eigenvalues --   -0.89000  -0.88148  -0.88077  -0.87973  -0.87815
 Alpha  occ. eigenvalues --   -0.87698  -0.87550  -0.87448  -0.87203  -0.85243
 Alpha  occ. eigenvalues --   -0.84920  -0.83853  -0.83705  -0.83454  -0.82954
 Alpha  occ. eigenvalues --   -0.82608  -0.82558  -0.81849  -0.81535  -0.80766
 Alpha  occ. eigenvalues --   -0.80434  -0.78963  -0.78543  -0.77369  -0.77034
 Alpha  occ. eigenvalues --   -0.76942  -0.76809  -0.76111  -0.75676  -0.74714
 Alpha  occ. eigenvalues --   -0.74673  -0.72888  -0.72571  -0.71822  -0.71476
 Alpha  occ. eigenvalues --   -0.69697  -0.69475  -0.69097  -0.68674  -0.67862
 Alpha  occ. eigenvalues --   -0.67635  -0.67489  -0.67251  -0.65556  -0.65180
 Alpha  occ. eigenvalues --   -0.65088  -0.64769  -0.64680  -0.64598  -0.64138
 Alpha  occ. eigenvalues --   -0.63891  -0.62509  -0.62204  -0.60777  -0.60411
 Alpha  occ. eigenvalues --   -0.60001  -0.59673  -0.59127  -0.58904  -0.58646
 Alpha  occ. eigenvalues --   -0.58334  -0.57954  -0.57495  -0.57394  -0.57302
 Alpha  occ. eigenvalues --   -0.56562  -0.56353  -0.56250  -0.55941  -0.55729
 Alpha  occ. eigenvalues --   -0.55668  -0.55416  -0.55189  -0.54668  -0.54440
 Alpha  occ. eigenvalues --   -0.54178  -0.53886  -0.53797  -0.53469  -0.53392
 Alpha  occ. eigenvalues --   -0.53284  -0.53123  -0.53042  -0.52873  -0.52794
 Alpha  occ. eigenvalues --   -0.52376  -0.52045  -0.51905  -0.51827  -0.51757
 Alpha  occ. eigenvalues --   -0.51653  -0.51315  -0.51123  -0.50676  -0.50622
 Alpha  occ. eigenvalues --   -0.50359  -0.50131  -0.49804  -0.49724  -0.49603
 Alpha  occ. eigenvalues --   -0.49493  -0.49454  -0.49332  -0.49126  -0.49007
 Alpha  occ. eigenvalues --   -0.48856  -0.48789  -0.48569  -0.48452  -0.48369
 Alpha  occ. eigenvalues --   -0.48186  -0.47696  -0.47615  -0.47315  -0.47058
 Alpha  occ. eigenvalues --   -0.46851  -0.46689  -0.46628  -0.46576  -0.46432
 Alpha  occ. eigenvalues --   -0.46180  -0.46089  -0.45990  -0.45804  -0.45735
 Alpha  occ. eigenvalues --   -0.45174  -0.45057  -0.44869  -0.44619  -0.44441
 Alpha  occ. eigenvalues --   -0.44418  -0.44286  -0.44239  -0.44073  -0.43994
 Alpha  occ. eigenvalues --   -0.43942  -0.43875  -0.43720  -0.43479  -0.43359
 Alpha  occ. eigenvalues --   -0.43273  -0.43169  -0.42890  -0.42785  -0.42743
 Alpha  occ. eigenvalues --   -0.42435  -0.42410  -0.41981  -0.41885  -0.41812
 Alpha  occ. eigenvalues --   -0.41532  -0.41478  -0.41319  -0.41214  -0.41047
 Alpha  occ. eigenvalues --   -0.40920  -0.40865  -0.40607  -0.40556  -0.40432
 Alpha  occ. eigenvalues --   -0.40404  -0.40205  -0.39602  -0.39359  -0.38557
 Alpha  occ. eigenvalues --   -0.38277  -0.38187  -0.37948  -0.37566  -0.37509
 Alpha  occ. eigenvalues --   -0.37184  -0.37166  -0.37111  -0.36775  -0.36710
 Alpha  occ. eigenvalues --   -0.36147  -0.36092  -0.34460  -0.34311  -0.34154
 Alpha  occ. eigenvalues --   -0.33804  -0.33373  -0.33058  -0.31453  -0.31224
 Alpha  occ. eigenvalues --   -0.31012  -0.30859  -0.30298  -0.29875  -0.29613
 Alpha  occ. eigenvalues --   -0.29524  -0.29258  -0.29118  -0.24222  -0.23929
 Alpha  occ. eigenvalues --   -0.21328  -0.21003
 Alpha virt. eigenvalues --   -0.08979  -0.08708  -0.02012  -0.01638  -0.00301
 Alpha virt. eigenvalues --   -0.00101   0.01893   0.02231   0.03294   0.04399
 Alpha virt. eigenvalues --    0.04431   0.04786   0.04906   0.05220   0.06082

 Mulliken charges:
               1
     1  Mg   0.612979
     2  C   -0.003736
     3  C   -0.093080
     4  C   -0.039174
     5  C   -0.035983
     6  N   -0.247994
     7  C   -0.058132
     8  C   -0.012810
     9  C   -0.086655
    10  C    0.046593
    11  C    0.104868
    12  C    0.051558
    13  C   -0.071505
    14  H    0.033596
    15  N   -0.423450
    16  C    0.169606
    17  C   -0.178493
    18  C   -0.003876
    19  C    0.151884
    20  C    0.110531
    21  C    0.013474
    22  O   -0.246832
    23  C    0.062187
    24  N   -0.323429
    25  C    0.036662
    26  C   -0.021503
    27  C   -0.016985
    28  C    0.037730
    29  C    0.078141
    30  C    0.066331
    31  C    0.032206
    32  N   -0.307248
    33  C    0.061857
    34  C   -0.168143
    35  C    0.008003
    36  C    0.076107
    37  C    0.128161
    38  C    0.043808
    39  O   -0.188636
    40  C   -0.006334
    41  C    0.214991
    42  O   -0.263106
    43  O   -0.302911
    44  C    0.157479
    45  H   -0.018435
    46  H   -0.014891
    47  H   -0.041600
    48  H    0.000967
    49  H   -0.004111
    50  H    0.025817
    51  H    0.017650
    52  H    0.017095
    53  H    0.011200
    54  H    0.040760
    55  H    0.019439
    56  H    0.019264
    57  H    0.006024
    58  H    0.027696
    59  H    0.040485
    60  H    0.037274
    61  H    0.036979
    62  H    0.031911
    63  H    0.020217
    64  H    0.006191
    65  H    0.023065
    66  H    0.010075
    67  H    0.004685
    68  H   -0.004261
    69  H   -0.006573
    70  H   -0.001562
    71  H    0.005685
    72  H   -0.005265
    73  H    0.046093
    74  H    0.011378
    75  H    0.046168
    76  H    0.036365
    77  H    0.044771
    78  H    0.047145
    79  H    0.051185
    80  Mg   0.838295
    81  C   -0.016498
    82  C   -0.088351
    83  C   -0.047089
    84  C   -0.065328
    85  N   -0.254233
    86  C   -0.050131
    87  C   -0.015216
    88  C   -0.089775
    89  C    0.043861
    90  C    0.114084
    91  C    0.062562
    92  C   -0.077334
    93  H    0.033320
    94  N   -0.423512
    95  C    0.160349
    96  C   -0.179026
    97  C    0.011928
    98  C    0.152897
    99  C    0.086133
   100  C    0.057782
   101  O   -0.248249
   102  C   -0.067713
   103  N   -0.350503
   104  C    0.038113
   105  C   -0.020004
   106  C   -0.034758
   107  C    0.089257
   108  C    0.073476
   109  C    0.034812
   110  C   -0.007607
   111  N   -0.323973
   112  C    0.078340
   113  C   -0.163614
   114  C    0.002342
   115  C    0.095789
   116  C    0.131557
   117  C    0.042111
   118  O   -0.188374
   119  C    0.000989
   120  C    0.211253
   121  O   -0.251427
   122  O   -0.305438
   123  C    0.152200
   124  H   -0.009681
   125  H   -0.016921
   126  H   -0.040893
   127  H   -0.000857
   128  H   -0.003178
   129  H    0.021368
   130  H    0.016415
   131  H    0.017967
   132  H    0.013703
   133  H    0.037006
   134  H    0.021068
   135  H    0.019346
   136  H    0.021759
   137  H    0.047214
   138  H    0.051372
   139  H    0.120327
   140  H    0.135744
   141  H    0.098486
   142  H    0.013912
   143  H    0.012367
   144  H    0.023817
   145  H    0.012062
   146  H    0.005994
   147  H    0.005877
   148  H    0.003571
   149  H    0.011063
   150  H    0.017782
   151  H    0.030192
   152  H    0.045589
   153  H    0.008249
   154  H    0.046812
   155  H    0.035226
   156  H    0.043753
   157  H    0.049380
   158  H    0.053190
 Sum of Mulliken charges =  -0.00000

 Dipole moment (field-independent basis, Debye):
    X=              4.3004    Y=              2.9000    Z=              2.3650  Tot=              5.7006
 Quadrupole moment (field-independent basis, Debye-Ang):
   XX=           -552.8867   YY=           -470.2048   ZZ=           -511.8357
   XY=             14.6567   XZ=             36.4802   YZ=             37.4675

 Normal termination of Gaussian 16 at Thu Sep  9 12:51:40 2021.
