 Gaussian 16, Revision A.03,
 Gaussian 16:  ES64L-G16RevA.03 25-Dec-2016

 -----------------------------------
 #p cam-b3lyp/Def2SVP td=(nstates=5)
 -----------------------------------

 --------------------------------
 TDDFT excited states in gaussian
 --------------------------------
 Symbolic Z-matrix:
 Charge =  0 Multiplicity = 1

                         Standard orientation:
 ---------------------------------------------------------------------
 Center     Atomic      Atomic             Coordinates (Angstroms)
 Number     Number       Type             X           Y           Z
 ---------------------------------------------------------------------
      1         12           0       15.671202    0.658919    0.249732
      2          6           0       15.957863   -2.641917   -1.104713
      3          6           0       16.607405    1.836178   -2.813052
      4          6           0       15.866376    3.548827    1.540839
      5          6           0       15.873170   -0.782367    3.416365
      6          7           0       16.188306   -0.371351   -1.640187
      7          6           0       16.201279   -1.637701   -2.044364
      8          6           0       16.423606   -1.794349   -3.578446
      9          6           0       17.163517   -0.412075   -3.868012
     10          6           0       16.593298    0.412282   -2.727306
     11          6           0       18.678738   -0.487314   -3.710071
     12          6           0       15.074922   -1.898421   -4.367083
     13          6           0       15.200725   -2.377175   -5.816332
     14          1           0       14.151350   -3.220269   -6.368919
     15          7           0       15.686028    2.442907   -0.598806
     16          6           0       16.083367    2.736419   -1.860256
     17          6           0       15.905746    4.196359   -2.014222
     18          6           0       15.552693    4.755038   -0.679559
     19          6           0       15.715340    3.593458    0.156895
     20          6           0       16.023226    4.905471   -3.328417
     21          6           0       15.145169    6.121783   -0.227825
     22          8           0       15.109302    6.447110    1.008076
     23          6           0       14.870750    7.109237   -1.287386
     24          7           0       16.065066    1.324298    2.188747
     25          6           0       16.032423    2.626742    2.491330
     26          6           0       16.062830    2.843480    3.975257
     27          6           0       15.877392    1.401890    4.636456
     28          6           0       15.853198    0.550415    3.343136
     29          6           0       17.334855    3.499507    4.529867
     30          6           0       14.717112    1.237052    5.649865
     31          6           0       13.390077    1.363410    4.935644
     32          7           0       15.700713   -1.356656    1.054488
     33          6           0       15.812441   -1.724483    2.403152
     34          6           0       15.897678   -3.195923    2.443972
     35          6           0       15.845959   -3.583449    1.106439
     36          6           0       15.761862   -2.426000    0.280890
     37          6           0       16.065071   -3.988863    3.613442
     38          6           0       15.867000   -4.704895    0.181359
     39          8           0       15.832857   -5.930248    0.303164
     40          6           0       16.063095   -4.134958   -1.292597
     41          6           0       15.048274   -4.805506   -2.177929
     42          8           0       13.828285   -4.587087   -2.032026
     43          8           0       15.677458   -5.406065   -3.199690
     44          6           0       14.725355   -6.065928   -4.132554
     45          1           0       17.116803    2.309239   -3.654877
     46          1           0       15.827089    4.521787    2.035051
     47          1           0       15.852834   -1.306581    4.373569
     48          1           0       17.067051   -2.627517   -3.861701
     49          1           0       16.869526    0.013757   -4.827156
     50          1           0       18.989173   -1.447463   -3.298165
     51          1           0       18.940859    0.322039   -3.028357
     52          1           0       19.178179   -0.259244   -4.652048
     53          1           0       14.679258   -0.896968   -4.536205
     54          1           0       14.366276   -2.535787   -3.837071
     55          1           0       16.181612   -2.812919   -6.008419
     56          1           0       15.159216   -1.505068   -6.468947
     57          1           0       16.453427    4.261126   -4.094114
     58          1           0       16.758150    5.699439   -3.197223
     59          1           0       15.073570    5.333094   -3.650322
     60          1           0       15.761453    7.232568   -1.903818
     61          1           0       14.507387    8.001989   -0.779635
     62          1           0       14.095088    6.715380   -1.944785
     63          1           0       15.245723    3.489921    4.292867
     64          1           0       16.762048    1.089885    5.192073
     65          1           0       17.146488    4.415832    5.089843
     66          1           0       18.010698    3.683245    3.695141
     67          1           0       17.943085    2.854219    5.163174
     68          1           0       14.753987    2.026169    6.400118
     69          1           0       14.735224    0.280910    6.173043
     70          1           0       13.238123    2.441345    4.893240
     71          1           0       12.600402    0.880189    5.511944
     72          1           0       13.454690    1.002808    3.908864
     73          1           0       15.381532   -4.831622    3.510971
     74          1           0       15.853316   -3.414431    4.514991
     75          1           0       17.117941   -4.256821    3.526727
     76          1           0       17.084591   -4.373130   -1.587452
     77          1           0       15.023278   -7.111723   -4.208634
     78          1           0       14.725368   -5.472027   -5.046714
     79          1           0       13.698613   -6.169579   -3.779857
     80         12           0      -16.055654    0.187460   -0.560958
     81          6           0      -14.823499   -1.186894    2.516706
     82          6           0      -15.518412    3.278389    0.777752
     83          6           0      -17.549375    1.425341   -3.071717
     84          6           0      -17.533829   -2.905479   -1.188998
     85          7           0      -15.268197    0.833003    1.402565
     86          6           0      -14.774145    0.221897    2.468776
     87          6           0      -14.121425    1.171006    3.509317
     88          6           0      -14.907299    2.519412    3.131095
     89          6           0      -15.224990    2.215118    1.668514
     90          6           0      -16.219027    2.681978    3.880957
     91          6           0      -12.575568    1.326266    3.289666
     92          6           0      -11.824752    1.987766    4.447438
     93          1           0      -10.472610    1.528548    4.752925
     94          7           0      -16.034839    2.034972   -1.285422
     95          6           0      -15.774530    3.172168   -0.606974
     96          6           0      -15.905440    4.263146   -1.585127
     97          6           0      -16.425360    3.692524   -2.857446
     98          6           0      -16.716062    2.336008   -2.438601
     99          6           0      -15.476584    5.672128   -1.294815
    100          6           0      -16.639089    4.275276   -4.221601
    101          8           0      -17.324387    3.663425   -5.115384
    102          6           0      -16.101598    5.624572   -4.449673
    103          7           0      -17.527407   -0.549989   -1.830786
    104          6           0      -17.964013    0.173394   -2.876729
    105          6           0      -18.814819   -0.663742   -3.801787
    106          6           0      -18.659124   -2.168892   -3.284222
    107          6           0      -17.777666   -1.919033   -2.040841
    108          6           0      -20.297334   -0.295712   -3.857257
    109          6           0      -18.190597   -3.225135   -4.322256
    110          6           0      -16.761372   -2.949126   -4.730297
    111          7           0      -16.024715   -1.766857    0.359776
    112          6           0      -16.736809   -2.914859   -0.051436
    113          6           0      -16.484094   -3.967293    0.954026
    114          6           0      -15.654483   -3.346566    1.900034
    115          6           0      -15.424006   -1.996175    1.522108
    116          6           0      -17.034542   -5.279902    0.940704
    117          6           0      -14.929968   -3.523504    3.137961
    118          8           0      -14.686809   -4.479582    3.873156
    119          6           0      -14.462635   -2.096222    3.658416
    120          6           0      -13.012131   -2.194598    4.044261
    121          8           0      -12.142756   -2.417097    3.183272
    122          8           0      -12.867910   -1.796402    5.321372
    123          6           0      -11.444544   -1.865693    5.746892
    124          1           0      -15.602420    4.286939    1.183513
    125          1           0      -18.001526    1.769500   -4.004772
    126          1           0      -17.879102   -3.926662   -1.364042
    127          1           0      -14.309039    0.908968    4.543676
    128          1           0      -14.259532    3.388837    3.207680
    129          1           0      -16.464261    1.803367    4.458930
    130          1           0      -16.971143    2.858435    3.123184
    131          1           0      -16.192354    3.586402    4.495479
    132          1           0      -12.398743    2.069781    2.501848
    133          1           0      -12.126135    0.379351    3.061622
    134          1           0      -12.431096    2.031773    5.360331
    135          1           0      -11.647583    3.035477    4.192602
    136          1           0      -15.288617    5.822971   -0.224625
    137          1           0      -16.333224    6.318679   -1.513912
    138          1           0      -14.629116    5.988968   -1.906443
    139          1           0      -16.542940    6.314729   -3.734586
    140          1           0      -16.274343    5.833025   -5.507299
    141          1           0      -15.024358    5.610442   -4.249763
    142          1           0      -18.452762   -0.603295   -4.820782
    143          1           0      -19.613338   -2.574136   -2.916675
    144          1           0      -20.649567   -0.055722   -4.878252
    145          1           0      -20.466947    0.539221   -3.190432
    146          1           0      -20.975436   -1.049486   -3.460773
    147          1           0      -18.792133   -3.154958   -5.231861
    148          1           0      -18.266668   -4.246284   -3.963848
    149          1           0      -16.869171   -2.182932   -5.503875
    150          1           0      -16.295977   -3.848744   -5.127955
    151          1           0      -16.194729   -2.505332   -3.903485
    152          1           0      -16.231062   -5.957087    1.198279
    153          1           0      -17.463351   -5.521379   -0.029647
    154          1           0      -17.800532   -5.178036    1.714101
    155          1           0      -15.095179   -1.833828    4.507305
    156          1           0      -11.409304   -2.491963    6.643672
    157          1           0      -11.112831   -0.815655    5.852444
    158          1           0      -10.752003   -2.387717    5.097023
 ---------------------------------------------------------------------

 SCF Done:  E(RCAM-B3LYP) =  -4069.81174900     A.U. after   19 cycles

 Excitation energies and oscillator strengths:

 Excited State   1:      Singlet-A      1.6753 eV  740.06 nm  f=0.2111  <S**2>=0.000
     310 -> 316        0.16844
     311 -> 313        0.66600
     312 -> 314       -0.16467
     310 <- 316        0.10154
 This state for optimization and/or second-order correction.
 Total Energy, E(TD-HF/TD-DFT) =  -4069.75018208
 Copying the excited state density for this state as the 1-particle RhoCI density.

 Excited State   2:      Singlet-A      1.6801 eV  737.95 nm  f=0.5663  <S**2>=0.000
     309 -> 315        0.17045
     311 -> 313        0.16462
     312 -> 314        0.66563
     309 <- 315        0.10204

 Excited State   3:      Singlet-A      2.1861 eV  567.16 nm  f=0.0974  <S**2>=0.000
     310 -> 313        0.64219
     311 -> 316       -0.27295

 Excited State   4:      Singlet-A      2.1925 eV  565.50 nm  f=0.1031  <S**2>=0.000
     309 -> 314        0.64042
     312 -> 315       -0.27813

 Excited State   5:      Singlet-A      3.0620 eV  404.91 nm  f=0.0000  <S**2>=0.000
     312 -> 313        0.70711

 The electronic state is 1-A.
 Alpha  occ. eigenvalues --  -46.87770 -46.87660 -19.26338 -19.26249 -19.19151
 Alpha  occ. eigenvalues --  -19.18985 -19.18792 -19.18715 -19.18140 -19.18048
 Alpha  occ. eigenvalues --  -14.42497 -14.42423 -14.41424 -14.41359 -14.39377
 Alpha  occ. eigenvalues --  -14.39352 -14.38599 -14.38560 -10.39081 -10.39045
 Alpha  occ. eigenvalues --  -10.35426 -10.35393 -10.34360 -10.34225 -10.31741
 Alpha  occ. eigenvalues --  -10.31641 -10.31377 -10.31307 -10.31022 -10.30882
 Alpha  occ. eigenvalues --  -10.30543 -10.30481 -10.30397 -10.30359 -10.30182
 Alpha  occ. eigenvalues --  -10.30142 -10.29895 -10.29895 -10.29604 -10.29437
 Alpha  occ. eigenvalues --  -10.29400 -10.29229 -10.28719 -10.28715 -10.28643
 Alpha  occ. eigenvalues --  -10.28504 -10.28404 -10.28338 -10.28138 -10.28088
 Alpha  occ. eigenvalues --  -10.28000 -10.27766 -10.27700 -10.27668 -10.27558
 Alpha  occ. eigenvalues --  -10.27520 -10.27482 -10.27478 -10.27468 -10.27465
 Alpha  occ. eigenvalues --  -10.27457 -10.27427 -10.27378 -10.27376 -10.27128
 Alpha  occ. eigenvalues --  -10.27046 -10.26685 -10.26672 -10.26417 -10.26390
 Alpha  occ. eigenvalues --  -10.26207 -10.26161 -10.26139 -10.26024 -10.25993
 Alpha  occ. eigenvalues --  -10.25935 -10.25850 -10.25816 -10.25415 -10.25402
 Alpha  occ. eigenvalues --  -10.24872 -10.24806 -10.24762 -10.24732 -10.24690
 Alpha  occ. eigenvalues --  -10.24664  -3.16513  -3.16410  -1.91394  -1.91292
 Alpha  occ. eigenvalues --   -1.90981  -1.90881  -1.90823  -1.90718  -1.16632
 Alpha  occ. eigenvalues --   -1.16598  -1.08655  -1.08597  -1.07194  -1.06968
 Alpha  occ. eigenvalues --   -1.06935  -1.06608  -1.04554  -1.04494  -1.03734
 Alpha  occ. eigenvalues --   -1.03663  -1.03207  -1.03039  -1.02385  -1.02111
 Alpha  occ. eigenvalues --   -0.91985  -0.91944  -0.89495  -0.89495  -0.89159
 Alpha  occ. eigenvalues --   -0.89148  -0.88262  -0.88221  -0.87843  -0.87793
 Alpha  occ. eigenvalues --   -0.87683  -0.87646  -0.87249  -0.87120  -0.84997
 Alpha  occ. eigenvalues --   -0.84954  -0.83912  -0.83877  -0.82944  -0.82933
 Alpha  occ. eigenvalues --   -0.82650  -0.82621  -0.81591  -0.81555  -0.80568
 Alpha  occ. eigenvalues --   -0.80439  -0.78771  -0.78635  -0.77192  -0.77143
 Alpha  occ. eigenvalues --   -0.76905  -0.76895  -0.75894  -0.75835  -0.74873
 Alpha  occ. eigenvalues --   -0.74803  -0.72748  -0.72699  -0.71646  -0.71580
 Alpha  occ. eigenvalues --   -0.69883  -0.69759  -0.68845  -0.68824  -0.67614
 Alpha  occ. eigenvalues --   -0.67600  -0.67196  -0.67191  -0.65268  -0.65258
 Alpha  occ. eigenvalues --   -0.64826  -0.64769  -0.64650  -0.64593  -0.64244
 Alpha  occ. eigenvalues --   -0.64204  -0.62272  -0.62267  -0.60417  -0.60340
 Alpha  occ. eigenvalues --   -0.59794  -0.59776  -0.58992  -0.58961  -0.58477
 Alpha  occ. eigenvalues --   -0.58424  -0.57554  -0.57549  -0.57282  -0.57236
 Alpha  occ. eigenvalues --   -0.56283  -0.56203  -0.55946  -0.55880  -0.55494
 Alpha  occ. eigenvalues --   -0.55450  -0.55313  -0.55246  -0.54495  -0.54485
 Alpha  occ. eigenvalues --   -0.53909  -0.53866  -0.53273  -0.53227  -0.53194
 Alpha  occ. eigenvalues --   -0.53139  -0.52898  -0.52886  -0.52730  -0.52668
 Alpha  occ. eigenvalues --   -0.52414  -0.52402  -0.51887  -0.51884  -0.51655
 Alpha  occ. eigenvalues --   -0.51588  -0.51199  -0.51168  -0.50549  -0.50476
 Alpha  occ. eigenvalues --   -0.50007  -0.49979  -0.49893  -0.49868  -0.49488
 Alpha  occ. eigenvalues --   -0.49486  -0.49200  -0.49187  -0.49102  -0.49068
 Alpha  occ. eigenvalues --   -0.48564  -0.48555  -0.48437  -0.48419  -0.48376
 Alpha  occ. eigenvalues --   -0.48338  -0.47668  -0.47593  -0.47271  -0.47118
 Alpha  occ. eigenvalues --   -0.46770  -0.46708  -0.46551  -0.46526  -0.46333
 Alpha  occ. eigenvalues --   -0.46270  -0.46135  -0.46084  -0.45818  -0.45792
 Alpha  occ. eigenvalues --   -0.45210  -0.45177  -0.44549  -0.44511  -0.44481
 Alpha  occ. eigenvalues --   -0.44474  -0.44126  -0.44119  -0.44077  -0.44060
 Alpha  occ. eigenvalues --   -0.43992  -0.43937  -0.43548  -0.43465  -0.43383
 Alpha  occ. eigenvalues --   -0.43359  -0.43000  -0.42925  -0.42898  -0.42669
 Alpha  occ. eigenvalues --   -0.42627  -0.42554  -0.41983  -0.41963  -0.41677
 Alpha  occ. eigenvalues --   -0.41667  -0.41505  -0.41456  -0.41114  -0.40989
 Alpha  occ. eigenvalues --   -0.40842  -0.40799  -0.40721  -0.40697  -0.40546
 Alpha  occ. eigenvalues --   -0.40493  -0.40222  -0.40204  -0.39427  -0.39417
 Alpha  occ. eigenvalues --   -0.38444  -0.38351  -0.37718  -0.37649  -0.37295
 Alpha  occ. eigenvalues --   -0.37266  -0.37235  -0.37197  -0.36763  -0.36682
 Alpha  occ. eigenvalues --   -0.36215  -0.36164  -0.34259  -0.34252  -0.33853
 Alpha  occ. eigenvalues --   -0.33737  -0.33175  -0.33159  -0.31322  -0.31274
 Alpha  occ. eigenvalues --   -0.31009  -0.30972  -0.29999  -0.29952  -0.29423
 Alpha  occ. eigenvalues --   -0.29327  -0.29295  -0.29211  -0.24054  -0.24035
 Alpha  occ. eigenvalues --   -0.21117  -0.21101
 Alpha virt. eigenvalues --   -0.08791  -0.08748  -0.01724  -0.01684  -0.00032
 Alpha virt. eigenvalues --   -0.00028   0.02208   0.02228   0.03152   0.03230
 Alpha virt. eigenvalues --    0.04732   0.04746   0.05132   0.05174   0.06190

 Mulliken charges:
               1
     1  Mg   0.838805
     2  C   -0.002931
     3  C   -0.094092
     4  C   -0.045903
     5  C   -0.063996
     6  N   -0.256777
     7  C   -0.052452
     8  C   -0.014006
     9  C   -0.087001
    10  C    0.046306
    11  C    0.104819
    12  C    0.053451
    13  C   -0.071836
    14  H    0.036248
    15  N   -0.433140
    16  C    0.168421
    17  C   -0.177174
    18  C   -0.004034
    19  C    0.148710
    20  C    0.110192
    21  C    0.012271
    22  O   -0.249691
    23  C    0.062484
    24  N   -0.341156
    25  C    0.041234
    26  C   -0.028148
    27  C   -0.024003
    28  C    0.074896
    29  C    0.076193
    30  C    0.035139
    31  C   -0.004497
    32  N   -0.310477
    33  C    0.080437
    34  C   -0.169696
    35  C    0.008371
    36  C    0.083003
    37  C    0.127305
    38  C    0.046158
    39  O   -0.188372
    40  C   -0.005342
    41  C    0.212870
    42  O   -0.257035
    43  O   -0.304818
    44  C    0.157661
    45  H   -0.017620
    46  H   -0.016895
    47  H   -0.041498
    48  H    0.000944
    49  H   -0.004019
    50  H    0.025471
    51  H    0.016414
    52  H    0.016647
    53  H    0.011216
    54  H    0.044172
    55  H    0.017847
    56  H    0.017945
    57  H    0.005883
    58  H    0.026774
    59  H    0.039546
    60  H    0.037331
    61  H    0.035575
    62  H    0.031522
    63  H    0.016513
    64  H    0.009438
    65  H    0.023149
    66  H    0.012536
    67  H    0.004728
    68  H    0.006305
    69  H    0.004744
    70  H    0.008732
    71  H    0.018161
    72  H    0.029031
    73  H    0.047632
    74  H    0.009102
    75  H    0.045992
    76  H    0.035139
    77  H    0.042968
    78  H    0.046404
    79  H    0.053770
    80  Mg   0.837906
    81  C   -0.016821
    82  C   -0.087766
    83  C   -0.045533
    84  C   -0.064906
    85  N   -0.254582
    86  C   -0.049812
    87  C   -0.015088
    88  C   -0.090497
    89  C    0.045761
    90  C    0.114375
    91  C    0.062508
    92  C   -0.077954
    93  H    0.035064
    94  N   -0.423500
    95  C    0.162917
    96  C   -0.174624
    97  C   -0.007823
    98  C    0.152127
    99  C    0.099368
   100  C    0.015557
   101  O   -0.253212
   102  C    0.061200
   103  N   -0.350063
   104  C    0.037519
   105  C   -0.019812
   106  C   -0.034817
   107  C    0.088911
   108  C    0.073658
   109  C    0.034735
   110  C   -0.007680
   111  N   -0.324123
   112  C    0.078477
   113  C   -0.163114
   114  C    0.002260
   115  C    0.096214
   116  C    0.131478
   117  C    0.042403
   118  O   -0.187786
   119  C    0.000921
   120  C    0.211265
   121  O   -0.250953
   122  O   -0.305663
   123  C    0.151984
   124  H   -0.019665
   125  H   -0.015596
   126  H   -0.040458
   127  H   -0.000635
   128  H   -0.004293
   129  H    0.022455
   130  H    0.014389
   131  H    0.016288
   132  H    0.013927
   133  H    0.037736
   134  H    0.020769
   135  H    0.019593
   136  H    0.008776
   137  H    0.026118
   138  H    0.039810
   139  H    0.038241
   140  H    0.036371
   141  H    0.033916
   142  H    0.014396
   143  H    0.012396
   144  H    0.025124
   145  H    0.011624
   146  H    0.005653
   147  H    0.006242
   148  H    0.003662
   149  H    0.010920
   150  H    0.017967
   151  H    0.030130
   152  H    0.046073
   153  H    0.008511
   154  H    0.046919
   155  H    0.035015
   156  H    0.043957
   157  H    0.049509
   158  H    0.053683
 Sum of Mulliken charges =  -0.00000

 Dipole moment (field-independent basis, Debye):
    X=              1.2864    Y=              7.2177    Z=             -2.1523  Tot=              7.6409
 Quadrupole moment (field-independent basis, Debye-Ang):
   XX=           -422.0884   YY=           -531.9816   ZZ=           -472.5567
   XY=             -3.3884   XZ=            -57.0137   YZ=             23.2085

 Normal termination of Gaussian 16 at Sun Sep 12 14:08:17 2021.
