 Gaussian 16, Revision A.03,
 Gaussian 16:  ES64L-G16RevA.03 25-Dec-2016

 -----------------------------------
 #p cam-b3lyp/Def2SVP td=(nstates=5)
 -----------------------------------

 --------------------------------
 TDDFT excited states in gaussian
 --------------------------------
 Symbolic Z-matrix:
 Charge =  0 Multiplicity = 1

                         Standard orientation:
 ---------------------------------------------------------------------
 Center     Atomic      Atomic             Coordinates (Angstroms)
 Number     Number       Type             X           Y           Z
 ---------------------------------------------------------------------
      1         12           0        6.377064   -1.106136    0.188965
      2          6           0        6.791136    2.406358   -0.361621
      3          6           0        7.168109   -0.535718    3.458818
      4          6           0        6.462868   -4.248976    0.603470
      5          6           0        6.738420   -1.538002   -3.250304
      6          7           0        6.892680    0.744625    1.288724
      7          6           0        6.957884    2.034604    0.974283
      8          6           0        7.145287    2.963295    2.211129
      9          6           0        7.806752    1.915678    3.214603
     10          6           0        7.227710    0.633326    2.643455
     11          6           0        9.327626    1.854419    3.116159
     12          6           0        5.782224    3.502161    2.761958
     13          6           0        5.891739    4.663760    3.753950
     14          1           0        4.871034    5.700627    3.733602
     15          7           0        6.279060   -2.183548    1.841971
     16          6           0        6.626179   -1.785869    3.089628
     17          6           0        6.371472   -2.944565    3.972367
     18          6           0        6.027910   -4.107982    3.108354
     19          6           0        6.271589   -3.559693    1.798630
     20          6           0        6.416918   -2.865588    5.467509
     21          6           0        5.565088   -5.497203    3.414935
     22          8           0        5.547149   -6.419131    2.529327
     23          6           0        5.212373   -5.777378    4.818550
     24          7           0        6.790556   -2.697355   -1.097379
     25          6           0        6.701099   -3.964459   -0.678537
     26          6           0        6.761620   -4.925304   -1.828777
     27          6           0        6.666964   -4.036982   -3.152287
     28          6           0        6.649705   -2.634974   -2.494758
     29          6           0        8.014036   -5.810109   -1.896509
     30          6           0        5.544852   -4.393145   -4.159477
     31          6           0        4.193920   -4.090144   -3.550979
     32          7           0        6.529721    0.190254   -1.545138
     33          6           0        6.696968   -0.204057   -2.880511
     34          6           0        6.856890    1.026165   -3.677409
     35          6           0        6.787693    2.056674   -2.741938
     36          6           0        6.622943    1.503987   -1.439752
     37          6           0        7.096050    1.086180   -5.078707
     38          6           0        6.839295    3.495085   -2.536585
     39          8           0        6.869945    4.476658   -3.280270
     40          6           0        6.965780    3.773909   -0.973868
     41          6           0        5.961732    4.836600   -0.619062
     42          8           0        4.736835    4.608746   -0.690310
     43          8           0        6.591721    5.864420   -0.029791
     44          6           0        5.648440    6.941063    0.374206
     45          1           0        7.629710   -0.513455    4.447944
     46          1           0        6.388576   -5.335222    0.687071
     47          1           0        6.770831   -1.590786   -4.340083
     48          1           0        7.821577    3.803107    2.050593
     49          1           0        7.465401    2.062207    4.239167
     50          1           0        9.697026    2.448675    2.280500
     51          1           0        9.567626    0.801112    2.969745
     52          1           0        9.788787    2.138069    4.062546
     53          1           0        5.332377    2.748273    3.407986
     54          1           0        5.121312    3.788462    1.943085
     55          1           0        6.887534    5.107711    3.739482
     56          1           0        5.788580    4.262685    4.762264
     57          1           0        6.857520   -1.928606    5.805858
     58          1           0        7.114499   -3.631538    5.805755
     59          1           0        5.438501   -3.034966    5.917335
     60          1           0        6.078401   -5.585619    5.452407
     61          1           0        4.818927   -6.793178    4.832725
     62          1           0        4.439535   -5.076332    5.135103
     63          1           0        5.922254   -5.619024   -1.803404
     64          1           0        7.581157   -4.086400   -3.744303
     65          1           0        7.795563   -6.878232   -1.905862
     66          1           0        8.656496   -5.549702   -1.055840
     67          1           0        8.671094   -5.608272   -2.742058
     68          1           0        5.562883   -5.458645   -4.386041
     69          1           0        5.625284   -3.852170   -5.102413
     70          1           0        3.987055   -4.982307   -2.960993
     71          1           0        3.445670   -3.957096   -4.333048
     72          1           0        4.248105   -3.248224   -2.860531
     73          1           0        6.453007    1.877249   -5.464289
     74          1           0        6.880792    0.131623   -5.558381
     75          1           0        8.158219    1.330056   -5.092011
     76          1           0        7.989382    4.102033   -0.795838
     77          1           0        5.996149    7.863610   -0.090810
     78          1           0        5.593438    6.912547    1.462584
     79          1           0        4.638319    6.874171   -0.031406
     80         12           0       -6.832201   -0.380468   -0.280487
     81          6           0       -5.263774    2.842942   -0.449986
     82          6           0       -7.280355    0.178621    3.054355
     83          6           0       -7.808106   -3.387324   -0.008717
     84          6           0       -5.267209   -1.146602   -3.298694
     85          7           0       -6.298644    1.328709    1.018077
     86          6           0       -5.760633    2.524510    0.831094
     87          6           0       -5.827285    3.460295    2.067801
     88          6           0       -5.940492    2.339105    3.211903
     89          6           0       -6.578741    1.218487    2.393656
     90          6           0       -4.590996    1.854166    3.714931
     91          6           0       -7.091570    4.389356    2.046900
     92          6           0       -7.061982    5.538455    3.057079
     93          1           0       -7.661712    6.814619    2.677354
     94          7           0       -7.883961   -1.264883    1.151360
     95          6           0       -7.971341   -0.891910    2.445400
     96          6           0       -8.851213   -1.879015    3.090076
     97          6           0       -9.143584   -2.958618    2.108388
     98          6           0       -8.253636   -2.581247    1.028720
     99          6           0       -9.391549   -1.702670    4.479445
    100          6           0      -10.061591   -4.142832    2.141632
    101          8           0       -9.980037   -5.082583    1.273864
    102          6           0      -10.996546   -4.215962    3.273883
    103          7           0       -6.410716   -2.103165   -1.365397
    104          6           0       -7.009822   -3.270095   -1.070000
    105          6           0       -6.764689   -4.297640   -2.149107
    106          6           0       -6.075039   -3.501042   -3.352187
    107          6           0       -5.954417   -2.107708   -2.696859
    108          6           0       -5.883718   -5.481993   -1.752137
    109          6           0       -6.752786   -3.606207   -4.745840
    110          6           0       -8.095680   -2.912411   -4.720361
    111          7           0       -5.655904    0.694651   -1.739429
    112          6           0       -5.077450    0.175843   -2.918539
    113          6           0       -4.276209    1.259479   -3.523663
    114          6           0       -4.426710    2.335107   -2.635477
    115          6           0       -5.246310    1.942863   -1.542823
    116          6           0       -3.500609    1.156097   -4.712728
    117          6           0       -4.069936    3.709907   -2.368357
    118          8           0       -3.467502    4.586814   -2.986270
    119          6           0       -4.492786    4.061086   -0.876959
    120          6           0       -5.219024    5.378153   -0.897971
    121          8           0       -6.315248    5.486308   -1.475229
    122          8           0       -4.609773    6.230800   -0.054066
    123          6           0       -5.300244    7.547832   -0.031765
    124          1           0       -7.266680    0.154575    4.144365
    125          1           0       -8.206809   -4.404372   -0.020205
    126          1           0       -4.828644   -1.275869   -4.290468
    127          1           0       -4.943390    4.066196    2.227135
    128          1           0       -6.606807    2.655328    4.010271
    129          1           0       -3.775382    2.259508    3.134747
    130          1           0       -4.615882    0.775601    3.630603
    131          1           0       -4.486423    2.070703    4.781946
    132          1           0       -7.954907    3.827761    2.426396
    133          1           0       -7.262255    4.778397    1.061947
    134          1           0       -6.060016    5.693986    3.475216
    135          1           0       -7.671739    5.258185    3.919435
    136          1           0       -8.871638   -0.898186    5.014148
    137          1           0       -9.137120   -2.609361    5.038951
    138          1           0      -10.475373   -1.569558    4.496142
    139          1           0      -10.435825   -4.220012    4.205567
    140          1           0      -11.628872   -5.083453    3.075163
    141          1           0      -11.610347   -3.308306    3.279929
    142          1           0       -7.698015   -4.722149   -2.498065
    143          1           0       -5.048892   -3.851110   -3.537385
    144          1           0       -6.377163   -6.461372   -1.898423
    145          1           0       -5.587475   -5.355964   -0.719232
    146          1           0       -4.923799   -5.535188   -2.262944
    147          1           0       -6.948561   -4.652323   -4.993780
    148          1           0       -6.153960   -3.191343   -5.549758
    149          1           0       -8.758978   -3.674018   -4.299556
    150          1           0       -8.402345   -2.634321   -5.726672
    151          1           0       -8.086929   -2.063390   -4.026999
    152          1           0       -3.683691    2.056973   -5.283181
    153          1           0       -3.760485    0.265248   -5.280720
    154          1           0       -2.496277    1.092083   -4.285543
    155          1           0       -3.581162    4.105751   -0.279868
    156          1           0       -4.549178    8.306440   -0.272813
    157          1           0       -5.783470    7.615040    0.961067
    158          1           0       -6.044492    7.736561   -0.796580
 ---------------------------------------------------------------------

 SCF Done:  E(RCAM-B3LYP) =  -4069.81128321     A.U. after   19 cycles

 Excitation energies and oscillator strengths:

 Excited State   1:      Singlet-A      1.6654 eV  744.49 nm  f=0.0583  <S**2>=0.000
     309 -> 315       -0.11158
     310 -> 316       -0.13007
     311 -> 313       -0.44572
     312 -> 314        0.52226
 This state for optimization and/or second-order correction.
 Total Energy, E(TD-HF/TD-DFT) =  -4069.75008248
 Copying the excited state density for this state as the 1-particle RhoCI density.

 Excited State   2:      Singlet-A      1.6899 eV  733.69 nm  f=0.6915  <S**2>=0.000
     309 -> 315        0.13537
     310 -> 316       -0.11490
     311 -> 313        0.52106
     312 -> 314        0.44483

 Excited State   3:      Singlet-A      2.1851 eV  567.42 nm  f=0.0307  <S**2>=0.000
     309 -> 313        0.23829
     310 -> 314        0.59730
     311 -> 315       -0.10041
     312 -> 316        0.25303

 Excited State   4:      Singlet-A      2.1933 eV  565.29 nm  f=0.1570  <S**2>=0.000
     309 -> 313        0.59483
     310 -> 314       -0.23644
     311 -> 315       -0.25940
     312 -> 316       -0.10350

 Excited State   5:      Singlet-A      2.6610 eV  465.93 nm  f=0.0000  <S**2>=0.000
     312 -> 313        0.70706

 The electronic state is 1-A.
 Alpha  occ. eigenvalues --  -46.87762 -46.87530 -19.26188 -19.26169 -19.19001
 Alpha  occ. eigenvalues --  -19.18896 -19.18796 -19.18604 -19.18092 -19.17851
 Alpha  occ. eigenvalues --  -14.42416 -14.42372 -14.41417 -14.41230 -14.39369
 Alpha  occ. eigenvalues --  -14.39223 -14.38545 -14.38460 -10.38964 -10.38929
 Alpha  occ. eigenvalues --  -10.35432 -10.35284 -10.34312 -10.34029 -10.31611
 Alpha  occ. eigenvalues --  -10.31554 -10.31363 -10.31173 -10.30902 -10.30875
 Alpha  occ. eigenvalues --  -10.30527 -10.30468 -10.30258 -10.30216 -10.30185
 Alpha  occ. eigenvalues --  -10.30027 -10.29884 -10.29757 -10.29592 -10.29313
 Alpha  occ. eigenvalues --  -10.29262 -10.29224 -10.28715 -10.28606 -10.28571
 Alpha  occ. eigenvalues --  -10.28517 -10.28324 -10.28267 -10.28086 -10.28033
 Alpha  occ. eigenvalues --  -10.27854 -10.27749 -10.27695 -10.27550 -10.27546
 Alpha  occ. eigenvalues --  -10.27486 -10.27472 -10.27431 -10.27409 -10.27371
 Alpha  occ. eigenvalues --  -10.27361 -10.27348 -10.27333 -10.27262 -10.27082
 Alpha  occ. eigenvalues --  -10.26867 -10.26674 -10.26592 -10.26410 -10.26330
 Alpha  occ. eigenvalues --  -10.26205 -10.26182 -10.26040 -10.25988 -10.25929
 Alpha  occ. eigenvalues --  -10.25806 -10.25777 -10.25649 -10.25418 -10.25289
 Alpha  occ. eigenvalues --  -10.24784 -10.24754 -10.24719 -10.24698 -10.24636
 Alpha  occ. eigenvalues --  -10.24559  -3.16505  -3.16280  -1.91386  -1.91163
 Alpha  occ. eigenvalues --   -1.90973  -1.90815  -1.90751  -1.90588  -1.16517
 Alpha  occ. eigenvalues --   -1.16482  -1.08544  -1.08453  -1.07199  -1.06859
 Alpha  occ. eigenvalues --   -1.06783  -1.06521  -1.04545  -1.04367  -1.03728
 Alpha  occ. eigenvalues --   -1.03533  -1.03197  -1.02907  -1.02374  -1.01977
 Alpha  occ. eigenvalues --   -0.91921  -0.91839  -0.89494  -0.89370  -0.89155
 Alpha  occ. eigenvalues --   -0.89040  -0.88263  -0.88102  -0.87820  -0.87640
 Alpha  occ. eigenvalues --   -0.87633  -0.87558  -0.87250  -0.87003  -0.84949
 Alpha  occ. eigenvalues --   -0.84884  -0.83912  -0.83758  -0.82952  -0.82825
 Alpha  occ. eigenvalues --   -0.82612  -0.82537  -0.81517  -0.81451  -0.80548
 Alpha  occ. eigenvalues --   -0.80308  -0.78765  -0.78505  -0.77188  -0.77024
 Alpha  occ. eigenvalues --   -0.76891  -0.76776  -0.75873  -0.75709  -0.74867
 Alpha  occ. eigenvalues --   -0.74680  -0.72736  -0.72561  -0.71634  -0.71454
 Alpha  occ. eigenvalues --   -0.69893  -0.69648  -0.68839  -0.68709  -0.67601
 Alpha  occ. eigenvalues --   -0.67468  -0.67191  -0.67090  -0.65247  -0.65148
 Alpha  occ. eigenvalues --   -0.64807  -0.64639  -0.64577  -0.64524  -0.64241
 Alpha  occ. eigenvalues --   -0.64082  -0.62220  -0.62133  -0.60416  -0.60219
 Alpha  occ. eigenvalues --   -0.59768  -0.59674  -0.58947  -0.58859  -0.58459
 Alpha  occ. eigenvalues --   -0.58287  -0.57511  -0.57388  -0.57266  -0.57104
 Alpha  occ. eigenvalues --   -0.56268  -0.56067  -0.55900  -0.55748  -0.55485
 Alpha  occ. eigenvalues --   -0.55323  -0.55295  -0.55115  -0.54464  -0.54355
 Alpha  occ. eigenvalues --   -0.53860  -0.53800  -0.53265  -0.53185  -0.53100
 Alpha  occ. eigenvalues --   -0.53016  -0.52857  -0.52772  -0.52732  -0.52563
 Alpha  occ. eigenvalues --   -0.52420  -0.52290  -0.51855  -0.51704  -0.51580
 Alpha  occ. eigenvalues --   -0.51543  -0.51147  -0.51055  -0.50562  -0.50374
 Alpha  occ. eigenvalues --   -0.50014  -0.49894  -0.49868  -0.49751  -0.49480
 Alpha  occ. eigenvalues --   -0.49371  -0.49166  -0.49069  -0.49055  -0.48966
 Alpha  occ. eigenvalues --   -0.48536  -0.48435  -0.48420  -0.48397  -0.48249
 Alpha  occ. eigenvalues --   -0.48209  -0.47660  -0.47474  -0.47261  -0.46999
 Alpha  occ. eigenvalues --   -0.46764  -0.46585  -0.46520  -0.46442  -0.46321
 Alpha  occ. eigenvalues --   -0.46142  -0.46112  -0.45944  -0.45756  -0.45668
 Alpha  occ. eigenvalues --   -0.45175  -0.45088  -0.44519  -0.44484  -0.44385
 Alpha  occ. eigenvalues --   -0.44345  -0.44116  -0.44057  -0.43999  -0.43967
 Alpha  occ. eigenvalues --   -0.43956  -0.43804  -0.43428  -0.43416  -0.43355
 Alpha  occ. eigenvalues --   -0.43257  -0.42984  -0.42790  -0.42748  -0.42660
 Alpha  occ. eigenvalues --   -0.42574  -0.42438  -0.41979  -0.41847  -0.41657
 Alpha  occ. eigenvalues --   -0.41517  -0.41502  -0.41345  -0.41105  -0.40864
 Alpha  occ. eigenvalues --   -0.40843  -0.40805  -0.40616  -0.40591  -0.40544
 Alpha  occ. eigenvalues --   -0.40375  -0.40207  -0.40125  -0.39432  -0.39318
 Alpha  occ. eigenvalues --   -0.38447  -0.38237  -0.37716  -0.37545  -0.37294
 Alpha  occ. eigenvalues --   -0.37226  -0.37146  -0.37077  -0.36631  -0.36623
 Alpha  occ. eigenvalues --   -0.36131  -0.36089  -0.34247  -0.34119  -0.33707
 Alpha  occ. eigenvalues --   -0.33662  -0.33141  -0.33042  -0.31326  -0.31163
 Alpha  occ. eigenvalues --   -0.30997  -0.30842  -0.29950  -0.29754  -0.29415
 Alpha  occ. eigenvalues --   -0.29273  -0.29195  -0.29055  -0.24042  -0.23902
 Alpha  occ. eigenvalues --   -0.21092  -0.20985
 Alpha virt. eigenvalues --   -0.08737  -0.08655  -0.01718  -0.01557  -0.00026
 Alpha virt. eigenvalues --    0.00097   0.02255   0.02373   0.03153   0.03343
 Alpha virt. eigenvalues --    0.04750   0.04848   0.05205   0.05328   0.06210

 Mulliken charges:
               1
     1  Mg   0.838663
     2  C   -0.002704
     3  C   -0.094328
     4  C   -0.045962
     5  C   -0.064060
     6  N   -0.256720
     7  C   -0.052463
     8  C   -0.013945
     9  C   -0.086952
    10  C    0.046188
    11  C    0.104853
    12  C    0.053549
    13  C   -0.071627
    14  H    0.036080
    15  N   -0.433079
    16  C    0.168221
    17  C   -0.177421
    18  C   -0.004206
    19  C    0.148579
    20  C    0.110266
    21  C    0.012118
    22  O   -0.249808
    23  C    0.062577
    24  N   -0.341102
    25  C    0.041076
    26  C   -0.028084
    27  C   -0.024004
    28  C    0.074845
    29  C    0.076200
    30  C    0.035175
    31  C   -0.004432
    32  N   -0.310643
    33  C    0.080611
    34  C   -0.169347
    35  C    0.008767
    36  C    0.083251
    37  C    0.127128
    38  C    0.046807
    39  O   -0.187410
    40  C   -0.005590
    41  C    0.212952
    42  O   -0.255952
    43  O   -0.305154
    44  C    0.157266
    45  H   -0.017837
    46  H   -0.017043
    47  H   -0.041444
    48  H    0.001088
    49  H   -0.004364
    50  H    0.025559
    51  H    0.016405
    52  H    0.016462
    53  H    0.010695
    54  H    0.044689
    55  H    0.017952
    56  H    0.017393
    57  H    0.005676
    58  H    0.026686
    59  H    0.038977
    60  H    0.037301
    61  H    0.035482
    62  H    0.031140
    63  H    0.016300
    64  H    0.009521
    65  H    0.023062
    66  H    0.012581
    67  H    0.004729
    68  H    0.006196
    69  H    0.004848
    70  H    0.008549
    71  H    0.017571
    72  H    0.029263
    73  H    0.048495
    74  H    0.008978
    75  H    0.045993
    76  H    0.035030
    77  H    0.043094
    78  H    0.045726
    79  H    0.055069
    80  Mg   0.837610
    81  C   -0.016637
    82  C   -0.087968
    83  C   -0.045637
    84  C   -0.064870
    85  N   -0.254456
    86  C   -0.049731
    87  C   -0.015041
    88  C   -0.090528
    89  C    0.045630
    90  C    0.114362
    91  C    0.062596
    92  C   -0.077623
    93  H    0.034683
    94  N   -0.423404
    95  C    0.162659
    96  C   -0.175014
    97  C   -0.008076
    98  C    0.151916
    99  C    0.099535
   100  C    0.015321
   101  O   -0.253490
   102  C    0.061306
   103  N   -0.350007
   104  C    0.037372
   105  C   -0.019736
   106  C   -0.034831
   107  C    0.089108
   108  C    0.073723
   109  C    0.034765
   110  C   -0.007620
   111  N   -0.324305
   112  C    0.078663
   113  C   -0.162831
   114  C    0.003117
   115  C    0.096050
   116  C    0.131428
   117  C    0.043516
   118  O   -0.185745
   119  C    0.000492
   120  C    0.211320
   121  O   -0.251416
   122  O   -0.305289
   123  C    0.152120
   124  H   -0.020307
   125  H   -0.015871
   126  H   -0.040400
   127  H   -0.000383
   128  H   -0.004796
   129  H    0.023160
   130  H    0.014236
   131  H    0.015303
   132  H    0.013757
   133  H    0.037808
   134  H    0.020589
   135  H    0.019209
   136  H    0.008350
   137  H    0.025612
   138  H    0.039411
   139  H    0.037993
   140  H    0.036063
   141  H    0.033753
   142  H    0.014137
   143  H    0.012414
   144  H    0.024836
   145  H    0.011697
   146  H    0.005658
   147  H    0.005998
   148  H    0.003612
   149  H    0.010791
   150  H    0.017779
   151  H    0.030250
   152  H    0.046335
   153  H    0.007841
   154  H    0.049009
   155  H    0.036653
   156  H    0.044164
   157  H    0.048876
   158  H    0.053425
 Sum of Mulliken charges =  -0.00000

 Dipole moment (field-independent basis, Debye):
    X=              1.7298    Y=             -1.7686    Z=              8.1463  Tot=              8.5136
 Quadrupole moment (field-independent basis, Debye-Ang):
   XX=           -494.5172   YY=           -537.5020   ZZ=           -460.3789
   XY=            -12.8829   XZ=             -4.8187   YZ=             56.0794

 Normal termination of Gaussian 16 at Sat Sep 11 14:03:44 2021.
