 Gaussian 16, Revision A.03,
 Gaussian 16:  ES64L-G16RevA.03 25-Dec-2016

 -----------------------------------
 #p cam-b3lyp/Def2SVP td=(nstates=5)
 -----------------------------------

 --------------------------------
 TDDFT excited states in gaussian
 --------------------------------
 Symbolic Z-matrix:
 Charge =  0 Multiplicity = 1

                         Standard orientation:
 ---------------------------------------------------------------------
 Center     Atomic      Atomic             Coordinates (Angstroms)
 Number     Number       Type             X           Y           Z
 ---------------------------------------------------------------------
      1         12           0       -3.939437   -0.432947   -0.025583
      2          6           0       -3.862190    3.062863    0.739634
      3          6           0       -4.656523    0.439555   -3.245458
      4          6           0       -4.460178   -3.502816   -0.626712
      5          6           0       -4.343909   -1.020180    3.385754
      6          7           0       -4.198605    1.534850   -1.006019
      7          6           0       -4.083777    2.799889   -0.614024
      8          6           0       -4.145786    3.819321   -1.790581
      9          6           0       -4.949448    2.935994   -2.846924
     10          6           0       -4.550948    1.553676   -2.360799
     11          6           0       -6.463816    3.078791   -2.733787
     12          6           0       -2.723453    4.198037   -2.324692
     13          6           0       -2.675215    5.422044   -3.243839
     14          1           0       -1.520984    6.305330   -3.173806
     15          7           0       -3.997504   -1.410612   -1.741290
     16          6           0       -4.291098   -0.893489   -2.958529
     17          6           0       -4.202266   -2.020124   -3.912198
     18          6           0       -4.019441   -3.270333   -3.123753
     19          6           0       -4.180054   -2.774737   -1.780635
     20          6           0       -4.242051   -1.844482   -5.399248
     21          6           0       -3.754147   -4.688700   -3.518703
     22          8           0       -3.860376   -5.656667   -2.690254
     23          6           0       -3.448861   -4.928515   -4.940790
     24          7           0       -4.563897   -2.027653    1.167983
     25          6           0       -4.651941   -3.267041    0.672858
     26          6           0       -4.840248   -4.278842    1.764068
     27          6           0       -4.618745   -3.494509    3.137208
     28          6           0       -4.410464   -2.070711    2.564766
     29          6           0       -6.202623   -4.985279    1.793894
     30          6           0       -3.552775   -4.062593    4.107469
     31          6           0       -2.175260   -3.911860    3.501803
     32          7           0       -3.904938    0.763770    1.784866
     33          6           0       -4.119976    0.315428    3.096133
     34          6           0       -4.105377    1.504967    3.967253
     35          6           0       -3.898037    2.571327    3.094481
     36          6           0       -3.816174    2.081788    1.759587
     37          6           0       -4.328622    1.511643    5.372441
     38          6           0       -3.751208    4.012976    2.976391
     39          8           0       -3.643132    4.942157    3.777912
     40          6           0       -3.843903    4.401469    1.434864
     41          6           0       -2.704029    5.335487    1.132197
     42          8           0       -1.522093    4.937257    1.174709
     43          8           0       -3.188220    6.474298    0.613342
     44          6           0       -2.106788    7.433479    0.263154
     45          1           0       -5.114380    0.585516   -4.225765
     46          1           0       -4.536982   -4.581794   -0.776195
     47          1           0       -4.379156   -1.134453    4.470721
     48          1           0       -4.698956    4.732851   -1.571741
     49          1           0       -4.595026    3.096432   -3.864945
     50          1           0       -6.744397    3.666088   -1.859558
     51          1           0       -6.846471    2.061595   -2.647878
     52          1           0       -6.884965    3.480487   -3.655769
     53          1           0       -2.384529    3.430273   -3.020199
     54          1           0       -2.026217    4.340080   -1.498247
     55          1           0       -3.600067    5.997133   -3.190633
     56          1           0       -2.632289    5.072921   -4.275571
     57          1           0       -4.550268   -0.836869   -5.675407
     58          1           0       -5.040040   -2.485008   -5.774280
     59          1           0       -3.298133   -2.119149   -5.870321
     60          1           0       -4.282497   -4.581013   -5.551399
     61          1           0       -3.199577   -5.986027   -5.020646
     62          1           0       -2.587794   -4.322525   -5.224140
     63          1           0       -4.104870   -5.078649    1.686909
     64          1           0       -5.528741   -3.453667    3.736302
     65          1           0       -6.133773   -6.071867    1.736519
     66          1           0       -6.806141   -4.588059    0.978250
     67          1           0       -6.822278   -4.746930    2.657975
     68          1           0       -3.716970   -5.127294    4.269940
     69          1           0       -3.554113   -3.574301    5.082056
     70          1           0       -2.095877   -4.786295    2.856904
     71          1           0       -1.412836   -3.931097    4.281258
     72          1           0       -2.115240   -3.029917    2.863792
     73          1           0       -3.580997    2.181619    5.796891
     74          1           0       -4.245478    0.509046    5.791355
     75          1           0       -5.346857    1.898147    5.413298
     76          1           0       -4.813029    4.877636    1.289326
     77          1           0       -2.321943    8.364971    0.786856
     78          1           0       -2.060393    7.464184   -0.825565
     79          1           0       -1.114060    7.203522    0.651675
     80         12           0        3.973646   -1.112915    0.179464
     81          6           0        4.083850    2.455589   -0.184824
     82          6           0        3.167835   -1.276319   -3.130908
     83          6           0        3.427849   -4.214386    0.567353
     84          6           0        3.656060   -0.613349    3.613887
     85          7           0        3.692332    0.455940   -1.354093
     86          6           0        3.820775    1.773696   -1.391158
     87          6           0        3.737690    2.388248   -2.814177
     88          6           0        2.893825    1.224375   -3.529854
     89          6           0        3.298484    0.048498   -2.643165
     90          6           0        1.390370    1.413684   -3.415379
     91          6           0        5.150791    2.561803   -3.473742
     92          6           0        5.171331    3.435971   -4.729598
     93          1           0        6.336688    4.282716   -4.969265
     94          7           0        3.867405   -2.575328   -1.157930
     95          6           0        3.548012   -2.461790   -2.464213
     96          6           0        3.590235   -3.827685   -3.008914
     97          6           0        3.799327   -4.776097   -1.881305
     98          6           0        3.682968   -3.874029   -0.753115
     99          6           0        3.518492   -4.119792   -4.479606
    100          6           0        4.048422   -6.252980   -1.826810
    101          8           0        3.963239   -6.910167   -0.729686
    102          6           0        4.303147   -6.922677   -3.110595
    103          7           0        3.384808   -2.246612    1.819697
    104          6           0        3.272274   -3.583575    1.731485
    105          6           0        3.107121   -4.208312    3.096334
    106          6           0        3.375693   -3.029885    4.143588
    107          6           0        3.570440   -1.855914    3.159073
    108          6           0        1.743655   -4.838864    3.378749
    109          6           0        4.466845   -3.280349    5.220315
    110          6           0        5.828555   -3.353737    4.567820
    111          7           0        4.067813    0.578513    1.520451
    112          6           0        3.881110    0.568780    2.920137
    113          6           0        3.925438    1.973600    3.375055
    114          6           0        4.113341    2.710727    2.196148
    115          6           0        4.161120    1.829138    1.082587
    116          6           0        3.752007    2.419788    4.715560
    117          6           0        4.271511    4.034958    1.639286
    118          8           0        4.398402    5.165194    2.108545
    119          6           0        4.132848    3.938435    0.058831
    120          6           0        5.267244    4.712233   -0.555091
    121          8           0        6.442858    4.334274   -0.407759
    122          8           0        4.766286    5.640289   -1.390627
    123          6           0        5.853495    6.426328   -2.032449
    124          1           0        2.690286   -1.427916   -4.099338
    125          1           0        3.342252   -5.284397    0.770379
    126          1           0        3.662991   -0.381518    4.681074
    127          1           0        3.200181    3.327088   -2.872868
    128          1           0        3.228883    1.064613   -4.551406
    129          1           0        1.136463    2.239803   -2.767919
    130          1           0        1.006835    0.485466   -3.012451
    131          1           0        0.946614    1.516758   -4.409755
    132          1           0        5.463909    1.603148   -3.906978
    133          1           0        5.860351    2.935790   -2.761505
    134          1           0        4.246236    4.013791   -4.844787
    135          1           0        5.190854    2.783768   -5.606108
    136          1           0        3.199984   -3.238361   -5.049719
    137          1           0        2.708476   -4.843152   -4.622797
    138          1           0        4.445358   -4.545204   -4.870252
    139          1           0        3.456056   -6.765714   -3.774111
    140          1           0        4.546484   -7.956456   -2.857699
    141          1           0        5.168281   -6.448224   -3.587090
    142          1           0        3.838043   -4.991903    3.253978
    143          1           0        2.477906   -2.798158    4.735301
    144          1           0        1.806759   -5.906488    3.662056
    145          1           0        1.121777   -4.714146    2.502248
    146          1           0        1.156894   -4.343817    4.150665
    147          1           0        4.303769   -4.244795    5.707557
    148          1           0        4.486511   -2.525315    5.999124
    149          1           0        5.880582   -4.390202    4.221234
    150          1           0        6.612258   -3.139818    5.291756
    151          1           0        5.876585   -2.707664    3.683548
    152          1           0        4.506320    3.174929    4.892408
    153          1           0        3.838250    1.597362    5.422630
    154          1           0        2.731819    2.809037    4.661118
    155          1           0        3.160965    4.353592   -0.210720
    156          1           0        5.653699    7.481052   -1.819497
    157          1           0        5.857104    6.118903   -3.095092
    158          1           0        6.854807    6.315897   -1.632905
 ---------------------------------------------------------------------

 SCF Done:  E(RCAM-B3LYP) =  -4069.81127639     A.U. after   19 cycles

 Excitation energies and oscillator strengths:

 Excited State   1:      Singlet-A      1.6390 eV  756.44 nm  f=0.0185  <S**2>=0.000
     309 -> 315       -0.11472
     310 -> 316        0.11793
     311 -> 313       -0.47790
     312 -> 314        0.49507
 This state for optimization and/or second-order correction.
 Total Energy, E(TD-HF/TD-DFT) =  -4069.75104275
 Copying the excited state density for this state as the 1-particle RhoCI density.

 Excited State   2:      Singlet-A      1.7098 eV  725.15 nm  f=0.6540  <S**2>=0.000
     309 -> 315        0.13207
     310 -> 316        0.12697
     311 -> 313        0.49180
     312 -> 314        0.47489

 Excited State   3:      Singlet-A      2.1792 eV  568.95 nm  f=0.0106  <S**2>=0.000
     309 -> 313       -0.38446
     310 -> 314        0.51877
     311 -> 315        0.15832
     312 -> 316       -0.21504

 Excited State   4:      Singlet-A      2.1964 eV  564.48 nm  f=0.1607  <S**2>=0.000
     309 -> 313        0.51313
     310 -> 314        0.37864
     311 -> 315       -0.22742
     312 -> 316       -0.16940

 Excited State   5:      Singlet-A      2.2341 eV  554.95 nm  f=0.0000  <S**2>=0.000
     312 -> 313        0.70707

 The electronic state is 1-A.
 Alpha  occ. eigenvalues --  -46.87909 -46.87391 -19.26254 -19.26139 -19.19009
 Alpha  occ. eigenvalues --  -19.18940 -19.18920 -19.18454 -19.18232 -19.17677
 Alpha  occ. eigenvalues --  -14.42572 -14.42243 -14.41560 -14.41096 -14.39519
 Alpha  occ. eigenvalues --  -14.39081 -14.38693 -14.38300 -10.39077 -10.38836
 Alpha  occ. eigenvalues --  -10.35578 -10.35137 -10.34450 -10.33852 -10.31613
 Alpha  occ. eigenvalues --  -10.31587 -10.31524 -10.31039 -10.31036 -10.30784
 Alpha  occ. eigenvalues --  -10.30686 -10.30612 -10.30330 -10.30096 -10.30059
 Alpha  occ. eigenvalues --  -10.30016 -10.29913 -10.29748 -10.29609 -10.29378
 Alpha  occ. eigenvalues --  -10.29176 -10.29101 -10.28899 -10.28732 -10.28577
 Alpha  occ. eigenvalues --  -10.28531 -10.28475 -10.28259 -10.28112 -10.27970
 Alpha  occ. eigenvalues --  -10.27905 -10.27855 -10.27710 -10.27690 -10.27683
 Alpha  occ. eigenvalues --  -10.27614 -10.27536 -10.27510 -10.27431 -10.27328
 Alpha  occ. eigenvalues --  -10.27300 -10.27213 -10.27202 -10.27178 -10.27167
 Alpha  occ. eigenvalues --  -10.26916 -10.26673 -10.26607 -10.26551 -10.26354
 Alpha  occ. eigenvalues --  -10.26319 -10.26205 -10.26139 -10.25974 -10.25946
 Alpha  occ. eigenvalues --  -10.25883 -10.25670 -10.25507 -10.25410 -10.25219
 Alpha  occ. eigenvalues --  -10.24937 -10.24889 -10.24857 -10.24566 -10.24540
 Alpha  occ. eigenvalues --  -10.24413  -3.16651  -3.16142  -1.91532  -1.91119
 Alpha  occ. eigenvalues --   -1.91024  -1.90961  -1.90613  -1.90449  -1.16608
 Alpha  occ. eigenvalues --   -1.16424  -1.08681  -1.08277  -1.07338  -1.06708
 Alpha  occ. eigenvalues --   -1.06702  -1.06631  -1.04702  -1.04235  -1.03874
 Alpha  occ. eigenvalues --   -1.03394  -1.03346  -1.02762  -1.02522  -1.01828
 Alpha  occ. eigenvalues --   -0.92067  -0.91681  -0.89633  -0.89333  -0.89252
 Alpha  occ. eigenvalues --   -0.88964  -0.88395  -0.87996  -0.87981  -0.87803
 Alpha  occ. eigenvalues --   -0.87472  -0.87422  -0.87417  -0.86872  -0.85123
 Alpha  occ. eigenvalues --   -0.84795  -0.84042  -0.83657  -0.83120  -0.82770
 Alpha  occ. eigenvalues --   -0.82707  -0.82441  -0.81639  -0.81348  -0.80688
 Alpha  occ. eigenvalues --   -0.80192  -0.78933  -0.78365  -0.77349  -0.77038
 Alpha  occ. eigenvalues --   -0.76922  -0.76690  -0.76015  -0.75609  -0.74994
 Alpha  occ. eigenvalues --   -0.74581  -0.72889  -0.72417  -0.71775  -0.71343
 Alpha  occ. eigenvalues --   -0.70034  -0.69557  -0.69006  -0.68613  -0.67749
 Alpha  occ. eigenvalues --   -0.67380  -0.67337  -0.66999  -0.65415  -0.65052
 Alpha  occ. eigenvalues --   -0.64948  -0.64716  -0.64518  -0.64426  -0.64377
 Alpha  occ. eigenvalues --   -0.63972  -0.62328  -0.62043  -0.60573  -0.60090
 Alpha  occ. eigenvalues --   -0.59937  -0.59571  -0.59091  -0.58730  -0.58603
 Alpha  occ. eigenvalues --   -0.58159  -0.57645  -0.57401  -0.57234  -0.56974
 Alpha  occ. eigenvalues --   -0.56426  -0.56018  -0.55933  -0.55671  -0.55639
 Alpha  occ. eigenvalues --   -0.55421  -0.55206  -0.55014  -0.54588  -0.54269
 Alpha  occ. eigenvalues --   -0.54037  -0.53724  -0.53424  -0.53352  -0.52999
 Alpha  occ. eigenvalues --   -0.52974  -0.52913  -0.52905  -0.52677  -0.52561
 Alpha  occ. eigenvalues --   -0.52456  -0.52202  -0.52015  -0.51759  -0.51497
 Alpha  occ. eigenvalues --   -0.51445  -0.51291  -0.50931  -0.50753  -0.50271
 Alpha  occ. eigenvalues --   -0.50170  -0.50062  -0.49773  -0.49656  -0.49640
 Alpha  occ. eigenvalues --   -0.49320  -0.49258  -0.49216  -0.48959  -0.48844
 Alpha  occ. eigenvalues --   -0.48673  -0.48580  -0.48527  -0.48310  -0.48147
 Alpha  occ. eigenvalues --   -0.48085  -0.47815  -0.47406  -0.47378  -0.46933
 Alpha  occ. eigenvalues --   -0.46886  -0.46692  -0.46480  -0.46469  -0.46360
 Alpha  occ. eigenvalues --   -0.46244  -0.46030  -0.45894  -0.45819  -0.45542
 Alpha  occ. eigenvalues --   -0.45294  -0.44983  -0.44674  -0.44640  -0.44309
 Alpha  occ. eigenvalues --   -0.44267  -0.44227  -0.44211  -0.44109  -0.43892
 Alpha  occ. eigenvalues --   -0.43846  -0.43676  -0.43554  -0.43508  -0.43329
 Alpha  occ. eigenvalues --   -0.43167  -0.43119  -0.42816  -0.42690  -0.42665
 Alpha  occ. eigenvalues --   -0.42611  -0.42332  -0.42113  -0.41803  -0.41755
 Alpha  occ. eigenvalues --   -0.41669  -0.41379  -0.41259  -0.41247  -0.41006
 Alpha  occ. eigenvalues --   -0.40966  -0.40760  -0.40680  -0.40520  -0.40494
 Alpha  occ. eigenvalues --   -0.40409  -0.40278  -0.40055  -0.39542  -0.39229
 Alpha  occ. eigenvalues --   -0.38584  -0.38144  -0.37899  -0.37484  -0.37433
 Alpha  occ. eigenvalues --   -0.37397  -0.37035  -0.36965  -0.36743  -0.36550
 Alpha  occ. eigenvalues --   -0.36257  -0.35990  -0.34396  -0.33981  -0.33783
 Alpha  occ. eigenvalues --   -0.33609  -0.33287  -0.32902  -0.31466  -0.31144
 Alpha  occ. eigenvalues --   -0.31016  -0.30702  -0.30088  -0.29583  -0.29571
 Alpha  occ. eigenvalues --   -0.29426  -0.29045  -0.28867  -0.24190  -0.23755
 Alpha  occ. eigenvalues --   -0.21246  -0.20843
 Alpha virt. eigenvalues --   -0.08891  -0.08501  -0.01864  -0.01421  -0.00183
 Alpha virt. eigenvalues --    0.00239   0.02103   0.02402   0.02637   0.03600
 Alpha virt. eigenvalues --    0.04588   0.04965   0.05084   0.05427   0.05996

 Mulliken charges:
               1
     1  Mg   0.838561
     2  C   -0.002830
     3  C   -0.095308
     4  C   -0.044971
     5  C   -0.064131
     6  N   -0.256658
     7  C   -0.052929
     8  C   -0.013629
     9  C   -0.086863
    10  C    0.046044
    11  C    0.104805
    12  C    0.051917
    13  C   -0.071871
    14  H    0.036473
    15  N   -0.433269
    16  C    0.168134
    17  C   -0.178387
    18  C   -0.004166
    19  C    0.149229
    20  C    0.110407
    21  C    0.012616
    22  O   -0.248317
    23  C    0.062846
    24  N   -0.341060
    25  C    0.041041
    26  C   -0.028844
    27  C   -0.023783
    28  C    0.074835
    29  C    0.076007
    30  C    0.037413
    31  C   -0.014125
    32  N   -0.310706
    33  C    0.080960
    34  C   -0.169943
    35  C    0.008693
    36  C    0.083510
    37  C    0.127318
    38  C    0.046588
    39  O   -0.186930
    40  C   -0.005574
    41  C    0.213359
    42  O   -0.256601
    43  O   -0.305292
    44  C    0.156119
    45  H   -0.017947
    46  H   -0.016259
    47  H   -0.041669
    48  H    0.001725
    49  H   -0.004924
    50  H    0.025872
    51  H    0.016663
    52  H    0.016651
    53  H    0.009989
    54  H    0.044289
    55  H    0.018972
    56  H    0.016656
    57  H    0.005526
    58  H    0.027262
    59  H    0.036902
    60  H    0.037541
    61  H    0.035859
    62  H    0.028764
    63  H    0.017661
    64  H    0.009775
    65  H    0.023769
    66  H    0.012547
    67  H    0.004831
    68  H    0.006752
    69  H    0.003314
    70  H    0.013819
    71  H    0.020130
    72  H    0.030431
    73  H    0.047777
    74  H    0.008744
    75  H    0.046494
    76  H    0.035298
    77  H    0.043900
    78  H    0.045238
    79  H    0.057370
    80  Mg   0.837032
    81  C   -0.014912
    82  C   -0.088084
    83  C   -0.044970
    84  C   -0.064418
    85  N   -0.254402
    86  C   -0.048806
    87  C   -0.014903
    88  C   -0.091424
    89  C    0.045412
    90  C    0.112476
    91  C    0.062785
    92  C   -0.077136
    93  H    0.034267
    94  N   -0.423439
    95  C    0.162527
    96  C   -0.175346
    97  C   -0.007544
    98  C    0.151308
    99  C    0.099708
   100  C    0.015830
   101  O   -0.253545
   102  C    0.061350
   103  N   -0.350035
   104  C    0.036722
   105  C   -0.019429
   106  C   -0.036097
   107  C    0.089546
   108  C    0.071408
   109  C    0.034645
   110  C   -0.006989
   111  N   -0.325085
   112  C    0.079529
   113  C   -0.160531
   114  C    0.005689
   115  C    0.095946
   116  C    0.129793
   117  C    0.047264
   118  O   -0.186872
   119  C   -0.001111
   120  C    0.210425
   121  O   -0.251801
   122  O   -0.305532
   123  C    0.152318
   124  H   -0.022397
   125  H   -0.015924
   126  H   -0.040433
   127  H   -0.000649
   128  H   -0.006045
   129  H    0.027452
   130  H    0.015360
   131  H    0.011833
   132  H    0.013677
   133  H    0.037860
   134  H    0.019642
   135  H    0.018714
   136  H    0.006618
   137  H    0.024797
   138  H    0.038959
   139  H    0.038114
   140  H    0.035883
   141  H    0.033091
   142  H    0.013580
   143  H    0.011746
   144  H    0.023288
   145  H    0.015689
   146  H    0.005162
   147  H    0.005302
   148  H    0.003570
   149  H    0.010639
   150  H    0.017553
   151  H    0.030450
   152  H    0.045117
   153  H    0.006804
   154  H    0.054254
   155  H    0.041477
   156  H    0.042970
   157  H    0.048501
   158  H    0.053366
 Sum of Mulliken charges =  -0.00000

 Dipole moment (field-independent basis, Debye):
    X=             -4.1226    Y=             -1.5426    Z=             -7.1398  Tot=              8.3876
 Quadrupole moment (field-independent basis, Debye-Ang):
   XX=           -519.9119   YY=           -546.9763   ZZ=           -451.6521
   XY=            -10.2788   XZ=             -3.6489   YZ=            -44.9511

 Normal termination of Gaussian 16 at Thu Sep  9 06:45:40 2021.
