 Gaussian 16, Revision A.03,
 Gaussian 16:  ES64L-G16RevA.03 25-Dec-2016

 -----------------------------------
 #p cam-b3lyp/Def2SVP td=(nstates=5)
 -----------------------------------

 --------------------------------
 TDDFT excited states in gaussian
 --------------------------------
 Symbolic Z-matrix:
 Charge =  0 Multiplicity = 1

                         Standard orientation:
 ---------------------------------------------------------------------
 Center     Atomic      Atomic             Coordinates (Angstroms)
 Number     Number       Type             X           Y           Z
 ---------------------------------------------------------------------
      1         12           0        6.800589    0.277769    0.050762
      2          6           0        6.767584   -3.234871   -0.636615
      3          6           0        7.626164    0.759876   -3.224763
      4          6           0        7.280177    3.336989    0.734712
      5          6           0        7.095812   -0.535471    3.426728
      6          7           0        7.124979   -1.137332   -1.620437
      7          6           0        7.022909   -2.454679   -1.766551
      8          6           0        7.137938   -2.922708   -3.248135
      9          6           0        7.954723   -1.687762   -3.839548
     10          6           0        7.516348   -0.614539   -2.858761
     11          6           0        9.467652   -1.854690   -3.741145
     12          6           0        5.738941   -3.066691   -3.936470
     13          6           0        5.740272   -3.825345   -5.266807
     14          1           0        4.601428   -4.670698   -5.592019
     15          7           0        6.889356    1.856664   -1.133325
     16          6           0        7.227494    1.867173   -2.445132
     17          6           0        7.144761    3.279313   -2.876056
     18          6           0        6.915758    4.112534   -1.663045
     19          6           0        7.047112    3.125320   -0.622116
     20          6           0        7.230521    3.708842   -4.308501
     21          6           0        6.635114    5.569501   -1.471687
     22          8           0        6.699188    6.129532   -0.324154
     23          6           0        6.366280    6.352461   -2.691418
     24          7           0        7.360248    1.271111    1.799386
     25          6           0        7.438994    2.605708    1.839815
     26          6           0        7.576728    3.102120    3.248553
     27          6           0        7.330793    1.835710    4.189550
     28          6           0        7.166008    0.755068    3.092587
     29          6           0        8.924073    3.746759    3.602262
     30          6           0        6.226859    1.965427    5.268865
     31          6           0        4.870392    2.059360    4.606844
     32          7           0        6.736802   -1.539643    1.235663
     33          6           0        6.905598   -1.647574    2.623659
     34          6           0        6.888521   -3.085285    2.950404
     35          6           0        6.726530   -3.718622    1.719758
     36          6           0        6.673759   -2.739763    0.686636
     37          6           0        7.071435   -3.648060    4.244336
     38          6           0        6.610459   -4.995698    1.034586
     39          8           0        6.497029   -6.167384    1.397600
     40          6           0        6.754688   -4.739567   -0.530477
     41          6           0        5.641849   -5.483400   -1.217217
     42          8           0        4.451856   -5.141865   -1.060260
     43          8           0        6.162195   -6.319634   -2.128532
     44          6           0        5.109604   -7.067340   -2.866869
     45          1           0        8.114646    1.017922   -4.166431
     46          1           0        7.340806    4.387051    1.028197
     47          1           0        7.097740   -0.861211    4.468525
     48          1           0        7.701789   -3.844703   -3.391040
     49          1           0        7.632761   -1.432881   -4.849052
     50          1           0        9.734093   -2.739157   -3.162657
     51          1           0        9.828365   -0.952973   -3.245882
     52          1           0        9.922612   -1.854728   -4.731997
     53          1           0        5.405647   -2.087915   -4.281398
     54          1           0        5.021087   -3.529390   -3.258295
     55          1           0        6.673933   -4.368740   -5.414817
     56          1           0        5.720372   -3.095503   -6.076210
     57          1           0        7.565549    2.895595   -4.951098
     58          1           0        8.026680    4.450381   -4.371432
     59          1           0        6.295482    4.142336   -4.663630
     60          1           0        7.223523    6.280984   -3.361176
     61          1           0        6.099423    7.353225   -2.353616
     62          1           0        5.525321    5.903675   -3.220878
     63          1           0        6.828863    3.862396    3.470147
     64          1           0        8.223832    1.565773    4.753722
     65          1           0        8.836347    4.766359    3.978328
     66          1           0        9.558158    3.709695    2.716907
     67          1           0        9.523075    3.188600    4.321339
     68          1           0        6.366145    2.879035    5.845810
     69          1           0        6.209469    1.130303    5.969235
     70          1           0        4.793014    3.117489    4.359441
     71          1           0        4.085685    1.762947    5.303684
     72          1           0        4.845406    1.502933    3.669693
     73          1           0        6.324750   -4.435949    4.342623
     74          1           0        6.957345   -2.894757    5.023516
     75          1           0        8.095210   -4.012916    4.162967
     76          1           0        7.736430   -5.112992   -0.820063
     77          1           0        5.327231   -8.128898   -2.748681
     78          1           0        5.095060   -6.663481   -3.879336
     79          1           0        4.101961   -7.016504   -2.452852
     80         12           0       -6.408946    1.103701    0.377931
     81          6           0       -8.236016   -1.979953    0.199192
     82          6           0       -7.447411    1.730600   -2.810037
     83          6           0       -4.452307    3.601171    0.337537
     84          6           0       -4.624618   -0.268764    3.038420
     85          7           0       -7.675989   -0.051216   -1.019571
     86          6           0       -8.365245   -1.180449   -0.955600
     87          6           0       -9.304921   -1.429867   -2.165698
     88          6           0       -8.542611   -0.526079   -3.252397
     89          6           0       -7.871179    0.472644   -2.311969
     90          6           0       -7.457165   -1.277398   -4.005170
     91          6           0      -10.762797   -0.910316   -1.907449
     92          6           0      -11.806215   -1.394281   -2.916799
     93          1           0      -13.159085   -1.670109   -2.441266
     94          7           0       -6.380528    2.693829   -0.809186
     95          6           0       -6.866998    2.780557   -2.065013
     96          6           0       -6.582142    4.152552   -2.512956
     97          6           0       -5.741745    4.818044   -1.480699
     98          6           0       -5.468953    3.698977   -0.601289
     99          6           0       -7.158832    4.734019   -3.771026
    100          6           0       -5.252551    6.225483   -1.319434
    101          8           0       -4.337907    6.527711   -0.473917
    102          6           0       -5.808998    7.223047   -2.245033
    103          7           0       -4.635048    1.521427    1.378497
    104          6           0       -4.013637    2.703209    1.219898
    105          6           0       -2.916328    2.883949    2.241476
    106          6           0       -3.089863    1.677181    3.276460
    107          6           0       -4.253025    0.924075    2.594339
    108          6           0       -1.489693    2.882250    1.692736
    109          6           0       -3.231158    2.051947    4.777207
    110          6           0       -4.539637    2.773026    5.008121
    111          7           0       -6.526607   -0.697715    1.564991
    112          6           0       -5.664007   -1.086288    2.613330
    113          6           0       -6.075935   -2.440315    3.036833
    114          6           0       -7.143377   -2.757381    2.183308
    115          6           0       -7.366962   -1.685455    1.277512
    116          6           0       -5.452669   -3.220192    4.051465
    117          6           0       -8.124996   -3.759501    1.835620
    118          8           0       -8.470541   -4.839486    2.313085
    119          6           0       -8.794222   -3.352863    0.452452
    120          6           0      -10.285079   -3.486646    0.600682
    121          8           0      -10.911495   -2.747939    1.380773
    122          8           0      -10.750909   -4.309960   -0.356150
    123          6           0      -12.226665   -4.465612   -0.257398
    124          1           0       -7.527485    1.918226   -3.881152
    125          1           0       -3.817395    4.484417    0.438740
    126          1           0       -4.181539   -0.725214    3.926125
    127          1           0       -9.348543   -2.458678   -2.502489
    128          1           0       -9.245966   -0.019108   -3.907863
    129          1           0       -7.297237   -2.266013   -3.601184
    130          1           0       -6.561460   -0.678419   -3.905285
    131          1           0       -7.686739   -1.300291   -5.074324
    132          1           0      -10.798232    0.169061   -2.103505
    133          1           0      -11.082892   -1.152323   -0.912659
    134          1           0      -11.435348   -2.227965   -3.525376
    135          1           0      -11.987092   -0.594731   -3.639308
    136          1           0       -7.602265    3.957603   -4.406598
    137          1           0       -6.319107    5.119703   -4.359229
    138          1           0       -7.857994    5.549996   -3.575996
    139          1           0       -5.594197    6.925367   -3.268609
    140          1           0       -5.406898    8.183252   -1.916065
    141          1           0       -6.899738    7.227013   -2.140741
    142          1           0       -3.032235    3.821172    2.771823
    143          1           0       -2.224078    0.998960    3.260432
    144          1           0       -0.924202    3.799314    1.944277
    145          1           0       -1.536624    2.746562    0.620385
    146          1           0       -0.875568    2.039530    2.005571
    147          1           0       -2.438868    2.744982    5.070699
    148          1           0       -3.174392    1.197284    5.443029
    149          1           0       -4.303873    3.805825    4.734554
    150          1           0       -4.838506    2.699580    6.051832
    151          1           0       -5.312440    2.417148    4.316909
    152          1           0       -6.247862   -3.662883    4.636433
    153          1           0       -4.793154   -2.614596    4.669575
    154          1           0       -4.898029   -3.933570    3.436059
    155          1           0       -8.397274   -4.021258   -0.312571
    156          1           0      -12.430176   -5.537919   -0.177285
    157          1           0      -12.642172   -3.938351   -1.136660
    158          1           0      -12.711454   -4.090977    0.636514
 ---------------------------------------------------------------------

 SCF Done:  E(RCAM-B3LYP) =  -4069.81171201     A.U. after   19 cycles

 Excitation energies and oscillator strengths:

 Excited State   1:      Singlet-A      1.6652 eV  744.56 nm  f=0.0085  <S**2>=0.000
     309 -> 315       -0.10854
     310 -> 316        0.13259
     311 -> 313       -0.43358
     312 -> 314        0.53242
 This state for optimization and/or second-order correction.
 Total Energy, E(TD-HF/TD-DFT) =  -4069.75051690
 Copying the excited state density for this state as the 1-particle RhoCI density.

 Excited State   2:      Singlet-A      1.6896 eV  733.81 nm  f=0.7342  <S**2>=0.000
     309 -> 315        0.13814
     310 -> 316        0.11188
     311 -> 313        0.53123
     312 -> 314        0.43266

 Excited State   3:      Singlet-A      2.1849 eV  567.47 nm  f=0.0689  <S**2>=0.000
     309 -> 313       -0.15529
     310 -> 314        0.62393
     312 -> 316       -0.26426

 Excited State   4:      Singlet-A      2.1937 eV  565.19 nm  f=0.1257  <S**2>=0.000
     309 -> 313        0.62163
     310 -> 314        0.15372
     311 -> 315       -0.27079

 Excited State   5:      Singlet-A      2.6530 eV  467.34 nm  f=0.0000  <S**2>=0.000
     312 -> 313        0.70697

 The electronic state is 1-A.
 Alpha  occ. eigenvalues --  -46.87829 -46.87547 -19.26302 -19.26261 -19.19069
 Alpha  occ. eigenvalues --  -19.19041 -19.18817 -19.18624 -19.18190 -19.17937
 Alpha  occ. eigenvalues --  -14.42480 -14.42388 -14.41483 -14.41241 -14.39431
 Alpha  occ. eigenvalues --  -14.39242 -14.38619 -14.38484 -10.39101 -10.38996
 Alpha  occ. eigenvalues --  -10.35449 -10.35304 -10.34411 -10.34114 -10.31692
 Alpha  occ. eigenvalues --  -10.31678 -10.31437 -10.31198 -10.30934 -10.30924
 Alpha  occ. eigenvalues --  -10.30601 -10.30537 -10.30280 -10.30245 -10.30239
 Alpha  occ. eigenvalues --  -10.30024 -10.29955 -10.29768 -10.29657 -10.29326
 Alpha  occ. eigenvalues --  -10.29289 -10.29281 -10.28776 -10.28630 -10.28589
 Alpha  occ. eigenvalues --  -10.28570 -10.28391 -10.28297 -10.28145 -10.28049
 Alpha  occ. eigenvalues --  -10.27887 -10.27818 -10.27757 -10.27607 -10.27563
 Alpha  occ. eigenvalues --  -10.27547 -10.27498 -10.27488 -10.27432 -10.27395
 Alpha  occ. eigenvalues --  -10.27381 -10.27373 -10.27360 -10.27239 -10.27181
 Alpha  occ. eigenvalues --  -10.26942 -10.26735 -10.26615 -10.26392 -10.26352
 Alpha  occ. eigenvalues --  -10.26259 -10.26256 -10.26055 -10.26022 -10.25936
 Alpha  occ. eigenvalues --  -10.25873 -10.25811 -10.25688 -10.25463 -10.25236
 Alpha  occ. eigenvalues --  -10.24859 -10.24817 -10.24793 -10.24756 -10.24627
 Alpha  occ. eigenvalues --  -10.24574  -3.16572  -3.16297  -1.91454  -1.91179
 Alpha  occ. eigenvalues --   -1.91040  -1.90882  -1.90768  -1.90605  -1.16651
 Alpha  occ. eigenvalues --   -1.16554  -1.08648  -1.08544  -1.07216  -1.06879
 Alpha  occ. eigenvalues --   -1.06852  -1.06663  -1.04610  -1.04387  -1.03792
 Alpha  occ. eigenvalues --   -1.03550  -1.03264  -1.02922  -1.02442  -1.01996
 Alpha  occ. eigenvalues --   -0.91999  -0.91876  -0.89563  -0.89376  -0.89217
 Alpha  occ. eigenvalues --   -0.89058  -0.88328  -0.88097  -0.87898  -0.87703
 Alpha  occ. eigenvalues --   -0.87665  -0.87574  -0.87290  -0.87028  -0.85010
 Alpha  occ. eigenvalues --   -0.84903  -0.83983  -0.83754  -0.82981  -0.82841
 Alpha  occ. eigenvalues --   -0.82672  -0.82558  -0.81610  -0.81493  -0.80621
 Alpha  occ. eigenvalues --   -0.80340  -0.78819  -0.78531  -0.77253  -0.77041
 Alpha  occ. eigenvalues --   -0.76965  -0.76795  -0.75950  -0.75740  -0.74933
 Alpha  occ. eigenvalues --   -0.74679  -0.72805  -0.72582  -0.71701  -0.71467
 Alpha  occ. eigenvalues --   -0.69965  -0.69639  -0.68899  -0.68730  -0.67666
 Alpha  occ. eigenvalues --   -0.67493  -0.67242  -0.67113  -0.65316  -0.65174
 Alpha  occ. eigenvalues --   -0.64884  -0.64660  -0.64652  -0.64551  -0.64309
 Alpha  occ. eigenvalues --   -0.64086  -0.62323  -0.62176  -0.60464  -0.60236
 Alpha  occ. eigenvalues --   -0.59832  -0.59696  -0.59018  -0.58879  -0.58532
 Alpha  occ. eigenvalues --   -0.58315  -0.57609  -0.57446  -0.57338  -0.57124
 Alpha  occ. eigenvalues --   -0.56334  -0.56095  -0.56000  -0.55792  -0.55538
 Alpha  occ. eigenvalues --   -0.55376  -0.55356  -0.55129  -0.54558  -0.54376
 Alpha  occ. eigenvalues --   -0.53923  -0.53820  -0.53324  -0.53241  -0.53121
 Alpha  occ. eigenvalues --   -0.53044  -0.52943  -0.52803  -0.52771  -0.52586
 Alpha  occ. eigenvalues --   -0.52498  -0.52288  -0.51944  -0.51742  -0.51638
 Alpha  occ. eigenvalues --   -0.51569  -0.51228  -0.51091  -0.50582  -0.50392
 Alpha  occ. eigenvalues --   -0.50074  -0.49935  -0.49884  -0.49749  -0.49534
 Alpha  occ. eigenvalues --   -0.49394  -0.49237  -0.49121  -0.49102  -0.48999
 Alpha  occ. eigenvalues --   -0.48619  -0.48491  -0.48458  -0.48454  -0.48249
 Alpha  occ. eigenvalues --   -0.48246  -0.47721  -0.47496  -0.47320  -0.47013
 Alpha  occ. eigenvalues --   -0.46833  -0.46598  -0.46582  -0.46460  -0.46390
 Alpha  occ. eigenvalues --   -0.46193  -0.46158  -0.45962  -0.45848  -0.45706
 Alpha  occ. eigenvalues --   -0.45238  -0.45085  -0.44604  -0.44532  -0.44412
 Alpha  occ. eigenvalues --   -0.44371  -0.44181  -0.44114  -0.44038  -0.44027
 Alpha  occ. eigenvalues --   -0.43971  -0.43843  -0.43521  -0.43450  -0.43416
 Alpha  occ. eigenvalues --   -0.43279  -0.43057  -0.42832  -0.42788  -0.42733
 Alpha  occ. eigenvalues --   -0.42693  -0.42440  -0.42054  -0.41857  -0.41732
 Alpha  occ. eigenvalues --   -0.41563  -0.41559  -0.41361  -0.41169  -0.40905
 Alpha  occ. eigenvalues --   -0.40880  -0.40832  -0.40635  -0.40612  -0.40604
 Alpha  occ. eigenvalues --   -0.40376  -0.40260  -0.40146  -0.39505  -0.39307
 Alpha  occ. eigenvalues --   -0.38509  -0.38230  -0.37778  -0.37564  -0.37358
 Alpha  occ. eigenvalues --   -0.37292  -0.37150  -0.37099  -0.36740  -0.36672
 Alpha  occ. eigenvalues --   -0.36224  -0.36105  -0.34317  -0.34140  -0.33793
 Alpha  occ. eigenvalues --   -0.33766  -0.33216  -0.33062  -0.31348  -0.31182
 Alpha  occ. eigenvalues --   -0.31063  -0.30862  -0.30050  -0.29841  -0.29472
 Alpha  occ. eigenvalues --   -0.29349  -0.29222  -0.29093  -0.24111  -0.23921
 Alpha  occ. eigenvalues --   -0.21158  -0.21004
 Alpha virt. eigenvalues --   -0.08800  -0.08680  -0.01779  -0.01571  -0.00074
 Alpha virt. eigenvalues --    0.00069   0.02175   0.02325   0.03067   0.03329
 Alpha virt. eigenvalues --    0.04686   0.04835   0.05077   0.05261   0.06146

 Mulliken charges:
               1
     1  Mg   0.838292
     2  C   -0.002975
     3  C   -0.094084
     4  C   -0.045859
     5  C   -0.064155
     6  N   -0.256757
     7  C   -0.052538
     8  C   -0.013964
     9  C   -0.087019
    10  C    0.046328
    11  C    0.104794
    12  C    0.053481
    13  C   -0.071768
    14  H    0.036050
    15  N   -0.433209
    16  C    0.168489
    17  C   -0.177041
    18  C   -0.003804
    19  C    0.148716
    20  C    0.110182
    21  C    0.012615
    22  O   -0.249352
    23  C    0.062339
    24  N   -0.341046
    25  C    0.041129
    26  C   -0.028257
    27  C   -0.023935
    28  C    0.074579
    29  C    0.076111
    30  C    0.035224
    31  C   -0.004555
    32  N   -0.310405
    33  C    0.080105
    34  C   -0.169977
    35  C    0.008424
    36  C    0.082742
    37  C    0.127354
    38  C    0.046047
    39  O   -0.188263
    40  C   -0.005310
    41  C    0.212964
    42  O   -0.257234
    43  O   -0.304782
    44  C    0.157621
    45  H   -0.017530
    46  H   -0.016651
    47  H   -0.041633
    48  H    0.001015
    49  H   -0.004060
    50  H    0.025549
    51  H    0.016490
    52  H    0.016700
    53  H    0.011117
    54  H    0.044091
    55  H    0.017966
    56  H    0.017853
    57  H    0.005782
    58  H    0.026941
    59  H    0.039747
    60  H    0.037153
    61  H    0.036207
    62  H    0.031820
    63  H    0.016566
    64  H    0.009625
    65  H    0.023399
    66  H    0.012681
    67  H    0.004814
    68  H    0.006570
    69  H    0.004704
    70  H    0.009014
    71  H    0.016929
    72  H    0.028774
    73  H    0.047518
    74  H    0.008898
    75  H    0.046163
    76  H    0.035245
    77  H    0.043139
    78  H    0.046310
    79  H    0.053799
    80  Mg   0.837987
    81  C   -0.016887
    82  C   -0.088033
    83  C   -0.045651
    84  C   -0.063986
    85  N   -0.254552
    86  C   -0.049697
    87  C   -0.015113
    88  C   -0.090519
    89  C    0.045773
    90  C    0.114454
    91  C    0.062573
    92  C   -0.077734
    93  H    0.034662
    94  N   -0.423417
    95  C    0.162835
    96  C   -0.175033
    97  C   -0.008033
    98  C    0.152038
    99  C    0.099562
   100  C    0.015275
   101  O   -0.253176
   102  C    0.061276
   103  N   -0.349975
   104  C    0.037592
   105  C   -0.019933
   106  C   -0.034973
   107  C    0.088992
   108  C    0.073335
   109  C    0.034667
   110  C   -0.007619
   111  N   -0.324229
   112  C    0.078500
   113  C   -0.162599
   114  C    0.002387
   115  C    0.096300
   116  C    0.131518
   117  C    0.042641
   118  O   -0.187710
   119  C    0.000832
   120  C    0.211210
   121  O   -0.251164
   122  O   -0.305592
   123  C    0.152103
   124  H   -0.020180
   125  H   -0.015571
   126  H   -0.039875
   127  H   -0.000685
   128  H   -0.004672
   129  H    0.022718
   130  H    0.014495
   131  H    0.015756
   132  H    0.013832
   133  H    0.037676
   134  H    0.020714
   135  H    0.019387
   136  H    0.008478
   137  H    0.025502
   138  H    0.039476
   139  H    0.037808
   140  H    0.036168
   141  H    0.033808
   142  H    0.014173
   143  H    0.013596
   144  H    0.025447
   145  H    0.011456
   146  H    0.006629
   147  H    0.006031
   148  H    0.003738
   149  H    0.010821
   150  H    0.017628
   151  H    0.030050
   152  H    0.045748
   153  H    0.008651
   154  H    0.048419
   155  H    0.035236
   156  H    0.043854
   157  H    0.049316
   158  H    0.053482
 Sum of Mulliken charges =  -0.00000

 Dipole moment (field-independent basis, Debye):
    X=              2.4820    Y=              3.5797    Z=             -7.6503  Tot=              8.8035
 Quadrupole moment (field-independent basis, Debye-Ang):
   XX=           -483.0840   YY=           -562.4060   ZZ=           -448.8417
   XY=            -11.7470   XZ=             29.2597   YZ=             13.2952

 Normal termination of Gaussian 16 at Sat Sep 11 15:58:53 2021.
