 Gaussian 16, Revision A.03,
 Gaussian 16:  ES64L-G16RevA.03 25-Dec-2016

 -----------------------------------
 #p cam-b3lyp/Def2SVP td=(nstates=5)
 -----------------------------------

 --------------------------------
 TDDFT excited states in gaussian
 --------------------------------
 Symbolic Z-matrix:
 Charge =  0 Multiplicity = 1

                         Standard orientation:
 ---------------------------------------------------------------------
 Center     Atomic      Atomic             Coordinates (Angstroms)
 Number     Number       Type             X           Y           Z
 ---------------------------------------------------------------------
      1         12           0       -6.523062    0.607787   -0.513346
      2          6           0       -6.764904   -2.717240    0.789697
      3          6           0       -7.625528    1.716841    2.519414
      4          6           0       -6.752345    3.506611   -1.778601
      5          6           0       -6.544543   -0.798534   -3.701991
      6          7           0       -7.088361   -0.461763    1.340609
      7          6           0       -7.079335   -1.732965    1.729368
      8          6           0       -7.362138   -1.915848    3.250535
      9          6           0       -8.156277   -0.560582    3.523655
     10          6           0       -7.563610    0.295244    2.418109
     11          6           0       -9.660289   -0.679975    3.299611
     12          6           0       -6.045857   -1.988780    4.095411
     13          6           0       -6.218651   -2.489569    5.532320
     14          1           0       -5.168240   -3.307240    6.120026
     15          7           0       -6.629507    2.379540    0.354070
     16          6           0       -7.089373    2.644707    1.600464
     17          6           0       -6.963868    4.107305    1.778608
     18          6           0       -6.571524    4.693446    0.466891
     19          6           0       -6.662125    3.538194   -0.389008
     20          6           0       -7.159413    4.795707    3.094516
     21          6           0       -6.187629    6.077626    0.048799
     22          8           0       -6.109017    6.419611   -1.180608
     23          6           0       -5.989559    7.059413    1.130420
     24          7           0       -6.854039    1.285490   -2.459832
     25          6           0       -6.848889    2.592073   -2.745837
     26          6           0       -6.822477    2.826667   -4.227123
     27          6           0       -6.564294    1.399941   -4.896114
     28          6           0       -6.569068    0.533195   -3.612759
     29          6           0       -8.089339    3.450609   -4.828595
     30          6           0       -5.357158    1.283485   -5.860313
     31          6           0       -4.066459    1.441146   -5.088084
     32          7           0       -6.455582   -1.397336   -1.341580
     33          6           0       -6.498035   -1.751190   -2.697921
     34          6           0       -6.535769   -3.223906   -2.759176
     35          6           0       -6.529339   -3.626680   -1.425168
     36          6           0       -6.516583   -2.477815   -0.583599
     37          6           0       -6.628293   -4.006621   -3.943756
     38          6           0       -6.555154   -4.759939   -0.514720
     39          8           0       -6.477841   -5.982030   -0.648917
     40          6           0       -6.831722   -4.215067    0.955808
     41          6           0       -5.835407   -4.865579    1.876405
     42          8           0       -4.617654   -4.608217    1.785799
     43          8           0       -6.488808   -5.498013    2.863136
     44          6           0       -5.557488   -6.140362    3.828632
     45          1           0       -8.184909    2.163385    3.343813
     46          1           0       -6.722141    4.486532   -2.259518
     47          1           0       -6.467016   -1.309650   -4.663346
     48          1           0       -7.990964   -2.771791    3.496225
     49          1           0       -7.916946   -0.138234    4.499393
     50          1           0       -9.922884   -1.643820    2.863757
     51          1           0       -9.917974    0.129625    2.616502
     52          1           0      -10.206413   -0.479260    4.221695
     53          1           0       -5.689044   -0.977962    4.292874
     54          1           0       -5.295754   -2.597436    3.589239
     55          1           0       -7.192872   -2.957435    5.676904
     56          1           0       -6.232175   -1.624985    6.196030
     57          1           0       -7.601793    4.128842    3.833526
     58          1           0       -7.912320    5.568500    2.940794
     59          1           0       -6.238121    5.247956    3.461971
     60          1           0       -6.909220    7.147662    1.709200
     61          1           0       -5.632665    7.969225    0.649050
     62          1           0       -5.230896    6.681050    1.816147
     63          1           0       -6.012970    3.501718   -4.501768
     64          1           0       -7.414262    1.068206   -5.492922
     65          1           0       -7.905693    4.379310   -5.369422
     66          1           0       -8.805655    3.603003   -4.021775
     67          1           0       -8.649605    2.795192   -5.494889
     68          1           0       -5.386352    2.080603   -6.602402
     69          1           0       -5.323203    0.333977   -6.394665
     70          1           0       -3.949965    2.522586   -5.026859
     71          1           0       -3.238240    0.989611   -5.635241
     72          1           0       -4.163735    1.065691   -4.069233
     73          1           0       -5.923956   -4.829380   -3.821504
     74          1           0       -6.396072   -3.414562   -4.828709
     75          1           0       -7.675092   -4.307645   -3.905631
     76          1           0       -7.857022   -4.488017    1.203560
     77          1           0       -5.825815   -7.195641    3.879839
     78          1           0       -5.615039   -5.558431    4.748659
     79          1           0       -4.513874   -6.208154    3.519421
     80         12           0        6.680708    0.803129    0.398418
     81          6           0        6.642400   -2.325106   -1.359904
     82          6           0        5.637901   -0.906745    3.159479
     83          6           0        6.270761    3.594565    1.850054
     84          6           0        6.601630    2.389093   -2.703867
     85          7           0        6.233457   -1.337186    0.731939
     86          6           0        6.313984   -2.442618    0.006763
     87          6           0        6.104897   -3.754885    0.809130
     88          6           0        5.250345   -3.156630    2.030076
     89          6           0        5.759263   -1.716881    2.002299
     90          6           0        3.753941   -3.139468    1.765872
     91          6           0        7.458554   -4.374591    1.304717
     92          6           0        7.356313   -5.810019    1.825140
     93          1           0        8.471288   -6.720501    1.579534
     94          7           0        6.525393    1.236148    2.328946
     95          6           0        6.106435    0.416282    3.315640
     96          6           0        6.154543    1.215074    4.550063
     97          6           0        6.478684    2.621293    4.186487
     98          6           0        6.415644    2.541044    2.740921
     99          6           0        5.984013    0.614350    5.915153
    100          6           0        6.781125    3.839951    5.004786
    101          8           0        6.799807    5.011810    4.485907
    102          6           0        6.962634    3.631557    6.448779
    103          7           0        6.253824    2.710947   -0.308947
    104          6           0        6.180522    3.759027    0.530158
    105          6           0        6.138237    5.063699   -0.229058
    106          6           0        6.443480    4.684416   -1.752390
    107          6           0        6.524779    3.147851   -1.619183
    108          6           0        4.821632    5.836283   -0.151232
    109          6           0        7.619267    5.429861   -2.441234
    110          6           0        8.930608    5.019312   -1.810970
    111          7           0        6.816467    0.186169   -1.667734
    112          6           0        6.734403    1.010611   -2.811264
    113          6           0        6.764586    0.122450   -3.991386
    114          6           0        6.839515   -1.168809   -3.447749
    115          6           0        6.834567   -1.092036   -2.028747
    116          6           0        6.675898    0.540014   -5.349285
    117          6           0        6.910949   -2.579945   -3.751544
    118          8           0        7.033797   -3.241673   -4.781483
    119          6           0        6.658941   -3.398525   -2.412584
    120          6           0        7.717824   -4.462101   -2.312134
    121          8           0        8.913262   -4.152001   -2.165970
    122          8           0        7.125121   -5.663518   -2.186961
    123          6           0        8.134483   -6.749784   -2.072755
    124          1           0        5.095340   -1.305243    4.017213
    125          1           0        6.236801    4.590100    2.298646
    126          1           0        6.679722    2.811956   -3.707742
    127          1           0        5.532959   -4.516659    0.293034
    128          1           0        5.514036   -3.636213    2.969140
    129          1           0        3.520793   -3.423961    0.750566
    130          1           0        3.433037   -2.123885    1.957388
    131          1           0        3.234494   -3.763006    2.499151
    132          1           0        7.771083   -3.863174    2.224240
    133          1           0        8.205813   -4.320909    0.537028
    134          1           0        6.406136   -6.282373    1.547649
    135          1           0        7.332984   -5.782351    2.917247
    136          1           0        5.594403   -0.409549    5.858248
    137          1           0        5.190649    1.179383    6.416321
    138          1           0        6.893305    0.671919    6.517266
    139          1           0        6.063878    3.182363    6.864609
    140          1           0        7.258993    4.602979    6.849251
    141          1           0        7.773491    2.910044    6.598923
    142          1           0        6.905011    5.741986    0.124636
    143          1           0        5.584647    4.898219   -2.405477
    144          1           0        4.941762    6.865476    0.236595
    145          1           0        4.132659    5.275289    0.466123
    146          1           0        4.277196    5.916779   -1.090547
    147          1           0        7.525575    6.507854   -2.288555
    148          1           0        7.670917    5.259467   -3.511419
    149          1           0        8.991972    5.662336   -0.927891
    150          1           0        9.758068    5.205074   -2.492764
    151          1           0        8.891037    3.981305   -1.460793
    152          1           0        7.415165   -0.027727   -5.898521
    153          1           0        6.842143    1.610739   -5.447653
    154          1           0        5.641851    0.263067   -5.571356
    155          1           0        5.656224   -3.823461   -2.472208
    156          1           0        7.915320   -7.473989   -2.863438
    157          1           0        8.069796   -7.109127   -1.028509
    158          1           0        9.165805   -6.500909   -2.293843
 ---------------------------------------------------------------------

 SCF Done:  E(RCAM-B3LYP) =  -4069.81189663     A.U. after   19 cycles

 Excitation energies and oscillator strengths:

 Excited State   1:      Singlet-A      1.6694 eV  742.69 nm  f=0.1378  <S**2>=0.000
     309 -> 315       -0.10180
     310 -> 316        0.13879
     311 -> 313       -0.40409
     312 -> 314        0.55485
 This state for optimization and/or second-order correction.
 Total Energy, E(TD-HF/TD-DFT) =  -4069.75054746
 Copying the excited state density for this state as the 1-particle RhoCI density.

 Excited State   2:      Singlet-A      1.6846 eV  735.97 nm  f=0.6000  <S**2>=0.000
     309 -> 315        0.14309
     310 -> 316        0.10314
     311 -> 313        0.55397
     312 -> 314        0.40350

 Excited State   3:      Singlet-A      2.1845 eV  567.56 nm  f=0.0729  <S**2>=0.000
     309 -> 313       -0.14179
     310 -> 314        0.62718
     312 -> 316       -0.26483

 Excited State   4:      Singlet-A      2.1934 eV  565.25 nm  f=0.1213  <S**2>=0.000
     309 -> 313        0.62484
     310 -> 314        0.14055
     311 -> 315       -0.27207

 Excited State   5:      Singlet-A      2.6466 eV  468.47 nm  f=0.0000  <S**2>=0.000
     312 -> 313        0.70710

 The electronic state is 1-A.
 Alpha  occ. eigenvalues --  -46.87859 -46.87544 -19.26412 -19.26203 -19.19146
 Alpha  occ. eigenvalues --  -19.19026 -19.18863 -19.18642 -19.18241 -19.17931
 Alpha  occ. eigenvalues --  -14.42516 -14.42370 -14.41507 -14.41246 -14.39463
 Alpha  occ. eigenvalues --  -14.39241 -14.38649 -14.38484 -10.39201 -10.38953
 Alpha  occ. eigenvalues --  -10.35496 -10.35322 -10.34463 -10.34105 -10.31828
 Alpha  occ. eigenvalues --  -10.31611 -10.31474 -10.31171 -10.30981 -10.30895
 Alpha  occ. eigenvalues --  -10.30632 -10.30565 -10.30290 -10.30258 -10.30243
 Alpha  occ. eigenvalues --  -10.30038 -10.29975 -10.29786 -10.29688 -10.29330
 Alpha  occ. eigenvalues --  -10.29310 -10.29297 -10.28842 -10.28679 -10.28549
 Alpha  occ. eigenvalues --  -10.28501 -10.28430 -10.28288 -10.28198 -10.27952
 Alpha  occ. eigenvalues --  -10.27891 -10.27851 -10.27790 -10.27641 -10.27542
 Alpha  occ. eigenvalues --  -10.27538 -10.27534 -10.27490 -10.27472 -10.27427
 Alpha  occ. eigenvalues --  -10.27388 -10.27366 -10.27361 -10.27286 -10.27244
 Alpha  occ. eigenvalues --  -10.26910 -10.26828 -10.26544 -10.26448 -10.26369
 Alpha  occ. eigenvalues --  -10.26306 -10.26208 -10.26072 -10.26060 -10.25881
 Alpha  occ. eigenvalues --  -10.25826 -10.25755 -10.25754 -10.25470 -10.25313
 Alpha  occ. eigenvalues --  -10.24893 -10.24846 -10.24761 -10.24713 -10.24658
 Alpha  occ. eigenvalues --  -10.24582  -3.16601  -3.16294  -1.91483  -1.91176
 Alpha  occ. eigenvalues --   -1.91070  -1.90912  -1.90765  -1.90602  -1.16760
 Alpha  occ. eigenvalues --   -1.16500  -1.08702  -1.08535  -1.07264  -1.06896
 Alpha  occ. eigenvalues --   -1.06810  -1.06767  -1.04648  -1.04367  -1.03820
 Alpha  occ. eigenvalues --   -1.03547  -1.03293  -1.02928  -1.02471  -1.01997
 Alpha  occ. eigenvalues --   -0.92042  -0.91863  -0.89569  -0.89392  -0.89273
 Alpha  occ. eigenvalues --   -0.88982  -0.88335  -0.88122  -0.87925  -0.87741
 Alpha  occ. eigenvalues --   -0.87685  -0.87560  -0.87327  -0.87032  -0.85064
 Alpha  occ. eigenvalues --   -0.84855  -0.83984  -0.83781  -0.83014  -0.82855
 Alpha  occ. eigenvalues --   -0.82725  -0.82521  -0.81677  -0.81469  -0.80671
 Alpha  occ. eigenvalues --   -0.80323  -0.78852  -0.78536  -0.77282  -0.77021
 Alpha  occ. eigenvalues --   -0.77017  -0.76763  -0.76004  -0.75689  -0.74952
 Alpha  occ. eigenvalues --   -0.74696  -0.72832  -0.72585  -0.71737  -0.71450
 Alpha  occ. eigenvalues --   -0.69947  -0.69665  -0.68950  -0.68691  -0.67706
 Alpha  occ. eigenvalues --   -0.67491  -0.67306  -0.67077  -0.65370  -0.65128
 Alpha  occ. eigenvalues --   -0.64926  -0.64694  -0.64651  -0.64525  -0.64322
 Alpha  occ. eigenvalues --   -0.64100  -0.62392  -0.62151  -0.60495  -0.60246
 Alpha  occ. eigenvalues --   -0.59881  -0.59647  -0.59051  -0.58876  -0.58569
 Alpha  occ. eigenvalues --   -0.58309  -0.57670  -0.57425  -0.57369  -0.57133
 Alpha  occ. eigenvalues --   -0.56373  -0.56093  -0.56083  -0.55755  -0.55582
 Alpha  occ. eigenvalues --   -0.55403  -0.55343  -0.55139  -0.54600  -0.54375
 Alpha  occ. eigenvalues --   -0.53982  -0.53751  -0.53358  -0.53296  -0.53123
 Alpha  occ. eigenvalues --   -0.53020  -0.52996  -0.52819  -0.52778  -0.52563
 Alpha  occ. eigenvalues --   -0.52478  -0.52313  -0.51966  -0.51780  -0.51698
 Alpha  occ. eigenvalues --   -0.51527  -0.51264  -0.51083  -0.50620  -0.50395
 Alpha  occ. eigenvalues --   -0.50079  -0.49977  -0.49858  -0.49768  -0.49586
 Alpha  occ. eigenvalues --   -0.49369  -0.49283  -0.49174  -0.49078  -0.48950
 Alpha  occ. eigenvalues --   -0.48671  -0.48517  -0.48506  -0.48423  -0.48278
 Alpha  occ. eigenvalues --   -0.48242  -0.47762  -0.47475  -0.47358  -0.47014
 Alpha  occ. eigenvalues --   -0.46859  -0.46641  -0.46591  -0.46420  -0.46407
 Alpha  occ. eigenvalues --   -0.46226  -0.46164  -0.45975  -0.45898  -0.45696
 Alpha  occ. eigenvalues --   -0.45251  -0.45106  -0.44651  -0.44570  -0.44395
 Alpha  occ. eigenvalues --   -0.44342  -0.44204  -0.44163  -0.44088  -0.43985
 Alpha  occ. eigenvalues --   -0.43979  -0.43831  -0.43579  -0.43455  -0.43426
 Alpha  occ. eigenvalues --   -0.43256  -0.43092  -0.42804  -0.42802  -0.42775
 Alpha  occ. eigenvalues --   -0.42709  -0.42458  -0.42071  -0.41851  -0.41771
 Alpha  occ. eigenvalues --   -0.41616  -0.41546  -0.41325  -0.41207  -0.40943
 Alpha  occ. eigenvalues --   -0.40883  -0.40852  -0.40625  -0.40624  -0.40569
 Alpha  occ. eigenvalues --   -0.40379  -0.40336  -0.40086  -0.39480  -0.39336
 Alpha  occ. eigenvalues --   -0.38524  -0.38243  -0.37847  -0.37517  -0.37374
 Alpha  occ. eigenvalues --   -0.37346  -0.37155  -0.37064  -0.36814  -0.36642
 Alpha  occ. eigenvalues --   -0.36270  -0.36099  -0.34349  -0.34135  -0.33885
 Alpha  occ. eigenvalues --   -0.33731  -0.33251  -0.33061  -0.31394  -0.31199
 Alpha  occ. eigenvalues --   -0.31099  -0.30855  -0.30102  -0.29833  -0.29507
 Alpha  occ. eigenvalues --   -0.29381  -0.29227  -0.29101  -0.24143  -0.23918
 Alpha  occ. eigenvalues --   -0.21187  -0.21002
 Alpha virt. eigenvalues --   -0.08834  -0.08682  -0.01809  -0.01573  -0.00117
 Alpha virt. eigenvalues --    0.00075   0.02138   0.02320   0.03053   0.03329
 Alpha virt. eigenvalues --    0.04639   0.04866   0.04984   0.05301   0.06064

 Mulliken charges:
               1
     1  Mg   0.838581
     2  C   -0.003264
     3  C   -0.094281
     4  C   -0.045762
     5  C   -0.063725
     6  N   -0.256768
     7  C   -0.052612
     8  C   -0.013996
     9  C   -0.086971
    10  C    0.046203
    11  C    0.104776
    12  C    0.053544
    13  C   -0.071437
    14  H    0.034870
    15  N   -0.433167
    16  C    0.168425
    17  C   -0.177138
    18  C   -0.003880
    19  C    0.148675
    20  C    0.110146
    21  C    0.012334
    22  O   -0.249532
    23  C    0.062443
    24  N   -0.341113
    25  C    0.041259
    26  C   -0.028199
    27  C   -0.024019
    28  C    0.074788
    29  C    0.076125
    30  C    0.035066
    31  C   -0.004574
    32  N   -0.310467
    33  C    0.080324
    34  C   -0.169516
    35  C    0.008306
    36  C    0.082913
    37  C    0.127294
    38  C    0.046035
    39  O   -0.188528
    40  C   -0.005354
    41  C    0.212960
    42  O   -0.257799
    43  O   -0.304539
    44  C    0.157938
    45  H   -0.017572
    46  H   -0.016691
    47  H   -0.041136
    48  H    0.000934
    49  H   -0.004192
    50  H    0.025527
    51  H    0.016654
    52  H    0.016699
    53  H    0.011078
    54  H    0.043557
    55  H    0.018212
    56  H    0.018000
    57  H    0.005771
    58  H    0.026985
    59  H    0.039663
    60  H    0.037397
    61  H    0.035831
    62  H    0.031621
    63  H    0.016593
    64  H    0.009633
    65  H    0.023323
    66  H    0.012536
    67  H    0.004917
    68  H    0.006515
    69  H    0.005090
    70  H    0.008594
    71  H    0.018631
    72  H    0.028746
    73  H    0.047695
    74  H    0.009485
    75  H    0.046086
    76  H    0.035266
    77  H    0.043094
    78  H    0.046259
    79  H    0.052832
    80  Mg   0.837967
    81  C   -0.016777
    82  C   -0.087626
    83  C   -0.045814
    84  C   -0.064998
    85  N   -0.254677
    86  C   -0.049273
    87  C   -0.015209
    88  C   -0.090625
    89  C    0.045921
    90  C    0.114371
    91  C    0.062488
    92  C   -0.077833
    93  H    0.034372
    94  N   -0.423477
    95  C    0.162889
    96  C   -0.174768
    97  C   -0.008178
    98  C    0.152203
    99  C    0.099499
   100  C    0.015282
   101  O   -0.253598
   102  C    0.061307
   103  N   -0.350061
   104  C    0.037632
   105  C   -0.019836
   106  C   -0.034803
   107  C    0.089024
   108  C    0.073690
   109  C    0.034789
   110  C   -0.007612
   111  N   -0.324159
   112  C    0.078620
   113  C   -0.163223
   114  C    0.002429
   115  C    0.096207
   116  C    0.131457
   117  C    0.042402
   118  O   -0.187844
   119  C    0.000943
   120  C    0.211172
   121  O   -0.251367
   122  O   -0.305205
   123  C    0.152147
   124  H   -0.019457
   125  H   -0.016024
   126  H   -0.040696
   127  H    0.000318
   128  H   -0.004687
   129  H    0.023951
   130  H    0.014478
   131  H    0.017541
   132  H    0.013535
   133  H    0.037386
   134  H    0.021625
   135  H    0.019359
   136  H    0.008879
   137  H    0.025529
   138  H    0.039440
   139  H    0.037882
   140  H    0.035935
   141  H    0.033905
   142  H    0.014102
   143  H    0.012488
   144  H    0.024706
   145  H    0.011583
   146  H    0.005944
   147  H    0.006056
   148  H    0.003550
   149  H    0.010764
   150  H    0.017716
   151  H    0.030232
   152  H    0.045842
   153  H    0.008271
   154  H    0.047022
   155  H    0.036134
   156  H    0.044007
   157  H    0.049627
   158  H    0.053208
 Sum of Mulliken charges =  -0.00000

 Dipole moment (field-independent basis, Debye):
    X=             -4.6029    Y=              2.0626    Z=              6.5348  Tot=              8.2550
 Quadrupole moment (field-independent basis, Debye-Ang):
   XX=           -518.0076   YY=           -532.4129   ZZ=           -467.1241
   XY=            -16.3775   XZ=              3.5281   YZ=            -31.1793

 Normal termination of Gaussian 16 at Sat Sep 11 16:19:52 2021.
