 Gaussian 16, Revision A.03,
 Gaussian 16:  ES64L-G16RevA.03 25-Dec-2016

 -----------------------------------
 #p cam-b3lyp/Def2SVP td=(nstates=5)
 -----------------------------------

 --------------------------------
 TDDFT excited states in gaussian
 --------------------------------
 Symbolic Z-matrix:
 Charge =  0 Multiplicity = 1

                         Standard orientation:
 ---------------------------------------------------------------------
 Center     Atomic      Atomic             Coordinates (Angstroms)
 Number     Number       Type             X           Y           Z
 ---------------------------------------------------------------------
      1         12           0       -3.750822    0.398774   -1.133037
      2          6           0       -4.258538   -2.729819    0.530196
      3          6           0       -5.508177    1.860971    1.400092
      4          6           0       -3.708390    3.093229   -2.804782
      5          6           0       -3.052640   -1.419235   -4.023202
      6          7           0       -4.709386   -0.434271    0.680202
      7          6           0       -4.780162   -1.641265    1.232766
      8          6           0       -5.394103   -1.630187    2.664662
      9          6           0       -6.236752   -0.280237    2.566820
     10          6           0       -5.417241    0.441715    1.511779
     11          6           0       -7.652206   -0.482686    2.035778
     12          6           0       -4.299043   -1.542394    3.780398
     13          6           0       -4.785169   -1.853421    5.198953
     14          1           0       -3.887733   -2.547087    6.110426
     15          7           0       -4.058008    2.265186   -0.562958
     16          6           0       -4.785777    2.677063    0.502874
     17          6           0       -4.711384    4.153932    0.501004
     18          6           0       -4.039646    4.574094   -0.760077
     19          6           0       -3.930568    3.312701   -1.447367
     20          6           0       -5.199378    5.003808    1.633842
     21          6           0       -3.579947    5.903290   -1.270026
     22          8           0       -3.231019    6.081240   -2.487054
     23          6           0       -3.633637    7.026801   -0.317197
     24          7           0       -3.643100    0.798995   -3.178973
     25          6           0       -3.581623    2.055218   -3.634064
     26          6           0       -3.226796    2.091395   -5.091023
     27          6           0       -2.817892    0.598607   -5.483621
     28          6           0       -3.103929   -0.089241   -4.125932
     29          6           0       -4.331067    2.583526   -6.036751
     30          6           0       -1.425469    0.398593   -6.132907
     31          6           0       -0.340438    0.704184   -5.124731
     32          7           0       -3.489046   -1.694973   -1.641703
     33          6           0       -3.225912   -2.227484   -2.912084
     34          6           0       -3.240762   -3.695645   -2.776618
     35          6           0       -3.529780   -3.916808   -1.431479
     36          6           0       -3.711509   -2.666462   -0.774287
     37          6           0       -3.062339   -4.631872   -3.833064
     38          6           0       -3.751655   -4.919009   -0.401808
     39          8           0       -3.639496   -6.144487   -0.345985
     40          6           0       -4.352311   -4.193645    0.882282
     41          6           0       -3.582797   -4.679404    2.080278
     42          8           0       -2.376978   -4.392529    2.225432
     43          8           0       -4.436264   -5.198105    2.976428
     44          6           0       -3.740167   -5.672154    4.202348
     45          1           0       -6.239845    2.392735    2.011509
     46          1           0       -3.577182    4.000879   -3.397568
     47          1           0       -2.759769   -2.050601   -4.864068
     48          1           0       -6.057070   -2.467993    2.881412
     49          1           0       -6.223463    0.276581    3.503569
     50          1           0       -7.805553   -1.504819    1.689875
     51          1           0       -7.755575    0.218954    1.207823
     52          1           0       -8.391360   -0.180922    2.778319
     53          1           0       -4.000944   -0.502053    3.910362
     54          1           0       -3.451530   -2.185474    3.540615
     55          1           0       -5.764453   -2.332799    5.188547
     56          1           0       -4.951247   -0.909259    5.717776
     57          1           0       -5.791696    4.425667    2.341979
     58          1           0       -5.903357    5.721538    1.213145
     59          1           0       -4.385810    5.533949    2.129212
     60          1           0       -4.659706    7.157979    0.027077
     61          1           0       -3.183480    7.876763   -0.828833
     62          1           0       -3.044925    6.770741    0.564166
     63          1           0       -2.380227    2.752716   -5.271029
     64          1           0       -3.511453    0.159885   -6.201375
     65          1           0       -4.036636    3.438020   -6.646550
     66          1           0       -5.210142    2.815937   -5.436331
     67          1           0       -4.724914    1.825443   -6.713222
     68          1           0       -1.292881    1.088282   -6.965791
     69          1           0       -1.267851   -0.611727   -6.510611
     70          1           0       -0.246608    1.787651   -5.188971
     71          1           0        0.591481    0.214093   -5.408543
     72          1           0       -0.660406    0.464389   -4.110529
     73          1           0       -2.398405   -5.405034   -3.446566
     74          1           0       -2.641909   -4.154843   -4.718098
     75          1           0       -4.089562   -4.962795   -3.985244
     76          1           0       -5.405492   -4.468087    0.933401
     77          1           0       -4.007225   -6.720238    4.338127
     78          1           0       -4.004745   -4.975427    4.997945
     79          1           0       -2.653511   -5.742714    4.142863
     80         12           0        3.852021    0.870458    1.124320
     81          6           0        4.506555   -1.732468   -1.257996
     82          6           0        2.488966   -1.521047    3.138623
     83          6           0        2.858021    3.193990    3.042816
     84          6           0        4.202138    3.155055   -1.484079
     85          7           0        3.590251   -1.310316    0.863613
     86          6           0        3.933432   -2.199001   -0.056615
     87          6           0        3.719944   -3.677385    0.365712
     88          6           0        2.582572   -3.448436    1.476041
     89          6           0        2.923112   -2.016302    1.883091
     90          6           0        1.173922   -3.460845    0.906057
     91          6           0        5.011711   -4.313379    0.989312
     92          6           0        4.971007   -5.835768    1.139084
     93          1           0        6.207043   -6.587875    0.941538
     94          7           0        3.276262    0.810507    3.022602
     95          6           0        2.767367   -0.249144    3.685503
     96          6           0        2.484578    0.226902    5.048433
     97          6           0        2.714213    1.696715    5.089007
     98          6           0        2.943336    1.966609    3.683748
     99          6           0        2.119583   -0.697140    6.173756
    100          6           0        2.713438    2.696233    6.205777
    101          8           0        2.701847    3.957900    5.980198
    102          6           0        2.632312    2.154707    7.570197
    103          7           0        3.360763    2.862578    0.788974
    104          6           0        3.008826    3.668498    1.806114
    105          6           0        2.969807    5.113376    1.368872
    106          6           0        3.606349    5.135666   -0.098070
    107          6           0        3.831227    3.620975   -0.299381
    108          6           0        1.585382    5.760234    1.332497
    109          6           0        4.803047    6.098027   -0.331414
    110          6           0        6.003977    5.629106    0.458050
    111          7           0        4.455680    0.784109   -0.948401
    112          6           0        4.506389    1.855090   -1.867380
    113          6           0        4.864868    1.284204   -3.181909
    114          6           0        4.976196   -0.093234   -2.939454
    115          6           0        4.686390   -0.364262   -1.574882
    116          6           0        4.996313    2.013056   -4.397490
    117          6           0        5.262574   -1.380864   -3.529957
    118          8           0        5.656812   -1.763301   -4.630888
    119          6           0        4.847605   -2.514507   -2.496018
    120          6           0        5.978660   -3.502461   -2.411252
    121          8           0        7.080472   -3.163325   -1.944788
    122          8           0        5.510887   -4.732801   -2.690254
    123          6           0        6.593537   -5.749134   -2.608200
    124          1           0        1.837681   -2.149168    3.747045
    125          1           0        2.626379    4.046457    3.685560
    126          1           0        4.426554    3.813344   -2.326071
    127          1           0        3.348214   -4.324926   -0.419322
    128          1           0        2.710168   -4.124553    2.317438
    129          1           0        1.176273   -3.503885   -0.172970
    130          1           0        0.710492   -2.544350    1.247126
    131          1           0        0.594543   -4.275103    1.350612
    132          1           0        5.080028   -4.022445    2.045452
    133          1           0        5.883433   -4.028171    0.433094
    134          1           0        4.151908   -6.284748    0.564259
    135          1           0        4.732455   -6.075986    2.178026
    136          1           0        1.865356   -1.698710    5.805454
    137          1           0        1.185748   -0.321501    6.605858
    138          1           0        2.881945   -0.731154    6.954983
    139          1           0        1.725672    1.562756    7.670487
    140          1           0        2.734600    3.016128    8.233057
    141          1           0        3.473795    1.470329    7.725581
    142          1           0        3.572355    5.731733    2.022835
    143          1           0        2.872786    5.447888   -0.855843
    144          1           0        1.511956    6.669657    1.958298
    145          1           0        0.856391    5.024139    1.644400
    146          1           0        1.228828    6.032616    0.340586
    147          1           0        4.561611    7.098532    0.035799
    148          1           0        5.080870    6.196531   -1.375498
    149          1           0        5.819954    6.040645    1.454981
    150          1           0        6.922371    6.026278    0.030452
    151          1           0        6.013132    4.536721    0.548913
    152          1           0        5.887098    1.643130   -4.887549
    153          1           0        5.057912    3.083776   -4.214385
    154          1           0        4.062863    1.734514   -4.893815
    155          1           0        3.929565   -2.973846   -2.864506
    156          1           0        6.614869   -6.271549   -3.569612
    157          1           0        6.367224   -6.354918   -1.710671
    158          1           0        7.613806   -5.390192   -2.539878
 ---------------------------------------------------------------------

 SCF Done:  E(RCAM-B3LYP) =  -4069.81484386     A.U. after   18 cycles

 Excitation energies and oscillator strengths:

 Excited State   1:      Singlet-A      1.6595 eV  747.10 nm  f=0.2207  <S**2>=0.000
     309 -> 315       -0.10100
     310 -> 316        0.13478
     311 -> 313       -0.40798
     312 -> 314        0.55234
 This state for optimization and/or second-order correction.
 Total Energy, E(TD-HF/TD-DFT) =  -4069.75385658
 Copying the excited state density for this state as the 1-particle RhoCI density.

 Excited State   2:      Singlet-A      1.6800 eV  738.00 nm  f=0.4313  <S**2>=0.000
     309 -> 315        0.14153
     310 -> 316        0.10152
     311 -> 313        0.55091
     312 -> 314        0.40698

 Excited State   3:      Singlet-A      2.1805 eV  568.60 nm  f=0.0855  <S**2>=0.000
     309 -> 313       -0.19953
     310 -> 314        0.61246
     312 -> 316       -0.25213

 Excited State   4:      Singlet-A      2.1945 eV  564.98 nm  f=0.0898  <S**2>=0.000
     309 -> 313        0.55114
     310 -> 314        0.18305
     311 -> 315       -0.24037
     312 -> 313       -0.29689

 Excited State   5:      Singlet-A      2.1949 eV  564.88 nm  f=0.0189  <S**2>=0.000
     309 -> 313        0.25863
     311 -> 315       -0.11272
     312 -> 313        0.64159

 The electronic state is 1-A.
 Alpha  occ. eigenvalues --  -46.87984 -46.87323 -19.26887 -19.26023 -19.19762
 Alpha  occ. eigenvalues --  -19.18991 -19.18843 -19.18538 -19.18473 -19.17778
 Alpha  occ. eigenvalues --  -14.42650 -14.42076 -14.41623 -14.41038 -14.39587
 Alpha  occ. eigenvalues --  -14.39028 -14.38792 -14.38276 -10.39731 -10.38770
 Alpha  occ. eigenvalues --  -10.35619 -10.35222 -10.34706 -10.33947 -10.32266
 Alpha  occ. eigenvalues --  -10.31628 -10.31442 -10.31135 -10.30828 -10.30779
 Alpha  occ. eigenvalues --  -10.30703 -10.30598 -10.30343 -10.30112 -10.30098
 Alpha  occ. eigenvalues --  -10.30019 -10.29833 -10.29829 -10.29617 -10.29423
 Alpha  occ. eigenvalues --  -10.29122 -10.29115 -10.29035 -10.28934 -10.28587
 Alpha  occ. eigenvalues --  -10.28357 -10.28134 -10.28068 -10.28065 -10.27995
 Alpha  occ. eigenvalues --  -10.27914 -10.27774 -10.27693 -10.27641 -10.27599
 Alpha  occ. eigenvalues --  -10.27575 -10.27552 -10.27530 -10.27270 -10.27261
 Alpha  occ. eigenvalues --  -10.27223 -10.27208 -10.27198 -10.27181 -10.27121
 Alpha  occ. eigenvalues --  -10.27073 -10.26724 -10.26546 -10.26445 -10.26305
 Alpha  occ. eigenvalues --  -10.26178 -10.26174 -10.26163 -10.26013 -10.25926
 Alpha  occ. eigenvalues --  -10.25637 -10.25613 -10.25527 -10.25292 -10.25059
 Alpha  occ. eigenvalues --  -10.24973 -10.24653 -10.24570 -10.24537 -10.24482
 Alpha  occ. eigenvalues --  -10.24398  -3.16725  -3.16073  -1.91607  -1.91194
 Alpha  occ. eigenvalues --   -1.91036  -1.90956  -1.90543  -1.90382  -1.17244
 Alpha  occ. eigenvalues --   -1.16318  -1.08961  -1.08388  -1.07391  -1.07311
 Alpha  occ. eigenvalues --   -1.06799  -1.06629  -1.04792  -1.04083  -1.03942
 Alpha  occ. eigenvalues --   -1.03425  -1.03312  -1.02728  -1.02602  -1.01783
 Alpha  occ. eigenvalues --   -0.92234  -0.91638  -0.89659  -0.89443  -0.89213
 Alpha  occ. eigenvalues --   -0.88449  -0.88414  -0.88069  -0.87961  -0.87878
 Alpha  occ. eigenvalues --   -0.87499  -0.87440  -0.87277  -0.86876  -0.85238
 Alpha  occ. eigenvalues --   -0.84462  -0.84076  -0.83645  -0.83112  -0.82902
 Alpha  occ. eigenvalues --   -0.82734  -0.82169  -0.81933  -0.81248  -0.80852
 Alpha  occ. eigenvalues --   -0.80103  -0.78974  -0.78347  -0.77414  -0.77208
 Alpha  occ. eigenvalues --   -0.76800  -0.76418  -0.76193  -0.75255  -0.75059
 Alpha  occ. eigenvalues --   -0.74508  -0.72963  -0.72352  -0.71882  -0.71142
 Alpha  occ. eigenvalues --   -0.69983  -0.69499  -0.69116  -0.68328  -0.67868
 Alpha  occ. eigenvalues --   -0.67482  -0.67299  -0.66773  -0.65558  -0.65125
 Alpha  occ. eigenvalues --   -0.64853  -0.64790  -0.64420  -0.64413  -0.64230
 Alpha  occ. eigenvalues --   -0.63907  -0.62674  -0.61956  -0.60604  -0.60087
 Alpha  occ. eigenvalues --   -0.60042  -0.59245  -0.59206  -0.58742  -0.58645
 Alpha  occ. eigenvalues --   -0.58096  -0.57978  -0.57500  -0.57234  -0.56968
 Alpha  occ. eigenvalues --   -0.56582  -0.56353  -0.55878  -0.55752  -0.55587
 Alpha  occ. eigenvalues --   -0.55536  -0.55135  -0.54976  -0.54815  -0.54206
 Alpha  occ. eigenvalues --   -0.54168  -0.53500  -0.53485  -0.53303  -0.53217
 Alpha  occ. eigenvalues --   -0.52950  -0.52933  -0.52794  -0.52559  -0.52505
 Alpha  occ. eigenvalues --   -0.52207  -0.52154  -0.52113  -0.51878  -0.51627
 Alpha  occ. eigenvalues --   -0.51433  -0.51200  -0.50846  -0.50707  -0.50246
 Alpha  occ. eigenvalues --   -0.50176  -0.50077  -0.49770  -0.49698  -0.49536
 Alpha  occ. eigenvalues --   -0.49475  -0.49353  -0.49056  -0.48904  -0.48836
 Alpha  occ. eigenvalues --   -0.48700  -0.48607  -0.48472  -0.48147  -0.48119
 Alpha  occ. eigenvalues --   -0.47993  -0.47911  -0.47495  -0.47190  -0.46992
 Alpha  occ. eigenvalues --   -0.46837  -0.46813  -0.46584  -0.46370  -0.46333
 Alpha  occ. eigenvalues --   -0.46127  -0.46011  -0.45916  -0.45807  -0.45431
 Alpha  occ. eigenvalues --   -0.45347  -0.44950  -0.44862  -0.44700  -0.44392
 Alpha  occ. eigenvalues --   -0.44283  -0.44236  -0.44207  -0.44087  -0.43832
 Alpha  occ. eigenvalues --   -0.43822  -0.43630  -0.43597  -0.43479  -0.43259
 Alpha  occ. eigenvalues --   -0.43207  -0.43157  -0.42907  -0.42776  -0.42610
 Alpha  occ. eigenvalues --   -0.42523  -0.42289  -0.42187  -0.41936  -0.41774
 Alpha  occ. eigenvalues --   -0.41639  -0.41353  -0.41313  -0.41093  -0.41020
 Alpha  occ. eigenvalues --   -0.40992  -0.40700  -0.40551  -0.40531  -0.40441
 Alpha  occ. eigenvalues --   -0.40269  -0.39924  -0.39705  -0.39505  -0.39175
 Alpha  occ. eigenvalues --   -0.38615  -0.38057  -0.38042  -0.37534  -0.37476
 Alpha  occ. eigenvalues --   -0.37230  -0.37190  -0.36921  -0.36710  -0.36461
 Alpha  occ. eigenvalues --   -0.36444  -0.35868  -0.34521  -0.34370  -0.33898
 Alpha  occ. eigenvalues --   -0.33544  -0.33401  -0.32839  -0.31522  -0.31249
 Alpha  occ. eigenvalues --   -0.31093  -0.30610  -0.30343  -0.29678  -0.29644
 Alpha  occ. eigenvalues --   -0.29532  -0.29056  -0.28919  -0.24285  -0.23689
 Alpha  occ. eigenvalues --   -0.21317  -0.20767
 Alpha virt. eigenvalues --   -0.08971  -0.08478  -0.01933  -0.01362  -0.00262
 Alpha virt. eigenvalues --    0.00284   0.01955   0.02369   0.02606   0.03657
 Alpha virt. eigenvalues --    0.04477   0.04496   0.05237   0.05493   0.05827

 Mulliken charges:
               1
     1  Mg   0.839388
     2  C   -0.004913
     3  C   -0.093662
     4  C   -0.045372
     5  C   -0.063001
     6  N   -0.256960
     7  C   -0.052756
     8  C   -0.014222
     9  C   -0.087192
    10  C    0.046547
    11  C    0.104650
    12  C    0.053497
    13  C   -0.071305
    14  H    0.032486
    15  N   -0.433344
    16  C    0.169267
    17  C   -0.176262
    18  C   -0.003572
    19  C    0.149124
    20  C    0.109849
    21  C    0.011911
    22  O   -0.249614
    23  C    0.061769
    24  N   -0.341151
    25  C    0.041881
    26  C   -0.028345
    27  C   -0.024047
    28  C    0.074875
    29  C    0.076069
    30  C    0.034846
    31  C   -0.006649
    32  N   -0.310234
    33  C    0.079890
    34  C   -0.170460
    35  C    0.007454
    36  C    0.082578
    37  C    0.127508
    38  C    0.044278
    39  O   -0.189707
    40  C   -0.005369
    41  C    0.216625
    42  O   -0.260773
    43  O   -0.302645
    44  C    0.158053
    45  H   -0.017150
    46  H   -0.016449
    47  H   -0.040316
    48  H    0.000708
    49  H   -0.003652
    50  H    0.025481
    51  H    0.017069
    52  H    0.017163
    53  H    0.012667
    54  H    0.040529
    55  H    0.018927
    56  H    0.019319
    57  H    0.006196
    58  H    0.027163
    59  H    0.041506
    60  H    0.037934
    61  H    0.035519
    62  H    0.032797
    63  H    0.016781
    64  H    0.009881
    65  H    0.023571
    66  H    0.012359
    67  H    0.005326
    68  H    0.006866
    69  H    0.006217
    70  H    0.007506
    71  H    0.022914
    72  H    0.028994
    73  H    0.046441
    74  H    0.010760
    75  H    0.046342
    76  H    0.036216
    77  H    0.044559
    78  H    0.047539
    79  H    0.050048
    80  Mg   0.836091
    81  C   -0.017072
    82  C   -0.087313
    83  C   -0.047182
    84  C   -0.065266
    85  N   -0.255570
    86  C   -0.048042
    87  C   -0.015412
    88  C   -0.090673
    89  C    0.045106
    90  C    0.115468
    91  C    0.062328
    92  C   -0.077118
    93  H    0.031707
    94  N   -0.423613
    95  C    0.162879
    96  C   -0.174522
    97  C   -0.009362
    98  C    0.152635
    99  C    0.099741
   100  C    0.014506
   101  O   -0.254856
   102  C    0.061609
   103  N   -0.350545
   104  C    0.037691
   105  C   -0.019629
   106  C   -0.035240
   107  C    0.088855
   108  C    0.072637
   109  C    0.035023
   110  C   -0.007497
   111  N   -0.324011
   112  C    0.078128
   113  C   -0.163909
   114  C    0.001378
   115  C    0.096204
   116  C    0.131633
   117  C    0.040895
   118  O   -0.189712
   119  C    0.001688
   120  C    0.211349
   121  O   -0.251537
   122  O   -0.305146
   123  C    0.152375
   124  H   -0.013515
   125  H   -0.017727
   126  H   -0.041193
   127  H    0.000445
   128  H   -0.005560
   129  H    0.017911
   130  H    0.014276
   131  H    0.034177
   132  H    0.012640
   133  H    0.035734
   134  H    0.023332
   135  H    0.019506
   136  H    0.010449
   137  H    0.023902
   138  H    0.038683
   139  H    0.037070
   140  H    0.035064
   141  H    0.034187
   142  H    0.013542
   143  H    0.014044
   144  H    0.022480
   145  H    0.009770
   146  H    0.008109
   147  H    0.005341
   148  H    0.003669
   149  H    0.010210
   150  H    0.017310
   151  H    0.030598
   152  H    0.045163
   153  H    0.008300
   154  H    0.045247
   155  H    0.035185
   156  H    0.042940
   157  H    0.050526
   158  H    0.052756
 Sum of Mulliken charges =  -0.00000

 Dipole moment (field-independent basis, Debye):
    X=             -6.2945    Y=              1.1048    Z=              4.6937  Tot=              7.9292
 Quadrupole moment (field-independent basis, Debye-Ang):
   XX=           -517.4526   YY=           -514.6759   ZZ=           -487.3830
   XY=            -11.3346   XZ=             -2.9309   YZ=            -18.7811

 Normal termination of Gaussian 16 at Fri Sep  3 18:24:04 2021.
