 Gaussian 16, Revision A.03,
 Gaussian 16:  ES64L-G16RevA.03 25-Dec-2016

 -----------------------------------
 #p cam-b3lyp/Def2SVP td=(nstates=5)
 -----------------------------------

 --------------------------------
 TDDFT excited states in gaussian
 --------------------------------
 Symbolic Z-matrix:
 Charge =  0 Multiplicity = 1

                         Standard orientation:
 ---------------------------------------------------------------------
 Center     Atomic      Atomic             Coordinates (Angstroms)
 Number     Number       Type             X           Y           Z
 ---------------------------------------------------------------------
      1         12           0        7.812974    0.793500    0.400547
      2          6           0        8.372098   -2.459707   -0.983736
      3          6           0        8.580877    2.068788   -2.669800
      4          6           0        7.769668    3.681582    1.709641
      5          6           0        8.204236   -0.642034    3.552026
      6          7           0        8.385700   -0.174500   -1.506180
      7          6           0        8.505789   -1.432057   -1.920062
      8          6           0        8.712517   -1.558891   -3.459072
      9          6           0        9.318530   -0.113498   -3.751621
     10          6           0        8.697492    0.649010   -2.594549
     11          6           0       10.837035   -0.051836   -3.621843
     12          6           0        7.364227   -1.780313   -4.223806
     13          6           0        7.505633   -2.237176   -5.678672
     14          1           0        6.526785   -3.168775   -6.218418
     15          7           0        7.650097    2.576412   -0.434646
     16          6           0        7.995413    2.912157   -1.700868
     17          6           0        7.683343    4.350830   -1.840566
     18          6           0        7.306265    4.867333   -0.495526
     19          6           0        7.589215    3.720428    0.329049
     20          6           0        7.711344    5.075364   -3.151297
     21          6           0        6.785114    6.188783   -0.026162
     22          8           0        6.743152    6.502267    1.212604
     23          6           0        6.402458    7.153447   -1.073081
     24          7           0        8.181298    1.480508    2.337037
     25          6           0        8.036441    2.772820    2.649975
     26          6           0        8.074974    2.982726    4.134695
     27          6           0        8.033417    1.526407    4.788271
     28          6           0        8.062181    0.683841    3.489223
     29          6           0        9.292509    3.748229    4.671002
     30          6           0        6.912110    1.251014    5.821348
     31          6           0        5.565892    1.260597    5.132360
     32          7           0        8.040162   -1.215759    1.189414
     33          6           0        8.210103   -1.579822    2.533011
     34          6           0        8.429100   -3.037668    2.561179
     35          6           0        8.387579   -3.420446    1.221925
     36          6           0        8.183420   -2.270590    0.406791
     37          6           0        8.689627   -3.818981    3.721399
     38          6           0        8.492775   -4.529916    0.288186
     39          8           0        8.572123   -5.754004    0.401350
     40          6           0        8.608661   -3.935909   -1.184754
     41          6           0        7.642325   -4.690593   -2.056508
     42          8           0        6.410521   -4.584655   -1.886792
     43          8           0        8.304028   -5.225576   -3.094046
     44          6           0        7.398277   -5.963648   -4.014383
     45          1           0        9.029387    2.591050   -3.517162
     46          1           0        7.651660    4.644049    2.211807
     47          1           0        8.249493   -1.171529    4.505462
     48          1           0        9.423385   -2.328551   -3.760260
     49          1           0        8.969174    0.289507   -4.702021
     50          1           0       11.240900   -0.982245   -3.222904
     51          1           0       11.037495    0.773958   -2.938928
     52          1           0       11.295951    0.226133   -4.571004
     53          1           0        6.876320   -0.817927   -4.378147
     54          1           0        6.726354   -2.482456   -3.685810
     55          1           0        8.518190   -2.580968   -5.891851
     56          1           0        7.372993   -1.368626   -6.323829
     57          1           0        8.183699    4.477217   -3.929530
     58          1           0        8.373620    5.931971   -3.027512
     59          1           0        6.720956    5.416914   -3.452639
     60          1           0        7.266570    7.360714   -1.704667
     61          1           0        5.969290    8.006548   -0.552087
     62          1           0        5.653462    6.694677   -1.719210
     63          1           0        7.208759    3.550470    4.471982
     64          1           0        8.952999    1.292728    5.325334
     65          1           0        9.032432    4.640380    5.241205
     66          1           0        9.933105    3.997431    3.825528
     67          1           0        9.968518    3.157105    5.288256
     68          1           0        6.891413    2.035812    6.576735
     69          1           0        7.026637    0.297413    6.336887
     70          1           0        5.316099    2.320523    5.100856
     71          1           0        4.834237    0.704335    5.719271
     72          1           0        5.643605    0.913368    4.101885
     73          1           0        8.083476   -4.719682    3.625029
     74          1           0        8.443670   -3.271429    4.630956
     75          1           0        9.760632   -3.989767    3.613526
     76          1           0        9.641815   -4.078661   -1.499931
     77          1           0        7.788272   -6.977626   -4.103752
     78          1           0        7.327277   -5.366852   -4.923888
     79          1           0        6.391968   -6.162119   -3.643857
     80         12           0       -7.981161   -0.876077    0.287162
     81          6           0       -8.090587    2.236139   -1.496439
     82          6           0       -7.311983    0.931748    3.101156
     83          6           0       -7.433502   -3.613300    1.795508
     84          6           0       -7.521341   -2.459849   -2.783007
     85          7           0       -7.755889    1.297252    0.630890
     86          6           0       -7.879990    2.388084   -0.110076
     87          6           0       -7.852433    3.716904    0.691829
     88          6           0       -7.043596    3.203304    1.980577
     89          6           0       -7.416815    1.723183    1.929515
     90          6           0       -5.535908    3.321145    1.831207
     91          6           0       -9.290536    4.212929    1.076313
     92          6           0       -9.358550    5.653650    1.587658
     93          1           0      -10.529025    6.458163    1.248216
     94          7           0       -7.936018   -1.285992    2.228426
     95          6           0       -7.669767   -0.427788    3.235335
     96          6           0       -7.740157   -1.223027    4.470967
     97          6           0       -7.907147   -2.654226    4.098825
     98          6           0       -7.740854   -2.573977    2.661465
     99          6           0       -7.729844   -0.604215    5.838595
    100          6           0       -8.160247   -3.892263    4.904685
    101          8           0       -8.033181   -5.062897    4.398440
    102          6           0       -8.470123   -3.695829    6.328375
    103          7           0       -7.330741   -2.739853   -0.365253
    104          6           0       -7.227740   -3.773794    0.488131
    105          6           0       -7.009692   -5.072071   -0.251689
    106          6           0       -7.230109   -4.727749   -1.797799
    107          6           0       -7.459790   -3.204440   -1.687576
    108          6           0       -5.638590   -5.721564   -0.065661
    109          6           0       -8.277438   -5.579487   -2.566125
    110          6           0       -9.664977   -5.287404   -2.041902
    111          7           0       -8.013076   -0.281704   -1.789797
    112          6           0       -7.769394   -1.099532   -2.914900
    113          6           0       -7.788975   -0.222200   -4.103312
    114          6           0       -8.021671    1.058937   -3.580767
    115          6           0       -8.118739    0.988219   -2.164759
    116          6           0       -7.558973   -0.635045   -5.445990
    117          6           0       -8.196680    2.456599   -3.904169
    118          8           0       -8.299354    3.100583   -4.947468
    119          6           0       -8.123118    3.299667   -2.558728
    120          6           0       -9.278275    4.263039   -2.550505
    121          8           0      -10.448512    3.846192   -2.492432
    122          8           0       -8.807828    5.513789   -2.393419
    123          6           0       -9.916908    6.504299   -2.367959
    124          1           0       -6.875064    1.381070    3.993399
    125          1           0       -7.344340   -4.599952    2.255976
    126          1           0       -7.483658   -2.891804   -3.785339
    127          1           0       -7.313684    4.525552    0.212645
    128          1           0       -7.420807    3.660445    2.891673
    129          1           0       -5.252160    3.621855    0.833608
    130          1           0       -5.140280    2.339637    2.057423
    131          1           0       -5.132701    3.992025    2.595194
    132          1           0       -9.625263    3.678680    1.974791
    133          1           0       -9.968770    4.088740    0.254608
    134          1           0       -8.436419    6.209319    1.378246
    135          1           0       -9.416719    5.632281    2.678609
    136          1           0       -7.431048    0.450627    5.800577
    137          1           0       -6.929520   -1.092984    6.404680
    138          1           0       -8.673738   -0.741894    6.370345
    139          1           0       -7.650168   -3.165303    6.806574
    140          1           0       -8.707433   -4.688660    6.715476
    141          1           0       -9.351928   -3.050395    6.408664
    142          1           0       -7.736973   -5.815866    0.049839
    143          1           0       -6.307903   -4.865095   -2.381323
    144          1           0       -5.694719   -6.755961    0.322861
    145          1           0       -5.052501   -5.098015    0.596317
    146          1           0       -5.018626   -5.755778   -0.959909
    147          1           0       -8.098808   -6.643935   -2.395255
    148          1           0       -8.261971   -5.418485   -3.638898
    149          1           0       -9.735642   -5.930044   -1.159238
    150          1           0      -10.417515   -5.550094   -2.782656
    151          1           0       -9.746283   -4.248793   -1.700819
    152          1           0       -8.302140   -0.138862   -6.055916
    153          1           0       -7.619847   -1.716802   -5.545284
    154          1           0       -6.540173   -0.266141   -5.591663
    155          1           0       -7.161261    3.813710   -2.546406
    156          1           0       -9.703983    7.242462   -3.147355
    157          1           0       -9.965264    6.871915   -1.325715
    158          1           0      -10.901530    6.161953   -2.664221
 ---------------------------------------------------------------------

 SCF Done:  E(RCAM-B3LYP) =  -4069.81183662     A.U. after   19 cycles

 Excitation energies and oscillator strengths:

 Excited State   1:      Singlet-A      1.6724 eV  741.33 nm  f=0.1665  <S**2>=0.000
     310 -> 316        0.14780
     311 -> 313        0.35660
     312 -> 314        0.58629
 This state for optimization and/or second-order correction.
 Total Energy, E(TD-HF/TD-DFT) =  -4069.75037524
 Copying the excited state density for this state as the 1-particle RhoCI density.

 Excited State   2:      Singlet-A      1.6825 eV  736.90 nm  f=0.5857  <S**2>=0.000
     309 -> 315        0.15049
     311 -> 313        0.58566
     312 -> 314       -0.35627

 Excited State   3:      Singlet-A      2.1857 eV  567.25 nm  f=0.0811  <S**2>=0.000
     309 -> 313        0.10419
     310 -> 314        0.63420
     312 -> 316       -0.26914

 Excited State   4:      Singlet-A      2.1928 eV  565.42 nm  f=0.1158  <S**2>=0.000
     309 -> 313        0.63215
     310 -> 314       -0.10347
     311 -> 315       -0.27475

 Excited State   5:      Singlet-A      2.7661 eV  448.22 nm  f=0.0000  <S**2>=0.000
     312 -> 313        0.70710

 The electronic state is 1-A.
 Alpha  occ. eigenvalues --  -46.87836 -46.87592 -19.26320 -19.26309 -19.19126
 Alpha  occ. eigenvalues --  -19.19048 -19.18858 -19.18643 -19.18202 -19.18004
 Alpha  occ. eigenvalues --  -14.42486 -14.42430 -14.41491 -14.41286 -14.39442
 Alpha  occ. eigenvalues --  -14.39284 -14.38625 -14.38535 -10.39108 -10.39055
 Alpha  occ. eigenvalues --  -10.35491 -10.35320 -10.34422 -10.34182 -10.31736
 Alpha  occ. eigenvalues --  -10.31701 -10.31438 -10.31247 -10.30957 -10.30942
 Alpha  occ. eigenvalues --  -10.30606 -10.30548 -10.30331 -10.30299 -10.30251
 Alpha  occ. eigenvalues --  -10.30063 -10.29966 -10.29820 -10.29669 -10.29366
 Alpha  occ. eigenvalues --  -10.29338 -10.29293 -10.28773 -10.28663 -10.28615
 Alpha  occ. eigenvalues --  -10.28549 -10.28401 -10.28340 -10.28140 -10.28079
 Alpha  occ. eigenvalues --  -10.27938 -10.27829 -10.27762 -10.27622 -10.27602
 Alpha  occ. eigenvalues --  -10.27559 -10.27507 -10.27505 -10.27440 -10.27428
 Alpha  occ. eigenvalues --  -10.27419 -10.27403 -10.27400 -10.27278 -10.27189
 Alpha  occ. eigenvalues --  -10.27004 -10.26723 -10.26645 -10.26447 -10.26346
 Alpha  occ. eigenvalues --  -10.26259 -10.26255 -10.26062 -10.26059 -10.25956
 Alpha  occ. eigenvalues --  -10.25880 -10.25864 -10.25805 -10.25490 -10.25263
 Alpha  occ. eigenvalues --  -10.24869 -10.24830 -10.24812 -10.24775 -10.24661
 Alpha  occ. eigenvalues --  -10.24616  -3.16579  -3.16342  -1.91460  -1.91224
 Alpha  occ. eigenvalues --   -1.91047  -1.90889  -1.90812  -1.90649  -1.16658
 Alpha  occ. eigenvalues --   -1.16613  -1.08659  -1.08614  -1.07260  -1.06912
 Alpha  occ. eigenvalues --   -1.06895  -1.06670  -1.04616  -1.04429  -1.03801
 Alpha  occ. eigenvalues --   -1.03595  -1.03273  -1.02968  -1.02450  -1.02043
 Alpha  occ. eigenvalues --   -0.92007  -0.91927  -0.89571  -0.89421  -0.89214
 Alpha  occ. eigenvalues --   -0.89091  -0.88339  -0.88138  -0.87906  -0.87736
 Alpha  occ. eigenvalues --   -0.87708  -0.87617  -0.87309  -0.87054  -0.85011
 Alpha  occ. eigenvalues --   -0.84939  -0.83992  -0.83795  -0.83009  -0.82860
 Alpha  occ. eigenvalues --   -0.82681  -0.82591  -0.81618  -0.81548  -0.80631
 Alpha  occ. eigenvalues --   -0.80385  -0.78832  -0.78572  -0.77258  -0.77081
 Alpha  occ. eigenvalues --   -0.76967  -0.76837  -0.75953  -0.75782  -0.74945
 Alpha  occ. eigenvalues --   -0.74718  -0.72813  -0.72634  -0.71709  -0.71508
 Alpha  occ. eigenvalues --   -0.69969  -0.69677  -0.68904  -0.68767  -0.67679
 Alpha  occ. eigenvalues --   -0.67537  -0.67247  -0.67143  -0.65317  -0.65214
 Alpha  occ. eigenvalues --   -0.64891  -0.64707  -0.64658  -0.64595  -0.64318
 Alpha  occ. eigenvalues --   -0.64128  -0.62331  -0.62229  -0.60482  -0.60269
 Alpha  occ. eigenvalues --   -0.59834  -0.59736  -0.59026  -0.58926  -0.58542
 Alpha  occ. eigenvalues --   -0.58362  -0.57617  -0.57507  -0.57351  -0.57167
 Alpha  occ. eigenvalues --   -0.56345  -0.56145  -0.56007  -0.55840  -0.55556
 Alpha  occ. eigenvalues --   -0.55395  -0.55386  -0.55178  -0.54566  -0.54423
 Alpha  occ. eigenvalues --   -0.53921  -0.53854  -0.53338  -0.53253  -0.53163
 Alpha  occ. eigenvalues --   -0.53083  -0.52951  -0.52846  -0.52788  -0.52603
 Alpha  occ. eigenvalues --   -0.52502  -0.52327  -0.51951  -0.51834  -0.51644
 Alpha  occ. eigenvalues --   -0.51602  -0.51234  -0.51143  -0.50607  -0.50406
 Alpha  occ. eigenvalues --   -0.50083  -0.49954  -0.49913  -0.49784  -0.49547
 Alpha  occ. eigenvalues --   -0.49425  -0.49248  -0.49145  -0.49124  -0.49047
 Alpha  occ. eigenvalues --   -0.48626  -0.48507  -0.48503  -0.48482  -0.48298
 Alpha  occ. eigenvalues --   -0.48272  -0.47731  -0.47531  -0.47333  -0.47047
 Alpha  occ. eigenvalues --   -0.46838  -0.46642  -0.46583  -0.46493  -0.46399
 Alpha  occ. eigenvalues --   -0.46204  -0.46203  -0.46017  -0.45855  -0.45770
 Alpha  occ. eigenvalues --   -0.45250  -0.45121  -0.44612  -0.44545  -0.44458
 Alpha  occ. eigenvalues --   -0.44415  -0.44190  -0.44118  -0.44067  -0.44053
 Alpha  occ. eigenvalues --   -0.44010  -0.43880  -0.43529  -0.43503  -0.43422
 Alpha  occ. eigenvalues --   -0.43321  -0.43065  -0.42885  -0.42840  -0.42741
 Alpha  occ. eigenvalues --   -0.42699  -0.42477  -0.42056  -0.41898  -0.41741
 Alpha  occ. eigenvalues --   -0.41608  -0.41564  -0.41397  -0.41177  -0.40919
 Alpha  occ. eigenvalues --   -0.40906  -0.40862  -0.40658  -0.40634  -0.40619
 Alpha  occ. eigenvalues --   -0.40416  -0.40257  -0.40172  -0.39507  -0.39347
 Alpha  occ. eigenvalues --   -0.38518  -0.38268  -0.37774  -0.37599  -0.37367
 Alpha  occ. eigenvalues --   -0.37293  -0.37193  -0.37139  -0.36748  -0.36726
 Alpha  occ. eigenvalues --   -0.36231  -0.36149  -0.34324  -0.34187  -0.33821
 Alpha  occ. eigenvalues --   -0.33800  -0.33225  -0.33109  -0.31388  -0.31201
 Alpha  occ. eigenvalues --   -0.31074  -0.30905  -0.30061  -0.29910  -0.29487
 Alpha  occ. eigenvalues --   -0.29358  -0.29262  -0.29151  -0.24119  -0.23968
 Alpha  occ. eigenvalues --   -0.21166  -0.21049
 Alpha virt. eigenvalues --   -0.08812  -0.08726  -0.01790  -0.01613  -0.00095
 Alpha virt. eigenvalues --    0.00037   0.02163   0.02265   0.03075   0.03289
 Alpha virt. eigenvalues --    0.04686   0.04795   0.05070   0.05203   0.06156

 Mulliken charges:
               1
     1  Mg   0.838629
     2  C   -0.002941
     3  C   -0.093910
     4  C   -0.046003
     5  C   -0.064034
     6  N   -0.256776
     7  C   -0.052418
     8  C   -0.014023
     9  C   -0.087007
    10  C    0.046277
    11  C    0.104777
    12  C    0.053409
    13  C   -0.071889
    14  H    0.036223
    15  N   -0.433136
    16  C    0.168374
    17  C   -0.177005
    18  C   -0.004065
    19  C    0.148669
    20  C    0.110105
    21  C    0.012165
    22  O   -0.249915
    23  C    0.062498
    24  N   -0.341087
    25  C    0.041209
    26  C   -0.028142
    27  C   -0.023904
    28  C    0.074727
    29  C    0.076167
    30  C    0.035194
    31  C   -0.004440
    32  N   -0.310463
    33  C    0.080360
    34  C   -0.169756
    35  C    0.008410
    36  C    0.082936
    37  C    0.127323
    38  C    0.046116
    39  O   -0.188340
    40  C   -0.005319
    41  C    0.212899
    42  O   -0.257156
    43  O   -0.304754
    44  C    0.157697
    45  H   -0.017410
    46  H   -0.017008
    47  H   -0.041591
    48  H    0.001011
    49  H   -0.003835
    50  H    0.025489
    51  H    0.016416
    52  H    0.016820
    53  H    0.011303
    54  H    0.044048
    55  H    0.017908
    56  H    0.018154
    57  H    0.006069
    58  H    0.026897
    59  H    0.039798
    60  H    0.037534
    61  H    0.035487
    62  H    0.031635
    63  H    0.016225
    64  H    0.009517
    65  H    0.023056
    66  H    0.012704
    67  H    0.004793
    68  H    0.006146
    69  H    0.004776
    70  H    0.008420
    71  H    0.017748
    72  H    0.029177
    73  H    0.047614
    74  H    0.008994
    75  H    0.046072
    76  H    0.035245
    77  H    0.043004
    78  H    0.046494
    79  H    0.053610
    80  Mg   0.837975
    81  C   -0.016932
    82  C   -0.087805
    83  C   -0.045299
    84  C   -0.064664
    85  N   -0.254594
    86  C   -0.049854
    87  C   -0.015124
    88  C   -0.090474
    89  C    0.045803
    90  C    0.114333
    91  C    0.062536
    92  C   -0.077811
    93  H    0.034636
    94  N   -0.423562
    95  C    0.163046
    96  C   -0.174498
    97  C   -0.007659
    98  C    0.152203
    99  C    0.099322
   100  C    0.015663
   101  O   -0.252906
   102  C    0.061189
   103  N   -0.350020
   104  C    0.037758
   105  C   -0.020032
   106  C   -0.034748
   107  C    0.088893
   108  C    0.073363
   109  C    0.034723
   110  C   -0.007653
   111  N   -0.324062
   112  C    0.078393
   113  C   -0.163229
   114  C    0.002076
   115  C    0.096208
   116  C    0.131522
   117  C    0.042185
   118  O   -0.188408
   119  C    0.000966
   120  C    0.211211
   121  O   -0.251044
   122  O   -0.305679
   123  C    0.152094
   124  H   -0.019596
   125  H   -0.015265
   126  H   -0.040538
   127  H   -0.000818
   128  H   -0.004414
   129  H    0.022344
   130  H    0.014795
   131  H    0.016374
   132  H    0.013913
   133  H    0.037578
   134  H    0.020753
   135  H    0.019605
   136  H    0.008730
   137  H    0.026322
   138  H    0.039690
   139  H    0.038328
   140  H    0.036437
   141  H    0.033732
   142  H    0.014309
   143  H    0.012737
   144  H    0.025357
   145  H    0.012283
   146  H    0.006339
   147  H    0.006421
   148  H    0.003456
   149  H    0.010968
   150  H    0.017702
   151  H    0.029982
   152  H    0.045717
   153  H    0.008498
   154  H    0.046738
   155  H    0.034799
   156  H    0.043646
   157  H    0.049529
   158  H    0.053512
 Sum of Mulliken charges =  -0.00000

 Dipole moment (field-independent basis, Debye):
    X=              3.6522    Y=              3.8908    Z=              1.0240  Tot=              5.4338
 Quadrupole moment (field-independent basis, Debye-Ang):
   XX=           -520.3971   YY=           -530.3310   ZZ=           -467.9166
   XY=             19.0898   XZ=            -62.1490   YZ=             28.1390

 Normal termination of Gaussian 16 at Sun Sep 12 00:42:08 2021.
