 Gaussian 16, Revision A.03,
 Gaussian 16:  ES64L-G16RevA.03 25-Dec-2016

 -----------------------------------
 #p cam-b3lyp/Def2SVP td=(nstates=5)
 -----------------------------------

 --------------------------------
 TDDFT excited states in gaussian
 --------------------------------
 Symbolic Z-matrix:
 Charge =  0 Multiplicity = 1

                         Standard orientation:
 ---------------------------------------------------------------------
 Center     Atomic      Atomic             Coordinates (Angstroms)
 Number     Number       Type             X           Y           Z
 ---------------------------------------------------------------------
      1         12           0       -4.027972    0.365831    0.492377
      2          6           0       -3.144319    3.742835    1.284347
      3          6           0       -5.040312    1.503975   -2.560959
      4          6           0       -5.231697   -2.515301   -0.061468
      5          6           0       -4.015939   -0.284420    3.916218
      6          7           0       -4.038702    2.388535   -0.407178
      7          6           0       -3.617272    3.588624   -0.020712
      8          6           0       -3.654782    4.652502   -1.158310
      9          6           0       -4.768868    3.989515   -2.086351
     10          6           0       -4.582635    2.535852   -1.688725
     11          6           0       -6.189674    4.417242   -1.732995
     12          6           0       -2.283989    4.772577   -1.905464
     13          6           0       -2.135005    6.004102   -2.803520
     14          1           0       -0.831812    6.643469   -2.904744
     15          7           0       -4.539297   -0.504240   -1.205968
     16          6           0       -4.906709    0.113932   -2.354078
     17          6           0       -5.189144   -0.964711   -3.325387
     18          6           0       -5.139504   -2.260739   -2.593307
     19          6           0       -4.992170   -1.804154   -1.234925
     20          6           0       -5.419542   -0.718211   -4.784807
     21          6           0       -5.223682   -3.684478   -3.044986
     22          8           0       -5.391942   -4.649777   -2.223730
     23          6           0       -5.192323   -3.914808   -4.500666
     24          7           0       -4.766474   -1.129888    1.747397
     25          6           0       -5.172609   -2.305392    1.255230
     26          6           0       -5.388973   -3.309559    2.348287
     27          6           0       -4.809894   -2.645221    3.679856
     28          6           0       -4.413539   -1.264373    3.101556
     29          6           0       -6.843467   -3.739823    2.583506
     30          6           0       -3.742343   -3.451628    4.461178
     31          6           0       -2.470997   -3.543124    3.647295
     32          7           0       -3.481652    1.450905    2.291041
     33          6           0       -3.578784    0.994288    3.613441
     34          6           0       -3.196326    2.118283    4.487757
     35          6           0       -2.917436    3.162451    3.608111
     36          6           0       -3.138569    2.726663    2.270396
     37          6           0       -3.196989    2.105007    5.910521
     38          6           0       -2.507796    4.552312    3.488366
     39          8           0       -2.096989    5.406173    4.275547
     40          6           0       -2.755581    5.020101    1.986500
     41          6           0       -1.513051    5.728674    1.520289
     42          8           0       -0.440987    5.107905    1.369657
     43          8           0       -1.835463    6.961713    1.100518
     44          6           0       -0.651783    7.708380    0.596989
     45          1           0       -5.604160    1.779514   -3.454321
     46          1           0       -5.542502   -3.551255   -0.211928
     47          1           0       -3.907326   -0.438239    4.991391
     48          1           0       -3.976155    5.645012   -0.841978
     49          1           0       -4.549087    4.123858   -3.145299
     50          1           0       -6.211811    5.007920   -0.817282
     51          1           0       -6.748515    3.490433   -1.601787
     52          1           0       -6.658449    4.933714   -2.571019
     53          1           0       -2.213855    3.985729   -2.656472
     54          1           0       -1.454778    4.739918   -1.197884
     55          1           0       -2.908531    6.744205   -2.596609
     56          1           0       -2.319828    5.699874   -3.833805
     57          1           0       -5.560551    0.341331   -4.994642
     58          1           0       -6.376212   -1.174867   -5.037706
     59          1           0       -4.631758   -1.148827   -5.403109
     60          1           0       -6.023770   -3.385644   -4.966745
     61          1           0       -5.172522   -4.995901   -4.633691
     62          1           0       -4.281764   -3.474685   -4.908251
     63          1           0       -4.847058   -4.232196    2.144584
     64          1           0       -5.591620   -2.456076    4.415929
     65          1           0       -7.000707   -4.815530    2.500827
     66          1           0       -7.473503   -3.197240    1.879270
     67          1           0       -7.264564   -3.425125    3.538001
     68          1           0       -4.087392   -4.470674    4.632739
     69          1           0       -3.498404   -3.016482    5.430400
     70          1           0       -2.665578   -4.386599    2.985842
     71          1           0       -1.617765   -3.744354    4.295918
     72          1           0       -2.335488   -2.661738    3.020174
     73          1           0       -2.275721    2.598050    6.220592
     74          1           0       -3.251161    1.087505    6.296990
     75          1           0       -4.100160    2.678890    6.117392
     76          1           0       -3.621858    5.680722    2.002820
     77          1           0       -0.595840    8.639466    1.161067
     78          1           0       -0.766721    7.778306   -0.484817
     79          1           0        0.323136    7.273613    0.820260
     80         12           0        3.528112   -1.838547   -0.568347
     81          6           0        5.526971    1.107763   -0.117942
     82          6           0        1.731041   -0.085144   -2.877185
     83          6           0        1.476532   -4.257155   -0.662123
     84          6           0        4.714551   -2.946368    2.515605
     85          7           0        3.703438    0.235957   -1.315318
     86          6           0        4.539804    1.243522   -1.116195
     87          6           0        4.355946    2.434921   -2.094118
     88          6           0        2.820326    2.184800   -2.491815
     89          6           0        2.747271    0.678618   -2.249465
     90          6           0        1.837261    2.867495   -1.555398
     91          6           0        5.297388    2.332082   -3.345174
     92          6           0        5.395022    3.608770   -4.183198
     93          1           0        6.674022    3.935300   -4.807711
     94          7           0        2.169684   -2.318128   -1.933355
     95          6           0        1.561107   -1.485151   -2.803451
     96          6           0        0.632350   -2.321924   -3.578935
     97          6           0        0.622237   -3.686225   -2.984545
     98          6           0        1.424190   -3.462909   -1.798334
     99          6           0       -0.076355   -1.828077   -4.806652
    100          6           0       -0.015659   -4.975163   -3.406355
    101          8           0       -0.090663   -5.980153   -2.614393
    102          6           0       -0.632697   -4.995439   -4.740647
    103          7           0        2.983092   -3.280049    0.827135
    104          6           0        2.106127   -4.249666    0.512984
    105          6           0        2.078428   -5.324568    1.573274
    106          6           0        3.300365   -4.995181    2.551002
    107          6           0        3.790022   -3.678391    1.909360
    108          6           0        0.788254   -5.423270    2.386957
    109          6           0        4.334195   -6.129090    2.792089
    110          6           0        5.098417   -6.410131    1.518367
    111          7           0        5.009383   -1.175142    0.857764
    112          6           0        5.328132   -1.772657    2.096904
    113          6           0        6.314302   -0.896466    2.761866
    114          6           0        6.484950    0.170206    1.866561
    115          6           0        5.648029   -0.017071    0.733424
    116          6           0        6.883630   -1.111254    4.048662
    117          6           0        7.174839    1.417401    1.627250
    118          8           0        8.071037    2.037794    2.197926
    119          6           0        6.491089    2.143765    0.389807
    120          6           0        7.580988    2.602023   -0.540049
    121          8           0        8.297030    1.774568   -1.130979
    122          8           0        7.457238    3.925991   -0.745404
    123          6           0        8.509429    4.425571   -1.670127
    124          1           0        0.964458    0.440347   -3.447360
    125          1           0        0.868828   -5.164477   -0.692674
    126          1           0        5.206273   -3.271403    3.434977
    127          1           0        4.468711    3.413818   -1.643779
    128          1           0        2.641731    2.411500   -3.539704
    129          1           0        2.333024    3.312218   -0.705359
    130          1           0        1.153087    2.093849   -1.232251
    131          1           0        1.232829    3.593100   -2.107198
    132          1           0        4.841540    1.658148   -4.081893
    133          1           0        6.280130    2.012785   -3.057249
    134          1           0        4.991869    4.480895   -3.654226
    135          1           0        4.746498    3.501350   -5.056071
    136          1           0       -0.001618   -0.737894   -4.903101
    137          1           0       -1.145118   -2.014773   -4.655767
    138          1           0        0.247250   -2.341070   -5.714826
    139          1           0       -1.399479   -4.226363   -4.795646
    140          1           0       -0.956132   -6.026303   -4.897410
    141          1           0        0.129726   -4.733326   -5.482690
    142          1           0        2.232384   -6.303353    1.135799
    143          1           0        2.954770   -4.741654    3.563973
    144          1           0        0.320228   -6.424836    2.343285
    145          1           0        0.101515   -4.666799    2.031025
    146          1           0        0.886346   -5.168748    3.440897
    147          1           0        3.822901   -7.057396    3.058510
    148          1           0        5.038420   -5.909557    3.587626
    149          1           0        4.430828   -7.084497    0.973729
    150          1           0        6.049347   -6.890285    1.740199
    151          1           0        5.209812   -5.500181    0.917325
    152          1           0        7.939871   -0.893641    3.962068
    153          1           0        6.713601   -2.128957    4.393816
    154          1           0        6.321593   -0.379582    4.635207
    155          1           0        5.908722    2.978870    0.780995
    156          1           0        9.032110    5.235364   -1.151740
    157          1           0        7.983982    4.684675   -2.608493
    158          1           0        9.330983    3.757954   -1.902073
 ---------------------------------------------------------------------

 SCF Done:  E(RCAM-B3LYP) =  -4069.81173547     A.U. after   19 cycles

 Excitation energies and oscillator strengths:

 Excited State   1:      Singlet-A      1.6309 eV  760.20 nm  f=0.0615  <S**2>=0.000
     309 -> 315       -0.11261
     310 -> 316       -0.11758
     311 -> 313       -0.47414
     312 -> 314        0.49936
 This state for optimization and/or second-order correction.
 Total Energy, E(TD-HF/TD-DFT) =  -4069.75179978
 Copying the excited state density for this state as the 1-particle RhoCI density.

 Excited State   2:      Singlet-A      1.7111 eV  724.58 nm  f=0.6363  <S**2>=0.000
     309 -> 315        0.13423
     310 -> 316       -0.12520
     311 -> 313        0.49564
     312 -> 314        0.47067

 Excited State   3:      Singlet-A      2.1761 eV  569.76 nm  f=0.0068  <S**2>=0.000
     309 -> 313        0.36335
     310 -> 314        0.53544
     311 -> 315       -0.14799
     312 -> 316        0.21844

 Excited State   4:      Singlet-A      2.1923 eV  565.54 nm  f=0.0022  <S**2>=0.000
     312 -> 313        0.70185

 Excited State   5:      Singlet-A      2.1970 eV  564.34 nm  f=0.1584  <S**2>=0.000
     309 -> 313        0.52473
     310 -> 314       -0.35464
     311 -> 315       -0.23321
     312 -> 316       -0.15762

 The electronic state is 1-A.
 Alpha  occ. eigenvalues --  -46.88010 -46.87415 -19.26596 -19.26124 -19.19361
 Alpha  occ. eigenvalues --  -19.18981 -19.18933 -19.18508 -19.18385 -19.17797
 Alpha  occ. eigenvalues --  -14.42689 -14.42224 -14.41654 -14.41126 -14.39617
 Alpha  occ. eigenvalues --  -14.39119 -14.38801 -14.38349 -10.39402 -10.38855
 Alpha  occ. eigenvalues --  -10.35619 -10.35197 -10.34611 -10.33968 -10.31991
 Alpha  occ. eigenvalues --  -10.31657 -10.31570 -10.31178 -10.31022 -10.30806
 Alpha  occ. eigenvalues --  -10.30761 -10.30699 -10.30406 -10.30158 -10.30126
 Alpha  occ. eigenvalues --  -10.30091 -10.29932 -10.29858 -10.29660 -10.29472
 Alpha  occ. eigenvalues --  -10.29213 -10.29187 -10.29103 -10.29044 -10.28598
 Alpha  occ. eigenvalues --  -10.28492 -10.28428 -10.28384 -10.28157 -10.28013
 Alpha  occ. eigenvalues --  -10.27968 -10.27825 -10.27813 -10.27768 -10.27721
 Alpha  occ. eigenvalues --  -10.27646 -10.27640 -10.27561 -10.27447 -10.27418
 Alpha  occ. eigenvalues --  -10.27411 -10.27350 -10.27262 -10.27223 -10.27210
 Alpha  occ. eigenvalues --  -10.27192 -10.26759 -10.26706 -10.26496 -10.26463
 Alpha  occ. eigenvalues --  -10.26375 -10.26318 -10.26228 -10.26013 -10.25997
 Alpha  occ. eigenvalues --  -10.25712 -10.25620 -10.25532 -10.25284 -10.25235
 Alpha  occ. eigenvalues --  -10.25050 -10.24970 -10.24815 -10.24629 -10.24590
 Alpha  occ. eigenvalues --  -10.24452  -3.16751  -3.16165  -1.91632  -1.91220
 Alpha  occ. eigenvalues --   -1.91062  -1.91047  -1.90635  -1.90473  -1.16947
 Alpha  occ. eigenvalues --   -1.16417  -1.08846  -1.08401  -1.07366  -1.06966
 Alpha  occ. eigenvalues --   -1.06751  -1.06718  -1.04827  -1.04224  -1.03970
 Alpha  occ. eigenvalues --   -1.03446  -1.03417  -1.02806  -1.02624  -1.01869
 Alpha  occ. eigenvalues --   -0.92208  -0.91724  -0.89703  -0.89513  -0.89288
 Alpha  occ. eigenvalues --   -0.88795  -0.88456  -0.88080  -0.88023  -0.87930
 Alpha  occ. eigenvalues --   -0.87555  -0.87529  -0.87442  -0.86966  -0.85292
 Alpha  occ. eigenvalues --   -0.84708  -0.84105  -0.83689  -0.83204  -0.82930
 Alpha  occ. eigenvalues --   -0.82801  -0.82387  -0.81847  -0.81364  -0.80847
 Alpha  occ. eigenvalues --   -0.80216  -0.79039  -0.78449  -0.77477  -0.77201
 Alpha  occ. eigenvalues --   -0.76912  -0.76634  -0.76190  -0.75522  -0.75081
 Alpha  occ. eigenvalues --   -0.74591  -0.72991  -0.72460  -0.71894  -0.71300
 Alpha  occ. eigenvalues --   -0.70069  -0.69572  -0.69163  -0.68550  -0.67875
 Alpha  occ. eigenvalues --   -0.67557  -0.67382  -0.66988  -0.65589  -0.65088
 Alpha  occ. eigenvalues --   -0.64991  -0.64868  -0.64531  -0.64456  -0.64402
 Alpha  occ. eigenvalues --   -0.63994  -0.62555  -0.62055  -0.60662  -0.60167
 Alpha  occ. eigenvalues --   -0.60092  -0.59487  -0.59207  -0.58756  -0.58729
 Alpha  occ. eigenvalues --   -0.58192  -0.57841  -0.57516  -0.57299  -0.57033
 Alpha  occ. eigenvalues --   -0.56546  -0.56273  -0.55988  -0.55762  -0.55666
 Alpha  occ. eigenvalues --   -0.55539  -0.55246  -0.55042  -0.54750  -0.54283
 Alpha  occ. eigenvalues --   -0.54223  -0.53601  -0.53543  -0.53500  -0.53186
 Alpha  occ. eigenvalues --   -0.53075  -0.53019  -0.52903  -0.52671  -0.52598
 Alpha  occ. eigenvalues --   -0.52453  -0.52231  -0.52113  -0.51933  -0.51648
 Alpha  occ. eigenvalues --   -0.51427  -0.51411  -0.50966  -0.50860  -0.50374
 Alpha  occ. eigenvalues --   -0.50247  -0.50148  -0.49787  -0.49757  -0.49658
 Alpha  occ. eigenvalues --   -0.49473  -0.49366  -0.49234  -0.48952  -0.48849
 Alpha  occ. eigenvalues --   -0.48735  -0.48661  -0.48635  -0.48284  -0.48186
 Alpha  occ. eigenvalues --   -0.48127  -0.47946  -0.47525  -0.47365  -0.47034
 Alpha  occ. eigenvalues --   -0.46944  -0.46858  -0.46582  -0.46476  -0.46371
 Alpha  occ. eigenvalues --   -0.46263  -0.46081  -0.46054  -0.45871  -0.45570
 Alpha  occ. eigenvalues --   -0.45383  -0.44996  -0.44824  -0.44758  -0.44381
 Alpha  occ. eigenvalues --   -0.44347  -0.44284  -0.44258  -0.44219  -0.43894
 Alpha  occ. eigenvalues --   -0.43795  -0.43739  -0.43727  -0.43637  -0.43320
 Alpha  occ. eigenvalues --   -0.43252  -0.43115  -0.42969  -0.42834  -0.42704
 Alpha  occ. eigenvalues --   -0.42654  -0.42364  -0.42229  -0.41941  -0.41820
 Alpha  occ. eigenvalues --   -0.41751  -0.41409  -0.41371  -0.41213  -0.41154
 Alpha  occ. eigenvalues --   -0.41066  -0.40760  -0.40692  -0.40627  -0.40507
 Alpha  occ. eigenvalues --   -0.40434  -0.40246  -0.39984  -0.39568  -0.39243
 Alpha  occ. eigenvalues --   -0.38667  -0.38138  -0.38117  -0.37554  -0.37515
 Alpha  occ. eigenvalues --   -0.37415  -0.37044  -0.36989  -0.36930  -0.36552
 Alpha  occ. eigenvalues --   -0.36428  -0.35985  -0.34508  -0.34081  -0.34003
 Alpha  occ. eigenvalues --   -0.33631  -0.33411  -0.32936  -0.31506  -0.31254
 Alpha  occ. eigenvalues --   -0.31062  -0.30718  -0.30247  -0.29697  -0.29673
 Alpha  occ. eigenvalues --   -0.29536  -0.29112  -0.28967  -0.24300  -0.23786
 Alpha  occ. eigenvalues --   -0.21352  -0.20873
 Alpha virt. eigenvalues --   -0.08997  -0.08557  -0.01959  -0.01451  -0.00289
 Alpha virt. eigenvalues --    0.00200   0.01987   0.02314   0.02546   0.03559
 Alpha virt. eigenvalues --    0.04400   0.04716   0.04995   0.05390   0.05622

 Mulliken charges:
               1
     1  Mg   0.838612
     2  C   -0.003626
     3  C   -0.096616
     4  C   -0.043117
     5  C   -0.063372
     6  N   -0.256693
     7  C   -0.053857
     8  C   -0.012201
     9  C   -0.086589
    10  C    0.045612
    11  C    0.104762
    12  C    0.046908
    13  C   -0.072492
    14  H    0.034445
    15  N   -0.433094
    16  C    0.167869
    17  C   -0.179502
    18  C   -0.005809
    19  C    0.150806
    20  C    0.109733
    21  C    0.013777
    22  O   -0.244947
    23  C    0.061522
    24  N   -0.341001
    25  C    0.040892
    26  C   -0.029130
    27  C   -0.024579
    28  C    0.074993
    29  C    0.075878
    30  C    0.043073
    31  C   -0.019921
    32  N   -0.310775
    33  C    0.080895
    34  C   -0.169085
    35  C    0.008625
    36  C    0.083399
    37  C    0.127205
    38  C    0.046500
    39  O   -0.187523
    40  C   -0.005952
    41  C    0.213696
    42  O   -0.258696
    43  O   -0.304381
    44  C    0.157337
    45  H   -0.017831
    46  H   -0.014932
    47  H   -0.040945
    48  H    0.001574
    49  H   -0.005171
    50  H    0.025940
    51  H    0.017166
    52  H    0.016890
    53  H    0.008205
    54  H    0.048215
    55  H    0.020149
    56  H    0.017610
    57  H    0.005656
    58  H    0.028028
    59  H    0.035757
    60  H    0.037361
    61  H    0.039250
    62  H    0.025527
    63  H    0.019135
    64  H    0.009857
    65  H    0.024254
    66  H    0.012382
    67  H    0.004820
    68  H    0.006362
    69  H    0.003303
    70  H    0.016715
    71  H    0.018848
    72  H    0.031225
    73  H    0.048240
    74  H    0.009455
    75  H    0.046434
    76  H    0.035614
    77  H    0.044467
    78  H    0.045556
    79  H    0.053274
    80  Mg   0.838109
    81  C   -0.016286
    82  C   -0.089462
    83  C   -0.045762
    84  C   -0.065004
    85  N   -0.255061
    86  C   -0.046888
    87  C   -0.014997
    88  C   -0.092834
    89  C    0.047897
    90  C    0.115373
    91  C    0.062802
    92  C   -0.076905
    93  H    0.033462
    94  N   -0.423408
    95  C    0.162535
    96  C   -0.174849
    97  C   -0.007167
    98  C    0.150531
    99  C    0.100321
   100  C    0.017781
   101  O   -0.250853
   102  C    0.060002
   103  N   -0.349956
   104  C    0.036012
   105  C   -0.017532
   106  C   -0.035359
   107  C    0.089238
   108  C    0.067820
   109  C    0.034810
   110  C   -0.007350
   111  N   -0.324402
   112  C    0.079213
   113  C   -0.162837
   114  C    0.003090
   115  C    0.096574
   116  C    0.131166
   117  C    0.042962
   118  O   -0.187900
   119  C    0.000495
   120  C    0.210869
   121  O   -0.251738
   122  O   -0.305014
   123  C    0.152346
   124  H   -0.020709
   125  H   -0.014899
   126  H   -0.041037
   127  H    0.000390
   128  H   -0.007989
   129  H    0.032677
   130  H    0.016809
   131  H    0.014319
   132  H    0.012965
   133  H    0.037143
   134  H    0.020616
   135  H    0.018292
   136  H    0.007618
   137  H    0.022375
   138  H    0.037987
   139  H    0.033885
   140  H    0.037636
   141  H    0.032924
   142  H    0.013734
   143  H    0.011549
   144  H    0.023977
   145  H    0.017692
   146  H    0.005002
   147  H    0.005534
   148  H    0.003337
   149  H    0.010808
   150  H    0.017479
   151  H    0.030411
   152  H    0.045538
   153  H    0.007770
   154  H    0.048272
   155  H    0.038484
   156  H    0.043584
   157  H    0.048962
   158  H    0.053056
 Sum of Mulliken charges =  -0.00000

 Dipole moment (field-independent basis, Debye):
    X=             -6.3740    Y=              1.3766    Z=             -5.3502  Tot=              8.4349
 Quadrupole moment (field-independent basis, Debye-Ang):
   XX=           -542.4665   YY=           -515.2401   ZZ=           -471.8126
   XY=            -18.0892   XZ=              0.2482   YZ=            -57.6457

 Normal termination of Gaussian 16 at Thu Sep  9 03:25:01 2021.
