 Gaussian 16, Revision A.03,
 Gaussian 16:  ES64L-G16RevA.03 25-Dec-2016

 -----------------------------------
 #p cam-b3lyp/Def2SVP td=(nstates=5)
 -----------------------------------

 --------------------------------
 TDDFT excited states in gaussian
 --------------------------------
 Symbolic Z-matrix:
 Charge =  0 Multiplicity = 1

                         Standard orientation:
 ---------------------------------------------------------------------
 Center     Atomic      Atomic             Coordinates (Angstroms)
 Number     Number       Type             X           Y           Z
 ---------------------------------------------------------------------
      1         12           0       -7.775903   -0.781396   -0.044332
      2          6           0       -8.052716    2.049448    2.128664
      3          6           0       -8.658642    1.288651   -2.609238
      4          6           0       -7.981325   -3.345510   -1.898986
      5          6           0       -8.033797   -2.795105    2.788357
      6          7           0       -8.266359    1.376430   -0.106669
      7          6           0       -8.277417    2.361438    0.785973
      8          6           0       -8.475690    3.769676    0.149635
      9          6           0       -9.205876    3.335684   -1.199615
     10          6           0       -8.651045    1.928578   -1.334300
     11          6           0      -10.723695    3.255077   -1.072226
     12          6           0       -7.114922    4.487791   -0.140799
     13          6           0       -7.219205    5.983063   -0.454869
     14          1           0       -6.164154    6.871317    0.009049
     15          7           0       -7.770693   -0.942132   -2.013339
     16          6           0       -8.146701    0.006578   -2.904322
     17          6           0       -7.961372   -0.594731   -4.242515
     18          6           0       -7.627745   -2.033720   -4.052518
     19          6           0       -7.807966   -2.172608   -2.629982
     20          6           0       -8.055215    0.187752   -5.516354
     21          6           0       -7.222589   -3.114982   -5.003755
     22          8           0       -7.205364   -4.347660   -4.664962
     23          6           0       -6.927664   -2.697106   -6.386304
     24          7           0       -8.198394   -2.787665    0.348120
     25          6           0       -8.165909   -3.703137   -0.626478
     26          6           0       -8.219316   -5.095088   -0.070096
     27          6           0       -8.049699   -4.946117    1.510660
     28          6           0       -8.007848   -3.400564    1.598898
     29          6           0       -9.497693   -5.888569   -0.373658
     30          6           0       -6.906413   -5.754017    2.174447
     31          6           0       -5.567654   -5.215603    1.721752
     32          7           0       -7.825576   -0.466082    2.102562
     33          6           0       -7.960232   -1.446815    3.095892
     34          6           0       -8.051417   -0.742981    4.388320
     35          6           0       -7.979664    0.607754    4.053340
     36          6           0       -7.878172    0.740230    2.638970
     37          6           0       -8.240392   -1.354791    5.658915
     38          6           0       -7.989918    1.970751    4.559297
     39          8           0       -7.962149    2.479651    5.680788
     40          6           0       -8.160305    2.962189    3.324855
     41          6           0       -7.133848    4.052130    3.472245
     42          8           0       -5.915576    3.801649    3.370083
     43          8           0       -7.748736    5.244797    3.472321
     44          6           0       -6.784188    6.371249    3.585929
     45          1           0       -9.152772    1.785670   -3.446345
     46          1           0       -7.946457   -4.261540   -2.492375
     47          1           0       -8.030696   -3.360369    3.722123
     48          1           0       -9.117512    4.440392    0.721151
     49          1           0       -8.895015    3.948189   -2.045739
     50          1           0      -11.044152    3.384161   -0.038511
     51          1           0      -10.993790    2.262562   -1.433411
     52          1           0      -11.207148    3.961502   -1.747515
     53          1           0       -6.712991    4.126952   -1.087535
     54          1           0       -6.417165    4.340507    0.684288
     55          1           0       -8.198452    6.379627   -0.185198
     56          1           0       -7.164097    6.109599   -1.536142
     57          1           0       -8.475408    1.178488   -5.347758
     58          1           0       -8.789280   -0.315147   -6.145600
     59          1           0       -7.098986    0.240241   -6.037123
     60          1           0       -7.807921   -2.215020   -6.812085
     61          1           0       -6.569269   -3.588522   -6.899901
     62          1           0       -6.142989   -1.940240   -6.366628
     63          1           0       -7.405079   -5.703946   -0.460911
     64          1           0       -8.944266   -5.259547    2.049347
     65          1           0       -9.315024   -6.834873   -0.883408
     66          1           0      -10.159403   -5.250551   -0.958776
     67          1           0      -10.118319   -6.105349    0.495392
     68          1           0       -6.952463   -6.798385    1.867655
     69          1           0       -6.936356   -5.726719    3.263763
     70          1           0       -5.411154   -5.721479    0.769686
     71          1           0       -4.789065   -5.481226    2.437612
     72          1           0       -5.617100   -4.145772    1.518031
     73          1           0       -7.558341   -0.851644    6.344202
     74          1           0       -8.041044   -2.425335    5.616493
     75          1           0       -9.292696   -1.132672    5.835480
     76          1           0       -9.177797    3.349029    3.371618
     77          1           0       -7.084621    6.965251    4.449142
     78          1           0       -6.767406    6.864079    2.613694
     79          1           0       -5.763611    6.105781    3.863937
     80         12           0        8.092269   -0.495229    0.141589
     81          6           0        6.709542    1.830478   -2.215997
     82          6           0       10.156622    2.013898    1.179530
     83          6           0        9.634762   -2.630498    1.910423
     84          6           0        6.764677   -3.055039   -1.815597
     85          7           0        8.309744    1.607063   -0.510565
     86          6           0        7.687735    2.397249   -1.372585
     87          6           0        8.082717    3.895114   -1.272829
     88          6           0        9.534070    3.717379   -0.608857
     89          6           0        9.318025    2.380088    0.096584
     90          6           0       10.646022    3.544483   -1.630138
     91          6           0        7.118726    4.706474   -0.337727
     92          6           0        7.256404    6.227354   -0.436331
     93          1           0        6.054753    7.045453   -0.297685
     94          7           0        9.309427   -0.242768    1.688642
     95          6           0       10.053389    0.847685    1.969223
     96          6           0       10.789607    0.526195    3.201617
     97          6           0       10.545095   -0.903495    3.534673
     98          6           0        9.821224   -1.329211    2.353632
     99          6           0       11.560218    1.552470    3.980301
    100          6           0       10.914248   -1.750940    4.714400
    101          8           0       10.806234   -3.027802    4.686396
    102          6           0       11.493617   -1.049897    5.869544
    103          7           0        8.370696   -2.546739   -0.048520
    104          6           0        9.037982   -3.243563    0.888018
    105          6           0        8.874433   -4.730481    0.681362
    106          6           0        7.755685   -4.886404   -0.450755
    107          6           0        7.519835   -3.396077   -0.780424
    108          6           0       10.134286   -5.485954    0.258979
    109          6           0        6.525940   -5.771170   -0.107842
    110          6           0        5.700901   -5.111376    0.973540
    111          7           0        6.791203   -0.622812   -1.578586
    112          6           0        6.383215   -1.793599   -2.254527
    113          6           0        5.596495   -1.366154   -3.429587
    114          6           0        5.620945    0.035313   -3.368083
    115          6           0        6.386970    0.452146   -2.246056
    116          6           0        5.017614   -2.229592   -4.401959
    117          6           0        5.181811    1.256986   -4.003212
    118          8           0        4.432255    1.527927   -4.940496
    119          6           0        5.972818    2.474951   -3.357269
    120          6           0        4.977138    3.553416   -3.028552
    121          8           0        4.104768    3.365528   -2.162365
    122          8           0        5.351567    4.697106   -3.630343
    123          6           0        4.400953    5.799400   -3.325191
    124          1           0       11.000962    2.659345    1.423189
    125          1           0       10.054656   -3.410904    2.549273
    126          1           0        6.234536   -3.794107   -2.420082
    127          1           0        8.169103    4.406437   -2.224062
    128          1           0        9.735911    4.502296    0.115388
    129          1           0       10.259841    3.451102   -2.634281
    130          1           0       11.172638    2.644082   -1.342062
    131          1           0       11.370369    4.359086   -1.540302
    132          1           0        7.423226    4.557545    0.706224
    133          1           0        6.097630    4.424390   -0.506305
    134          1           0        7.829476    6.532911   -1.320159
    135          1           0        7.857374    6.576766    0.406737
    136          1           0       11.696450    2.475863    3.403939
    137          1           0       12.574926    1.160499    4.109132
    138          1           0       11.128477    1.745939    4.964595
    139          1           0       12.393826   -0.524849    5.559027
    140          1           0       11.608660   -1.809777    6.644938
    141          1           0       10.784278   -0.285960    6.206974
    142          1           0        8.526644   -5.210932    1.587622
    143          1           0        8.160480   -5.349697   -1.362538
    144          1           0       10.398694   -6.312094    0.945742
    145          1           0       10.948575   -4.777393    0.185243
    146          1           0       10.104714   -5.909062   -0.743669
    147          1           0        6.852092   -6.733500    0.294273
    148          1           0        5.890769   -5.977947   -0.962704
    149          1           0        6.216189   -5.407314    1.892223
    150          1           0        4.678760   -5.484194    0.956685
    151          1           0        5.757950   -4.019089    0.900809
    152          1           0        4.022236   -1.854032   -4.598626
    153          1           0        4.993001   -3.260216   -4.054136
    154          1           0        5.720306   -2.091846   -5.228102
    155          1           0        6.712256    2.808832   -4.086194
    156          1           0        4.053611    6.196354   -4.284083
    157          1           0        4.951113    6.493394   -2.662287
    158          1           0        3.461960    5.535132   -2.853078
 ---------------------------------------------------------------------

 SCF Done:  E(RCAM-B3LYP) =  -4069.81174286     A.U. after   19 cycles

 Excitation energies and oscillator strengths:

 Excited State   1:      Singlet-A      1.6709 eV  742.00 nm  f=0.1092  <S**2>=0.000
     309 -> 315        0.14173
     311 -> 313        0.56399
     312 -> 314        0.39108
 This state for optimization and/or second-order correction.
 Total Energy, E(TD-HF/TD-DFT) =  -4069.75033688
 Copying the excited state density for this state as the 1-particle RhoCI density.

 Excited State   2:      Singlet-A      1.6845 eV  736.02 nm  f=0.6572  <S**2>=0.000
     309 -> 315       -0.10022
     310 -> 316        0.14522
     311 -> 313       -0.39063
     312 -> 314        0.56324

 Excited State   3:      Singlet-A      2.1855 eV  567.31 nm  f=0.0562  <S**2>=0.000
     309 -> 313        0.62585
     310 -> 314       -0.14661
     311 -> 315       -0.26548

 Excited State   4:      Singlet-A      2.1929 eV  565.38 nm  f=0.1366  <S**2>=0.000
     309 -> 313        0.14559
     310 -> 314        0.62384
     312 -> 316       -0.27114

 Excited State   5:      Singlet-A      2.7592 eV  449.34 nm  f=0.0000  <S**2>=0.000
     312 -> 313        0.70701

 The electronic state is 1-A.
 Alpha  occ. eigenvalues --  -46.87605 -46.87587 -19.26319 -19.26097 -19.19117
 Alpha  occ. eigenvalues --  -19.18819 -19.18658 -19.18603 -19.18016 -19.17978
 Alpha  occ. eigenvalues --  -14.42444 -14.42243 -14.41306 -14.41248 -14.39297
 Alpha  occ. eigenvalues --  -14.39192 -14.38546 -14.38380 -10.39048 -10.38880
 Alpha  occ. eigenvalues --  -10.35335 -10.35235 -10.34198 -10.34193 -10.31739
 Alpha  occ. eigenvalues --  -10.31505 -10.31260 -10.31204 -10.30971 -10.30699
 Alpha  occ. eigenvalues --  -10.30366 -10.30345 -10.30310 -10.30305 -10.30086
 Alpha  occ. eigenvalues --  -10.30007 -10.29843 -10.29728 -10.29426 -10.29383
 Alpha  occ. eigenvalues --  -10.29349 -10.29047 -10.28670 -10.28603 -10.28543
 Alpha  occ. eigenvalues --  -10.28353 -10.28328 -10.28157 -10.28095 -10.27952
 Alpha  occ. eigenvalues --  -10.27918 -10.27618 -10.27591 -10.27523 -10.27464
 Alpha  occ. eigenvalues --  -10.27433 -10.27414 -10.27410 -10.27375 -10.27325
 Alpha  occ. eigenvalues --  -10.27324 -10.27274 -10.27256 -10.27200 -10.27012
 Alpha  occ. eigenvalues --  -10.26965 -10.26633 -10.26477 -10.26355 -10.26178
 Alpha  occ. eigenvalues --  -10.26076 -10.26055 -10.26014 -10.25990 -10.25881
 Alpha  occ. eigenvalues --  -10.25821 -10.25811 -10.25668 -10.25355 -10.25277
 Alpha  occ. eigenvalues --  -10.24824 -10.24657 -10.24638 -10.24632 -10.24588
 Alpha  occ. eigenvalues --  -10.24506  -3.16354  -3.16329  -1.91236  -1.91210
 Alpha  occ. eigenvalues --   -1.90825  -1.90797  -1.90662  -1.90639  -1.16610
 Alpha  occ. eigenvalues --   -1.16443  -1.08624  -1.08437  -1.07004  -1.06910
 Alpha  occ. eigenvalues --   -1.06904  -1.06443  -1.04443  -1.04375  -1.03610
 Alpha  occ. eigenvalues --   -1.03558  -1.03029  -1.02986  -1.02208  -1.02059
 Alpha  occ. eigenvalues --   -0.91939  -0.91772  -0.89441  -0.89329  -0.89103
 Alpha  occ. eigenvalues --   -0.88985  -0.88167  -0.88100  -0.87747  -0.87676
 Alpha  occ. eigenvalues --   -0.87632  -0.87469  -0.87065  -0.87059  -0.84950
 Alpha  occ. eigenvalues --   -0.84778  -0.83823  -0.83754  -0.82876  -0.82756
 Alpha  occ. eigenvalues --   -0.82603  -0.82446  -0.81556  -0.81393  -0.80396
 Alpha  occ. eigenvalues --   -0.80396  -0.78589  -0.78584  -0.77094  -0.77022
 Alpha  occ. eigenvalues --   -0.76852  -0.76741  -0.75795  -0.75729  -0.74755
 Alpha  occ. eigenvalues --   -0.74715  -0.72649  -0.72576  -0.71534  -0.71479
 Alpha  occ. eigenvalues --   -0.69725  -0.69700  -0.68778  -0.68670  -0.67552
 Alpha  occ. eigenvalues --   -0.67440  -0.67146  -0.67007  -0.65223  -0.65083
 Alpha  occ. eigenvalues --   -0.64721  -0.64656  -0.64607  -0.64425  -0.64151
 Alpha  occ. eigenvalues --   -0.64079  -0.62238  -0.62107  -0.60286  -0.60236
 Alpha  occ. eigenvalues --   -0.59747  -0.59601  -0.58943  -0.58790  -0.58377
 Alpha  occ. eigenvalues --   -0.58306  -0.57513  -0.57389  -0.57186  -0.57114
 Alpha  occ. eigenvalues --   -0.56156  -0.56110  -0.55846  -0.55785  -0.55405
 Alpha  occ. eigenvalues --   -0.55316  -0.55200  -0.55154  -0.54441  -0.54337
 Alpha  occ. eigenvalues --   -0.53863  -0.53691  -0.53177  -0.53098  -0.53093
 Alpha  occ. eigenvalues --   -0.53015  -0.52853  -0.52716  -0.52614  -0.52543
 Alpha  occ. eigenvalues --   -0.52342  -0.52256  -0.51841  -0.51728  -0.51608
 Alpha  occ. eigenvalues --   -0.51408  -0.51156  -0.51002  -0.50419  -0.50351
 Alpha  occ. eigenvalues --   -0.49929  -0.49844  -0.49815  -0.49710  -0.49436
 Alpha  occ. eigenvalues --   -0.49310  -0.49155  -0.49061  -0.49014  -0.48901
 Alpha  occ. eigenvalues --   -0.48515  -0.48401  -0.48330  -0.48288  -0.48274
 Alpha  occ. eigenvalues --   -0.48240  -0.47546  -0.47495  -0.47098  -0.47069
 Alpha  occ. eigenvalues --   -0.46658  -0.46602  -0.46504  -0.46351  -0.46220
 Alpha  occ. eigenvalues --   -0.46161  -0.46039  -0.45972  -0.45781  -0.45634
 Alpha  occ. eigenvalues --   -0.45159  -0.45017  -0.44470  -0.44427  -0.44385
 Alpha  occ. eigenvalues --   -0.44302  -0.44082  -0.44025  -0.43948  -0.43892
 Alpha  occ. eigenvalues --   -0.43890  -0.43818  -0.43512  -0.43338  -0.43304
 Alpha  occ. eigenvalues --   -0.43188  -0.42890  -0.42857  -0.42832  -0.42509
 Alpha  occ. eigenvalues --   -0.42498  -0.42469  -0.41909  -0.41818  -0.41624
 Alpha  occ. eigenvalues --   -0.41508  -0.41407  -0.41332  -0.40946  -0.40943
 Alpha  occ. eigenvalues --   -0.40671  -0.40668  -0.40645  -0.40610  -0.40441
 Alpha  occ. eigenvalues --   -0.40384  -0.40173  -0.40018  -0.39366  -0.39258
 Alpha  occ. eigenvalues --   -0.38298  -0.38281  -0.37602  -0.37539  -0.37213
 Alpha  occ. eigenvalues --   -0.37148  -0.37128  -0.37056  -0.36730  -0.36521
 Alpha  occ. eigenvalues --   -0.36168  -0.35999  -0.34201  -0.34083  -0.33815
 Alpha  occ. eigenvalues --   -0.33567  -0.33123  -0.32983  -0.31217  -0.31134
 Alpha  occ. eigenvalues --   -0.30921  -0.30833  -0.29921  -0.29838  -0.29274
 Alpha  occ. eigenvalues --   -0.29240  -0.29162  -0.29119  -0.23984  -0.23876
 Alpha  occ. eigenvalues --   -0.21065  -0.20924
 Alpha virt. eigenvalues --   -0.08740  -0.08569  -0.01630  -0.01546   0.00024
 Alpha virt. eigenvalues --    0.00152   0.02252   0.02397   0.03308   0.03379
 Alpha virt. eigenvalues --    0.04780   0.04920   0.05206   0.05296   0.06231

 Mulliken charges:
               1
     1  Mg   0.839664
     2  C   -0.002674
     3  C   -0.093759
     4  C   -0.045888
     5  C   -0.064094
     6  N   -0.256758
     7  C   -0.052345
     8  C   -0.014175
     9  C   -0.087070
    10  C    0.046586
    11  C    0.104891
    12  C    0.053350
    13  C   -0.071693
    14  H    0.036069
    15  N   -0.433113
    16  C    0.168812
    17  C   -0.176811
    18  C   -0.003791
    19  C    0.148940
    20  C    0.110172
    21  C    0.012606
    22  O   -0.249976
    23  C    0.062218
    24  N   -0.341165
    25  C    0.041292
    26  C   -0.028118
    27  C   -0.023888
    28  C    0.074844
    29  C    0.076315
    30  C    0.035203
    31  C   -0.004466
    32  N   -0.310407
    33  C    0.080429
    34  C   -0.169864
    35  C    0.008199
    36  C    0.083159
    37  C    0.127333
    38  C    0.046093
    39  O   -0.188963
    40  C   -0.005372
    41  C    0.212673
    42  O   -0.256443
    43  O   -0.304993
    44  C    0.157799
    45  H   -0.017766
    46  H   -0.017085
    47  H   -0.041878
    48  H    0.000547
    49  H   -0.003891
    50  H    0.025235
    51  H    0.016299
    52  H    0.016381
    53  H    0.012090
    54  H    0.044605
    55  H    0.017295
    56  H    0.018054
    57  H    0.005800
    58  H    0.026436
    59  H    0.040610
    60  H    0.037009
    61  H    0.035484
    62  H    0.032709
    63  H    0.016465
    64  H    0.009093
    65  H    0.022907
    66  H    0.012465
    67  H    0.004440
    68  H    0.005891
    69  H    0.004478
    70  H    0.008651
    71  H    0.017921
    72  H    0.029658
    73  H    0.047396
    74  H    0.008891
    75  H    0.045609
    76  H    0.034766
    77  H    0.042386
    78  H    0.046369
    79  H    0.053860
    80  Mg   0.838349
    81  C   -0.016704
    82  C   -0.087750
    83  C   -0.045468
    84  C   -0.064885
    85  N   -0.254581
    86  C   -0.049755
    87  C   -0.015172
    88  C   -0.090519
    89  C    0.045857
    90  C    0.114418
    91  C    0.062490
    92  C   -0.077907
    93  H    0.035008
    94  N   -0.423476
    95  C    0.163095
    96  C   -0.174576
    97  C   -0.007735
    98  C    0.152215
    99  C    0.099379
   100  C    0.015712
   101  O   -0.253177
   102  C    0.061103
   103  N   -0.350092
   104  C    0.037559
   105  C   -0.019793
   106  C   -0.034852
   107  C    0.088982
   108  C    0.073699
   109  C    0.034745
   110  C   -0.007698
   111  N   -0.324115
   112  C    0.078559
   113  C   -0.163033
   114  C    0.002060
   115  C    0.096451
   116  C    0.131465
   117  C    0.042481
   118  O   -0.188530
   119  C    0.000905
   120  C    0.210952
   121  O   -0.250377
   122  O   -0.305797
   123  C    0.152133
   124  H   -0.019753
   125  H   -0.015583
   126  H   -0.040470
   127  H   -0.000911
   128  H   -0.004281
   129  H    0.022295
   130  H    0.014379
   131  H    0.016154
   132  H    0.014240
   133  H    0.038007
   134  H    0.020452
   135  H    0.019651
   136  H    0.008721
   137  H    0.026033
   138  H    0.040042
   139  H    0.038133
   140  H    0.036430
   141  H    0.034174
   142  H    0.014499
   143  H    0.012256
   144  H    0.025096
   145  H    0.011537
   146  H    0.005548
   147  H    0.006125
   148  H    0.003661
   149  H    0.010918
   150  H    0.018152
   151  H    0.030358
   152  H    0.045895
   153  H    0.008684
   154  H    0.046621
   155  H    0.034723
   156  H    0.043235
   157  H    0.049576
   158  H    0.053776
 Sum of Mulliken charges =  -0.00000

 Dipole moment (field-independent basis, Debye):
    X=              1.8281    Y=              2.9464    Z=             -2.5306  Tot=              4.2927
 Quadrupole moment (field-independent basis, Debye-Ang):
   XX=           -434.7635   YY=           -462.3767   ZZ=           -534.5176
   XY=             22.1995   XZ=             33.8060   YZ=            -14.7898

 Normal termination of Gaussian 16 at Sat Sep 11 23:53:34 2021.
