 Gaussian 16, Revision A.03,
 Gaussian 16:  ES64L-G16RevA.03 25-Dec-2016

 -----------------------------------
 #p cam-b3lyp/Def2SVP td=(nstates=5)
 -----------------------------------

 --------------------------------
 TDDFT excited states in gaussian
 --------------------------------
 Symbolic Z-matrix:
 Charge =  0 Multiplicity = 1

                         Standard orientation:
 ---------------------------------------------------------------------
 Center     Atomic      Atomic             Coordinates (Angstroms)
 Number     Number       Type             X           Y           Z
 ---------------------------------------------------------------------
      1         12           0       -3.368402   -1.924781    0.383593
      2          6           0       -5.262534    0.872506   -0.799480
      3          6           0       -3.680813   -3.266808   -2.738014
      4          6           0       -2.096768   -4.596902    1.523478
      5          6           0       -4.175308   -0.914276    3.619863
      6          7           0       -4.366611   -1.193166   -1.451881
      7          6           0       -5.006002   -0.077880   -1.790239
      8          6           0       -5.312024    0.020578   -3.314716
      9          6           0       -5.288759   -1.531926   -3.676917
     10          6           0       -4.362197   -2.023652   -2.578914
     11          6           0       -6.643455   -2.214798   -3.518852
     12          6           0       -4.204814    0.807266   -4.093779
     13          6           0       -4.582052    1.229576   -5.516698
     14          1           0       -4.091496    2.502665   -6.022612
     15          7           0       -2.529401   -3.446742   -0.555855
     16          6           0       -2.761814   -3.838549   -1.831691
     17          6           0       -1.897173   -5.016174   -2.060330
     18          6           0       -1.285333   -5.391662   -0.755434
     19          6           0       -1.975317   -4.498064    0.139431
     20          6           0       -1.683662   -5.630652   -3.409619
     21          6           0       -0.251656   -6.403604   -0.373836
     22          8           0       -0.032770   -6.726428    0.843722
     23          6           0        0.445570   -7.080578   -1.482269
     24          7           0       -3.341889   -2.786410    2.284784
     25          6           0       -2.670063   -3.918827    2.519869
     26          6           0       -2.556284   -4.190926    3.990568
     27          6           0       -3.083532   -2.875103    4.725667
     28          6           0       -3.508425   -2.061980    3.478042
     29          6           0       -3.332387   -5.410076    4.507627
     30          6           0       -2.128555   -2.210762    5.748940
     31          6           0       -0.925921   -1.638800    5.032261
     32          7           0       -4.360235   -0.220774    1.291157
     33          6           0       -4.606124   -0.017255    2.656731
     34          6           0       -5.398428    1.220793    2.773185
     35          6           0       -5.573666    1.645319    1.457543
     36          6           0       -4.953960    0.716397    0.573597
     37          6           0       -5.904723    1.775623    3.981598
     38          6           0       -6.161376    2.654475    0.591484
     39          8           0       -6.727445    3.732837    0.776403
     40          6           0       -6.088134    2.130137   -0.910358
     41          6           0       -5.551132    3.251386   -1.757552
     42          8           0       -4.376943    3.651131   -1.620254
     43          8           0       -6.417024    3.513858   -2.748451
     44          6           0       -5.930607    4.597316   -3.643811
     45          1           0       -3.913513   -3.889167   -3.604305
     46          1           0       -1.575681   -5.447928    1.966944
     47          1           0       -4.391492   -0.491893    4.602874
     48          1           0       -6.286877    0.444612   -3.556130
     49          1           0       -4.846525   -1.714786   -4.656056
     50          1           0       -7.373772   -1.549349   -3.058704
     51          1           0       -6.460847   -3.079395   -2.880402
     52          1           0       -6.989488   -2.614280   -4.472504
     53          1           0       -3.374349    0.136329   -4.313398
     54          1           0       -3.885832    1.684573   -3.529944
     55          1           0       -5.654942    1.138201   -5.688352
     56          1           0       -4.134892    0.520378   -6.213323
     57          1           0       -2.391453   -5.244528   -4.142070
     58          1           0       -1.933721   -6.687711   -3.321267
     59          1           0       -0.653896   -5.523769   -3.750926
     60          1           0       -0.285351   -7.595222   -2.106324
     61          1           0        1.210449   -7.703856   -1.020387
     62          1           0        0.914444   -6.327815   -2.116663
     63          1           0       -1.520393   -4.368965    4.276327
     64          1           0       -3.994697   -3.061676    5.294564
     65          1           0       -2.707416   -6.141889    5.020039
     66          1           0       -3.851454   -5.862174    3.662957
     67          1           0       -4.163480   -5.174739    5.171946
     68          1           0       -1.757781   -2.950724    6.457410
     69          1           0       -2.599366   -1.410955    6.320690
     70          1           0       -0.267719   -2.501400    4.934676
     71          1           0       -0.459880   -0.858256    5.634562
     72          1           0       -1.182266   -1.308958    4.025297
     73          1           0       -5.722654    2.848721    3.924328
     74          1           0       -5.418470    1.337281    4.852815
     75          1           0       -6.955979    1.498037    3.906355
     76          1           0       -7.102301    1.851554   -1.194928
     77          1           0       -6.703170    5.365992   -3.666551
     78          1           0       -5.661652    4.122191   -4.587381
     79          1           0       -5.077530    5.173524   -3.283836
     80         12           0        3.498200    2.067888    0.211208
     81          6           0        4.910064   -0.835906   -1.355210
     82          6           0        3.568740    0.334144    3.147829
     83          6           0        1.845998    4.432780    1.532174
     84          6           0        2.495090    3.118111   -2.956837
     85          7           0        4.175429    0.021022    0.705127
     86          6           0        4.750942   -0.969222    0.039901
     87          6           0        5.253007   -2.136603    0.931365
     88          6           0        4.277781   -1.916129    2.188029
     89          6           0        4.013167   -0.419984    2.032537
     90          6           0        2.954058   -2.651253    2.058793
     91          6           0        6.759664   -1.972987    1.337867
     92          6           0        7.400857   -3.222106    1.946412
     93          1           0        8.805014   -3.496501    1.653973
     94          7           0        3.248189    2.550065    2.120014
     95          6           0        3.335516    1.726452    3.185529
     96          6           0        3.048003    2.560090    4.363046
     97          6           0        2.622110    3.906061    3.892192
     98          6           0        2.533642    3.670277    2.465071
     99          6           0        3.263111    2.082925    5.769979
    100          6           0        2.328979    5.189132    4.609138
    101          8           0        1.744410    6.168680    4.024667
    102          6           0        2.661994    5.231178    6.040509
    103          7           0        2.155563    3.453835   -0.562622
    104          6           0        1.620216    4.408389    0.218500
    105          6           0        0.905325    5.451379   -0.607038
    106          6           0        1.279994    5.126749   -2.127507
    107          6           0        2.110932    3.842354   -1.914689
    108          6           0       -0.615103    5.492394   -0.455438
    109          6           0        1.902692    6.280383   -2.960612
    110          6           0        3.276760    6.617993   -2.428320
    111          7           0        3.814547    1.403559   -1.820211
    112          6           0        3.281144    1.973612   -2.996907
    113          6           0        3.683351    1.105275   -4.122365
    114          6           0        4.409160    0.069589   -3.514878
    115          6           0        4.438846    0.266917   -2.107867
    116          6           0        3.332874    1.298195   -5.488402
    117          6           0        5.147941   -1.151448   -3.742861
    118          8           0        5.527311   -1.763878   -4.740234
    119          6           0        5.397671   -1.860015   -2.342166
    120          6           0        6.845563   -2.262311   -2.276737
    121          8           0        7.740983   -1.399521   -2.256506
    122          8           0        6.925326   -3.582683   -2.030482
    123          6           0        8.341952   -4.027416   -1.945640
    124          1           0        3.335394   -0.195012    4.072182
    125          1           0        1.350934    5.324117    1.924468
    126          1           0        2.304999    3.429656   -3.986144
    127          1           0        5.102875   -3.124650    0.513053
    128          1           0        4.789773   -2.117400    3.125430
    129          1           0        2.839459   -3.106805    1.086426
    130          1           0        2.186533   -1.905653    2.220103
    131          1           0        2.844902   -3.376585    2.870155
    132          1           0        6.827230   -1.290602    2.194911
    133          1           0        7.344748   -1.636052    0.504336
    134          1           0        6.791765   -4.119434    1.782821
    135          1           0        7.422123   -3.107025    3.032839
    136          1           0        3.423342    0.998316    5.806820
    137          1           0        2.321066    2.236734    6.307339
    138          1           0        4.056418    2.630134    6.283695
    139          1           0        2.121286    4.443875    6.560359
    140          1           0        2.463712    6.257144    6.356655
    141          1           0        3.728865    5.010791    6.158104
    142          1           0        1.257720    6.446030   -0.362941
    143          1           0        0.394954    4.835221   -2.711917
    144          1           0       -0.995679    6.481994   -0.139329
    145          1           0       -0.908300    4.728429    0.252328
    146          1           0       -1.175685    5.210501   -1.345087
    147          1           0        1.300279    7.186744   -2.861872
    148          1           0        1.977157    6.056963   -4.019629
    149          1           0        3.059420    7.289692   -1.592454
    150          1           0        3.871197    7.116727   -3.191189
    151          1           0        3.769008    5.728919   -2.017353
    152          1           0        4.226742    1.111322   -6.068553
    153          1           0        2.947514    2.300720   -5.662227
    154          1           0        2.557782    0.535348   -5.600503
    155          1           0        4.730613   -2.721161   -2.287108
    156          1           0        8.466465   -4.837536   -2.670828
    157          1           0        8.514587   -4.273428   -0.881011
    158          1           0        9.106066   -3.331821   -2.272332
 ---------------------------------------------------------------------

 SCF Done:  E(RCAM-B3LYP) =  -4069.81315706     A.U. after   19 cycles

 Excitation energies and oscillator strengths:

 Excited State   1:      Singlet-A      1.6461 eV  753.19 nm  f=0.0909  <S**2>=0.000
     309 -> 315        0.10800
     310 -> 316        0.12698
     311 -> 313       -0.44700
     312 -> 314        0.52256
 This state for optimization and/or second-order correction.
 Total Energy, E(TD-HF/TD-DFT) =  -4069.75266292
 Copying the excited state density for this state as the 1-particle RhoCI density.

 Excited State   2:      Singlet-A      1.6969 eV  730.64 nm  f=0.5754  <S**2>=0.000
     309 -> 315       -0.13637
     310 -> 316        0.11626
     311 -> 313        0.51987
     312 -> 314        0.44474

 Excited State   3:      Singlet-A      2.1788 eV  569.06 nm  f=0.0441  <S**2>=0.000
     309 -> 313        0.30069
     310 -> 314        0.57157
     311 -> 315        0.12336
     312 -> 316       -0.23506

 Excited State   4:      Singlet-A      2.1968 eV  564.38 nm  f=0.1368  <S**2>=0.000
     309 -> 313        0.56540
     310 -> 314       -0.29619
     311 -> 315        0.24917
     312 -> 316        0.13194

 Excited State   5:      Singlet-A      2.2217 eV  558.05 nm  f=0.0001  <S**2>=0.000
     312 -> 313        0.70684

 The electronic state is 1-A.
 Alpha  occ. eigenvalues --  -46.87951 -46.87369 -19.26539 -19.26234 -19.19351
 Alpha  occ. eigenvalues --  -19.19025 -19.18984 -19.18457 -19.18316 -19.17888
 Alpha  occ. eigenvalues --  -14.42600 -14.42205 -14.41625 -14.41017 -14.39555
 Alpha  occ. eigenvalues --  -14.39071 -14.38736 -14.38332 -10.39370 -10.38951
 Alpha  occ. eigenvalues --  -10.35609 -10.35137 -10.34542 -10.34067 -10.31925
 Alpha  occ. eigenvalues --  -10.31663 -10.31550 -10.31059 -10.31048 -10.30740
 Alpha  occ. eigenvalues --  -10.30714 -10.30675 -10.30389 -10.30125 -10.30120
 Alpha  occ. eigenvalues --  -10.30114 -10.29778 -10.29769 -10.29519 -10.29399
 Alpha  occ. eigenvalues --  -10.29169 -10.29142 -10.28895 -10.28698 -10.28512
 Alpha  occ. eigenvalues --  -10.28448 -10.28444 -10.28244 -10.28144 -10.27930
 Alpha  occ. eigenvalues --  -10.27867 -10.27830 -10.27766 -10.27755 -10.27726
 Alpha  occ. eigenvalues --  -10.27712 -10.27567 -10.27522 -10.27387 -10.27345
 Alpha  occ. eigenvalues --  -10.27302 -10.27229 -10.27209 -10.26982 -10.26888
 Alpha  occ. eigenvalues --  -10.26868 -10.26709 -10.26552 -10.26500 -10.26464
 Alpha  occ. eigenvalues --  -10.26346 -10.26211 -10.26191 -10.25950 -10.25740
 Alpha  occ. eigenvalues --  -10.25732 -10.25667 -10.25623 -10.25612 -10.25172
 Alpha  occ. eigenvalues --  -10.24972 -10.24971 -10.24640 -10.24390 -10.24341
 Alpha  occ. eigenvalues --  -10.24229  -3.16693  -3.16120  -1.91575  -1.91162
 Alpha  occ. eigenvalues --   -1.91003  -1.91002  -1.90589  -1.90428  -1.16894
 Alpha  occ. eigenvalues --   -1.16523  -1.08781  -1.08509  -1.07389  -1.06932
 Alpha  occ. eigenvalues --   -1.06812  -1.06705  -1.04732  -1.04214  -1.03931
 Alpha  occ. eigenvalues --   -1.03391  -1.03365  -1.02721  -1.02571  -1.01806
 Alpha  occ. eigenvalues --   -0.92137  -0.91741  -0.89759  -0.89331  -0.89143
 Alpha  occ. eigenvalues --   -0.88853  -0.88521  -0.88002  -0.87827  -0.87767
 Alpha  occ. eigenvalues --   -0.87579  -0.87393  -0.87360  -0.86894  -0.85139
 Alpha  occ. eigenvalues --   -0.84712  -0.84207  -0.83413  -0.83126  -0.82810
 Alpha  occ. eigenvalues --   -0.82636  -0.82356  -0.81779  -0.81390  -0.80768
 Alpha  occ. eigenvalues --   -0.80200  -0.78922  -0.78403  -0.77406  -0.77117
 Alpha  occ. eigenvalues --   -0.76861  -0.76577  -0.76088  -0.75577  -0.75114
 Alpha  occ. eigenvalues --   -0.74245  -0.72934  -0.72420  -0.71843  -0.71176
 Alpha  occ. eigenvalues --   -0.70206  -0.69297  -0.69027  -0.68549  -0.67804
 Alpha  occ. eigenvalues --   -0.67368  -0.67310  -0.66959  -0.65452  -0.65040
 Alpha  occ. eigenvalues --   -0.65009  -0.64822  -0.64500  -0.64486  -0.64375
 Alpha  occ. eigenvalues --   -0.63796  -0.62516  -0.62053  -0.60594  -0.60043
 Alpha  occ. eigenvalues --   -0.59946  -0.59522  -0.59166  -0.58682  -0.58680
 Alpha  occ. eigenvalues --   -0.58141  -0.57780  -0.57508  -0.57375  -0.56902
 Alpha  occ. eigenvalues --   -0.56458  -0.56185  -0.55975  -0.55682  -0.55672
 Alpha  occ. eigenvalues --   -0.55585  -0.55238  -0.54895  -0.54779  -0.54114
 Alpha  occ. eigenvalues --   -0.54045  -0.53623  -0.53473  -0.53376  -0.53130
 Alpha  occ. eigenvalues --   -0.52957  -0.52892  -0.52882  -0.52745  -0.52653
 Alpha  occ. eigenvalues --   -0.52431  -0.52049  -0.52018  -0.51758  -0.51714
 Alpha  occ. eigenvalues --   -0.51419  -0.51385  -0.50951  -0.50684  -0.50263
 Alpha  occ. eigenvalues --   -0.50237  -0.50057  -0.49698  -0.49669  -0.49378
 Alpha  occ. eigenvalues --   -0.49369  -0.49243  -0.49222  -0.48972  -0.48822
 Alpha  occ. eigenvalues --   -0.48775  -0.48669  -0.48598  -0.48322  -0.48106
 Alpha  occ. eigenvalues --   -0.47885  -0.47867  -0.47453  -0.47297  -0.46987
 Alpha  occ. eigenvalues --   -0.46779  -0.46711  -0.46532  -0.46394  -0.46354
 Alpha  occ. eigenvalues --   -0.46238  -0.45995  -0.45992  -0.45722  -0.45546
 Alpha  occ. eigenvalues --   -0.45425  -0.44758  -0.44674  -0.44633  -0.44351
 Alpha  occ. eigenvalues --   -0.44251  -0.44246  -0.44178  -0.44167  -0.43863
 Alpha  occ. eigenvalues --   -0.43742  -0.43716  -0.43687  -0.43558  -0.43333
 Alpha  occ. eigenvalues --   -0.43210  -0.43044  -0.42950  -0.42922  -0.42753
 Alpha  occ. eigenvalues --   -0.42571  -0.42242  -0.42145  -0.41877  -0.41697
 Alpha  occ. eigenvalues --   -0.41642  -0.41373  -0.41307  -0.41148  -0.41066
 Alpha  occ. eigenvalues --   -0.40983  -0.40792  -0.40631  -0.40457  -0.40398
 Alpha  occ. eigenvalues --   -0.40389  -0.40022  -0.39978  -0.39770  -0.38997
 Alpha  occ. eigenvalues --   -0.38698  -0.37912  -0.37868  -0.37531  -0.37417
 Alpha  occ. eigenvalues --   -0.37382  -0.36969  -0.36957  -0.36864  -0.36557
 Alpha  occ. eigenvalues --   -0.36421  -0.35815  -0.34447  -0.34053  -0.33959
 Alpha  occ. eigenvalues --   -0.33695  -0.33357  -0.32886  -0.31514  -0.31207
 Alpha  occ. eigenvalues --   -0.31005  -0.30671  -0.30179  -0.29797  -0.29591
 Alpha  occ. eigenvalues --   -0.29461  -0.29087  -0.28982  -0.24243  -0.23746
 Alpha  occ. eigenvalues --   -0.21283  -0.20822
 Alpha virt. eigenvalues --   -0.08924  -0.08527  -0.01919  -0.01363  -0.00206
 Alpha virt. eigenvalues --    0.00217   0.02035   0.02329   0.02547   0.03625
 Alpha virt. eigenvalues --    0.04557   0.04838   0.05053   0.05317   0.05972

 Mulliken charges:
               1
     1  Mg   0.839031
     2  C   -0.003255
     3  C   -0.092974
     4  C   -0.047046
     5  C   -0.063764
     6  N   -0.256692
     7  C   -0.052314
     8  C   -0.014190
     9  C   -0.087198
    10  C    0.046332
    11  C    0.104661
    12  C    0.053510
    13  C   -0.071772
    14  H    0.034643
    15  N   -0.433362
    16  C    0.168764
    17  C   -0.176040
    18  C   -0.004226
    19  C    0.148878
    20  C    0.109642
    21  C    0.010828
    22  O   -0.251354
    23  C    0.062270
    24  N   -0.340931
    25  C    0.041599
    26  C   -0.028100
    27  C   -0.023648
    28  C    0.074122
    29  C    0.076125
    30  C    0.035503
    31  C   -0.006110
    32  N   -0.310660
    33  C    0.080525
    34  C   -0.168910
    35  C    0.008620
    36  C    0.083059
    37  C    0.127230
    38  C    0.046124
    39  O   -0.187947
    40  C   -0.005764
    41  C    0.214885
    42  O   -0.258891
    43  O   -0.303935
    44  C    0.157636
    45  H   -0.016805
    46  H   -0.017749
    47  H   -0.041800
    48  H    0.001038
    49  H   -0.003289
    50  H    0.025499
    51  H    0.016575
    52  H    0.017263
    53  H    0.012182
    54  H    0.042449
    55  H    0.018398
    56  H    0.019030
    57  H    0.006496
    58  H    0.027038
    59  H    0.042383
    60  H    0.038288
    61  H    0.035294
    62  H    0.033458
    63  H    0.014331
    64  H    0.010064
    65  H    0.022732
    66  H    0.013407
    67  H    0.005139
    68  H    0.005536
    69  H    0.005442
    70  H    0.006021
    71  H    0.015205
    72  H    0.032407
    73  H    0.048701
    74  H    0.008785
    75  H    0.046074
    76  H    0.035804
    77  H    0.043930
    78  H    0.046890
    79  H    0.052185
    80  Mg   0.836613
    81  C   -0.017638
    82  C   -0.089098
    83  C   -0.044545
    84  C   -0.064213
    85  N   -0.255089
    86  C   -0.050163
    87  C   -0.014882
    88  C   -0.091064
    89  C    0.045914
    90  C    0.114735
    91  C    0.062539
    92  C   -0.077660
    93  H    0.033491
    94  N   -0.423853
    95  C    0.163964
    96  C   -0.175111
    97  C   -0.007094
    98  C    0.152356
    99  C    0.099385
   100  C    0.015410
   101  O   -0.251543
   102  C    0.061399
   103  N   -0.350517
   104  C    0.040217
   105  C   -0.022037
   106  C   -0.032952
   107  C    0.089308
   108  C    0.070469
   109  C    0.034433
   110  C   -0.007233
   111  N   -0.323791
   112  C    0.078083
   113  C   -0.164247
   114  C    0.001069
   115  C    0.096178
   116  C    0.131900
   117  C    0.040652
   118  O   -0.190628
   119  C    0.001702
   120  C    0.211178
   121  O   -0.250980
   122  O   -0.306023
   123  C    0.152237
   124  H   -0.019711
   125  H   -0.013517
   126  H   -0.041612
   127  H   -0.000823
   128  H   -0.005154
   129  H    0.023862
   130  H    0.013772
   131  H    0.019387
   132  H    0.013582
   133  H    0.037044
   134  H    0.021683
   135  H    0.019406
   136  H    0.008295
   137  H    0.024741
   138  H    0.039447
   139  H    0.037290
   140  H    0.036352
   141  H    0.033376
   142  H    0.012304
   143  H    0.014432
   144  H    0.022989
   145  H    0.017860
   146  H    0.018415
   147  H    0.006450
   148  H    0.001409
   149  H    0.011070
   150  H    0.016226
   151  H    0.029315
   152  H    0.045060
   153  H    0.008372
   154  H    0.044026
   155  H    0.032308
   156  H    0.042816
   157  H    0.050009
   158  H    0.053345
 Sum of Mulliken charges =  -0.00000

 Dipole moment (field-independent basis, Debye):
    X=             -2.5418    Y=             -4.4639    Z=              0.9410  Tot=              5.2223
 Quadrupole moment (field-independent basis, Debye-Ang):
   XX=           -530.2140   YY=           -525.5893   ZZ=           -464.6882
   XY=             13.9640   XZ=             48.6591   YZ=            -16.9209

 Normal termination of Gaussian 16 at Fri Sep  3 14:16:26 2021.
