 Gaussian 16, Revision A.03,
 Gaussian 16:  ES64L-G16RevA.03 25-Dec-2016

 -----------------------------------
 #p cam-b3lyp/Def2SVP td=(nstates=5)
 -----------------------------------

 --------------------------------
 TDDFT excited states in gaussian
 --------------------------------
 Symbolic Z-matrix:
 Charge =  0 Multiplicity = 1

                         Standard orientation:
 ---------------------------------------------------------------------
 Center     Atomic      Atomic             Coordinates (Angstroms)
 Number     Number       Type             X           Y           Z
 ---------------------------------------------------------------------
      1         12           0       -6.510828    0.545768   -0.641111
      2          6           0       -6.826832   -2.542937    1.139972
      3          6           0       -7.666317    2.109171    2.163115
      4          6           0       -6.672390    3.223508   -2.332330
      5          6           0       -6.479396   -1.323762   -3.582119
      6          7           0       -7.132160   -0.227158    1.338076
      7          6           0       -7.149056   -1.425474    1.913336
      8          6           0       -7.468521   -1.374712    3.437390
      9          6           0       -8.250254    0.014051    3.484604
     10          6           0       -7.621320    0.687961    2.277868
     11          6           0       -9.750307   -0.122698    3.244516
     12          6           0       -6.172725   -1.332868    4.315394
     13          6           0       -6.384610   -1.610147    5.806560
     14          1           0       -5.358845   -2.340560    6.535702
     15          7           0       -6.612882    2.428781   -0.052301
     16          6           0       -7.097108    2.882919    1.128617
     17          6           0       -6.955926    4.354352    1.088212
     18          6           0       -6.526237    4.732648   -0.286689
     19          6           0       -6.613101    3.462789   -0.961442
     20          6           0       -7.171779    5.234714    2.280739
     21          6           0       -6.114370    6.034329   -0.898345
     22          8           0       -6.003455    6.186758   -2.162876
     23          6           0       -5.927504    7.165578    0.028154
     24          7           0       -6.788665    0.926328   -2.674732
     25          6           0       -6.759437    2.174931   -3.153399
     26          6           0       -6.696476    2.183839   -4.652030
     27          6           0       -6.442553    0.670240   -5.092819
     28          6           0       -6.487953    0.006421   -3.694408
     29          6           0       -7.940921    2.722821   -5.370964
     30          6           0       -5.215669    0.398110   -5.998976
     31          6           0       -3.940697    0.657243   -5.228006
     32          7           0       -6.451758   -1.561671   -1.157114
     33          6           0       -6.468395   -2.115017   -2.445603
     34          6           0       -6.524609   -3.579749   -2.286016
     35          6           0       -6.553690   -3.777390   -0.906908
     36          6           0       -6.544407   -2.515224   -0.247255
     37          6           0       -6.600959   -4.530731   -3.341590
     38          6           0       -6.615313   -4.760543    0.162423
     39          8           0       -6.551494   -5.989626    0.215097
     40          6           0       -6.917585   -3.998015    1.527345
     41          6           0       -5.951145   -4.512583    2.559102
     42          8           0       -4.728297   -4.283906    2.460531
     43          8           0       -6.635100   -4.982913    3.613397
     44          6           0       -5.734535   -5.482013    4.686727
     45          1           0       -8.238063    2.680150    2.897302
     46          1           0       -6.618132    4.119621   -2.954002
     47          1           0       -6.387122   -1.974372   -4.453695
     48          1           0       -8.114219   -2.177676    3.793406
     49          1           0       -8.027303    0.575917    4.391424
     50          1           0      -10.015993   -1.138461    2.952013
     51          1           0       -9.981579    0.577501    2.441566
     52          1           0      -10.314321    0.219817    4.112472
     53          1           0       -5.806846   -0.307452    4.367518
     54          1           0       -5.419684   -2.018153    3.924703
     55          1           0       -7.368068   -2.041230    5.995999
     56          1           0       -6.401425   -0.655499    6.332454
     57          1           0       -7.639665    4.690995    3.100493
     58          1           0       -7.910532    5.983061    1.994504
     59          1           0       -6.252986    5.727883    2.598442
     60          1           0       -6.858704    7.349005    0.564596
     61          1           0       -5.547603    7.989062   -0.575501
     62          1           0       -5.189667    6.887099    0.781145
     63          1           0       -5.871947    2.801824   -5.005121
     64          1           0       -7.283250    0.261011   -5.653564
     65          1           0       -7.732614    3.557762   -6.040431
     66          1           0       -8.673121    3.001928   -4.613816
     67          1           0       -8.494818    1.980275   -5.944758
     68          1           0       -5.217367    1.074825   -6.852790
     69          1           0       -5.182493   -0.621244   -6.383773
     70          1           0       -3.811029    1.734379   -5.326980
     71          1           0       -3.106522    0.120344   -5.680889
     72          1           0       -4.065974    0.440252   -4.167013
     73          1           0       -5.910724   -5.332722   -3.080141
     74          1           0       -6.340878   -4.080817   -4.299472
     75          1           0       -7.652318   -4.812165   -3.284179
     76          1           0       -7.951799   -4.220386    1.788254
     77          1           0       -6.018164   -6.514869    4.889206
     78          1           0       -5.804953   -4.767809    5.507311
     79          1           0       -4.685225   -5.605916    4.416661
     80         12           0        6.670656    0.742915    0.549979
     81          6           0        6.709392   -2.052924   -1.699657
     82          6           0        5.605179   -1.410811    2.970894
     83          6           0        6.194121    3.251880    2.432913
     84          6           0        6.622332    2.817524   -2.249908
     85          7           0        6.249375   -1.428204    0.517808
     86          6           0        6.358927   -2.397946   -0.377699
     87          6           0        6.155293   -3.826885    0.193468
     88          6           0        5.270768   -3.448135    1.479173
     89          6           0        5.758726   -2.017628    1.698766
     90          6           0        3.779118   -3.405193    1.192008
     91          6           0        7.509108   -4.503894    0.606827
     92          6           0        7.419046   -6.006571    0.881781
     93          1           0        8.551507   -6.850975    0.511659
     94          7           0        6.475233    0.849932    2.522012
     95          6           0        6.051280   -0.126220    3.351876
     96          6           0        6.065977    0.458661    4.701634
     97          6           0        6.375564    1.909287    4.580925
     98          6           0        6.339002    2.067684    3.140910
     99          6           0        5.880526   -0.360818    5.945616
    100          6           0        6.645585    2.979846    5.594429
    101          8           0        6.655989    4.221343    5.275982
    102          6           0        6.804905    2.538418    6.987717
    103          7           0        6.227996    2.736098    0.158019
    104          6           0        6.124538    3.630590    1.156570
    105          6           0        6.076215    5.041987    0.621766
    106          6           0        6.413621    4.922592   -0.936910
    107          6           0        6.515316    3.386144   -1.056849
    108          6           0        4.747159    5.775679    0.799770
    109          6           0        7.590100    5.785117   -1.470404
    110          6           0        8.896155    5.291698   -0.890629
    111          7           0        6.851617    0.476618   -1.586465
    112          6           0        6.777360    1.477249   -2.580099
    113          6           0        6.841302    0.796189   -3.889476
    114          6           0        6.925823   -0.566049   -3.564424
    115          6           0        6.894948   -0.724298   -2.152504
    116          6           0        6.770179    1.430815   -5.161608
    117          6           0        7.023435   -1.906863   -4.094874
    118          8           0        7.174052   -2.388273   -5.217055
    119          6           0        6.760218   -2.937848   -2.914124
    120          6           0        7.832810   -3.990959   -2.969279
    121          8           0        9.020788   -3.695208   -2.750579
    122          8           0        7.255861   -5.203440   -3.055244
    123          6           0        8.279045   -6.281759   -3.101549
    124          1           0        5.053682   -1.951580    3.740503
    125          1           0        6.137601    4.159379    3.038495
    126          1           0        6.711683    3.400973   -3.168756
    127          1           0        5.603801   -4.499818   -0.452121
    128          1           0        5.525082   -4.072820    2.331499
    129          1           0        3.567988   -3.521152    0.139329
    130          1           0        3.439927   -2.438911    1.541710
    131          1           0        3.256229   -4.147129    1.802294
    132          1           0        7.797919   -4.147415    1.603950
    133          1           0        8.268801   -4.315652   -0.126699
    134          1           0        6.480967   -6.437828    0.511684
    135          1           0        7.376235   -6.159580    1.962874
    136          1           0        5.507174   -1.365825    5.713309
    137          1           0        5.070243    0.104538    6.517237
    138          1           0        6.778210   -0.392639    6.566763
    139          1           0        5.905767    2.016309    7.306174
    140          1           0        7.079799    3.433952    7.548369
    141          1           0        7.623598    1.811579    7.032988
    142          1           0        6.826560    5.661619    1.097290
    143          1           0        5.563254    5.231045   -1.562673
    144          1           0        4.845239    6.728204    1.353993
    145          1           0        4.055876    5.112554    1.302703
    146          1           0        4.218090    6.003511   -0.124011
    147          1           0        7.477802    6.822025   -1.144237
    148          1           0        7.662962    5.794083   -2.552804
    149          1           0        8.932552    5.781033    0.087282
    150          1           0        9.732563    5.596995   -1.516125
    151          1           0        8.865845    4.209776   -0.716922
    152          1           0        7.527252    0.970087   -5.782148
    153          1           0        6.922255    2.504975   -5.079103
    154          1           0        5.744387    1.182155   -5.446536
    155          1           0        5.765099   -3.358880   -3.062590
    156          1           0        8.084478   -6.868237   -4.004810
    157          1           0        8.201441   -6.809045   -2.132169
    158          1           0        9.310280   -5.987770   -3.258331
 ---------------------------------------------------------------------

 SCF Done:  E(RCAM-B3LYP) =  -4069.81200322     A.U. after   19 cycles

 Excitation energies and oscillator strengths:

 Excited State   1:      Singlet-A      1.6723 eV  741.40 nm  f=0.2437  <S**2>=0.000
     310 -> 316        0.14913
     311 -> 313       -0.34422
     312 -> 314        0.59364
 This state for optimization and/or second-order correction.
 Total Energy, E(TD-HF/TD-DFT) =  -4069.75054753
 Copying the excited state density for this state as the 1-particle RhoCI density.

 Excited State   2:      Singlet-A      1.6815 eV  737.33 nm  f=0.4903  <S**2>=0.000
     309 -> 315        0.15242
     311 -> 313        0.59302
     312 -> 314        0.34388

 Excited State   3:      Singlet-A      2.1849 eV  567.46 nm  f=0.0899  <S**2>=0.000
     310 -> 314        0.63516
     312 -> 316       -0.26847

 Excited State   4:      Singlet-A      2.1931 eV  565.33 nm  f=0.1072  <S**2>=0.000
     309 -> 313        0.63307
     311 -> 315       -0.27521

 Excited State   5:      Singlet-A      2.6459 eV  468.59 nm  f=0.0000  <S**2>=0.000
     312 -> 313        0.70710

 The electronic state is 1-A.
 Alpha  occ. eigenvalues --  -46.87860 -46.87545 -19.26423 -19.26217 -19.19158
 Alpha  occ. eigenvalues --  -19.19037 -19.18867 -19.18641 -19.18252 -19.17940
 Alpha  occ. eigenvalues --  -14.42516 -14.42369 -14.41508 -14.41248 -14.39465
 Alpha  occ. eigenvalues --  -14.39240 -14.38653 -14.38486 -10.39212 -10.38965
 Alpha  occ. eigenvalues --  -10.35500 -10.35321 -10.34474 -10.34115 -10.31839
 Alpha  occ. eigenvalues --  -10.31625 -10.31476 -10.31169 -10.30981 -10.30893
 Alpha  occ. eigenvalues --  -10.30636 -10.30569 -10.30293 -10.30257 -10.30244
 Alpha  occ. eigenvalues --  -10.30038 -10.29978 -10.29791 -10.29692 -10.29329
 Alpha  occ. eigenvalues --  -10.29312 -10.29298 -10.28839 -10.28666 -10.28545
 Alpha  occ. eigenvalues --  -10.28492 -10.28433 -10.28289 -10.28195 -10.27941
 Alpha  occ. eigenvalues --  -10.27892 -10.27856 -10.27791 -10.27645 -10.27537
 Alpha  occ. eigenvalues --  -10.27534 -10.27532 -10.27487 -10.27474 -10.27433
 Alpha  occ. eigenvalues --  -10.27374 -10.27365 -10.27363 -10.27296 -10.27252
 Alpha  occ. eigenvalues --  -10.26922 -10.26819 -10.26538 -10.26453 -10.26363
 Alpha  occ. eigenvalues --  -10.26304 -10.26199 -10.26073 -10.26066 -10.25896
 Alpha  occ. eigenvalues --  -10.25827 -10.25759 -10.25738 -10.25467 -10.25333
 Alpha  occ. eigenvalues --  -10.24900 -10.24847 -10.24763 -10.24701 -10.24664
 Alpha  occ. eigenvalues --  -10.24585  -3.16603  -3.16295  -1.91485  -1.91177
 Alpha  occ. eigenvalues --   -1.91071  -1.90914  -1.90765  -1.90603  -1.16771
 Alpha  occ. eigenvalues --   -1.16513  -1.08714  -1.08546  -1.07268  -1.06896
 Alpha  occ. eigenvalues --   -1.06821  -1.06779  -1.04649  -1.04367  -1.03821
 Alpha  occ. eigenvalues --   -1.03548  -1.03296  -1.02930  -1.02473  -1.01999
 Alpha  occ. eigenvalues --   -0.92047  -0.91866  -0.89568  -0.89395  -0.89270
 Alpha  occ. eigenvalues --   -0.88975  -0.88333  -0.88128  -0.87932  -0.87740
 Alpha  occ. eigenvalues --   -0.87687  -0.87559  -0.87330  -0.87028  -0.85062
 Alpha  occ. eigenvalues --   -0.84851  -0.83982  -0.83788  -0.83016  -0.82853
 Alpha  occ. eigenvalues --   -0.82726  -0.82519  -0.81682  -0.81475  -0.80674
 Alpha  occ. eigenvalues --   -0.80326  -0.78856  -0.78533  -0.77282  -0.77020
 Alpha  occ. eigenvalues --   -0.77017  -0.76764  -0.76006  -0.75688  -0.74952
 Alpha  occ. eigenvalues --   -0.74704  -0.72835  -0.72586  -0.71738  -0.71452
 Alpha  occ. eigenvalues --   -0.69943  -0.69670  -0.68949  -0.68688  -0.67709
 Alpha  occ. eigenvalues --   -0.67492  -0.67304  -0.67073  -0.65369  -0.65127
 Alpha  occ. eigenvalues --   -0.64929  -0.64695  -0.64653  -0.64527  -0.64321
 Alpha  occ. eigenvalues --   -0.64105  -0.62398  -0.62159  -0.60496  -0.60246
 Alpha  occ. eigenvalues --   -0.59880  -0.59644  -0.59053  -0.58878  -0.58572
 Alpha  occ. eigenvalues --   -0.58312  -0.57678  -0.57433  -0.57371  -0.57137
 Alpha  occ. eigenvalues --   -0.56377  -0.56092  -0.56089  -0.55761  -0.55585
 Alpha  occ. eigenvalues --   -0.55405  -0.55344  -0.55147  -0.54602  -0.54383
 Alpha  occ. eigenvalues --   -0.53979  -0.53745  -0.53360  -0.53298  -0.53124
 Alpha  occ. eigenvalues --   -0.53020  -0.53000  -0.52820  -0.52779  -0.52557
 Alpha  occ. eigenvalues --   -0.52473  -0.52319  -0.51977  -0.51784  -0.51698
 Alpha  occ. eigenvalues --   -0.51523  -0.51267  -0.51086  -0.50621  -0.50389
 Alpha  occ. eigenvalues --   -0.50076  -0.49978  -0.49857  -0.49770  -0.49587
 Alpha  occ. eigenvalues --   -0.49367  -0.49288  -0.49175  -0.49078  -0.48949
 Alpha  occ. eigenvalues --   -0.48676  -0.48520  -0.48508  -0.48424  -0.48285
 Alpha  occ. eigenvalues --   -0.48243  -0.47763  -0.47474  -0.47360  -0.47014
 Alpha  occ. eigenvalues --   -0.46859  -0.46640  -0.46592  -0.46423  -0.46402
 Alpha  occ. eigenvalues --   -0.46229  -0.46165  -0.45981  -0.45905  -0.45701
 Alpha  occ. eigenvalues --   -0.45250  -0.45114  -0.44657  -0.44569  -0.44399
 Alpha  occ. eigenvalues --   -0.44338  -0.44205  -0.44161  -0.44092  -0.43985
 Alpha  occ. eigenvalues --   -0.43980  -0.43831  -0.43585  -0.43453  -0.43432
 Alpha  occ. eigenvalues --   -0.43256  -0.43095  -0.42811  -0.42810  -0.42782
 Alpha  occ. eigenvalues --   -0.42706  -0.42461  -0.42069  -0.41854  -0.41774
 Alpha  occ. eigenvalues --   -0.41613  -0.41550  -0.41323  -0.41208  -0.40940
 Alpha  occ. eigenvalues --   -0.40884  -0.40852  -0.40622  -0.40622  -0.40567
 Alpha  occ. eigenvalues --   -0.40381  -0.40330  -0.40081  -0.39473  -0.39341
 Alpha  occ. eigenvalues --   -0.38520  -0.38248  -0.37842  -0.37513  -0.37373
 Alpha  occ. eigenvalues --   -0.37345  -0.37157  -0.37062  -0.36822  -0.36652
 Alpha  occ. eigenvalues --   -0.36272  -0.36104  -0.34351  -0.34137  -0.33896
 Alpha  occ. eigenvalues --   -0.33740  -0.33254  -0.33062  -0.31397  -0.31199
 Alpha  occ. eigenvalues --   -0.31101  -0.30856  -0.30113  -0.29843  -0.29510
 Alpha  occ. eigenvalues --   -0.29387  -0.29226  -0.29103  -0.24145  -0.23919
 Alpha  occ. eigenvalues --   -0.21189  -0.21002
 Alpha virt. eigenvalues --   -0.08837  -0.08682  -0.01810  -0.01574  -0.00121
 Alpha virt. eigenvalues --    0.00076   0.02131   0.02314   0.03051   0.03330
 Alpha virt. eigenvalues --    0.04641   0.04869   0.04973   0.05291   0.06071

 Mulliken charges:
               1
     1  Mg   0.838630
     2  C   -0.003281
     3  C   -0.094189
     4  C   -0.045788
     5  C   -0.063725
     6  N   -0.256805
     7  C   -0.052597
     8  C   -0.014015
     9  C   -0.087009
    10  C    0.046275
    11  C    0.104774
    12  C    0.053502
    13  C   -0.071516
    14  H    0.035009
    15  N   -0.433182
    16  C    0.168450
    17  C   -0.177058
    18  C   -0.003884
    19  C    0.148730
    20  C    0.110114
    21  C    0.012305
    22  O   -0.249500
    23  C    0.062445
    24  N   -0.341132
    25  C    0.041316
    26  C   -0.028221
    27  C   -0.024016
    28  C    0.074779
    29  C    0.076119
    30  C    0.035047
    31  C   -0.004598
    32  N   -0.310416
    33  C    0.080281
    34  C   -0.169683
    35  C    0.008218
    36  C    0.082840
    37  C    0.127337
    38  C    0.045886
    39  O   -0.188771
    40  C   -0.005267
    41  C    0.212916
    42  O   -0.257920
    43  O   -0.304500
    44  C    0.157979
    45  H   -0.017510
    46  H   -0.016655
    47  H   -0.041177
    48  H    0.000895
    49  H   -0.004067
    50  H    0.025494
    51  H    0.016634
    52  H    0.016748
    53  H    0.011258
    54  H    0.043512
    55  H    0.018134
    56  H    0.018161
    57  H    0.005875
    58  H    0.026994
    59  H    0.039771
    60  H    0.037452
    61  H    0.035748
    62  H    0.031604
    63  H    0.016671
    64  H    0.009617
    65  H    0.023379
    66  H    0.012507
    67  H    0.004927
    68  H    0.006649
    69  H    0.005038
    70  H    0.008699
    71  H    0.018821
    72  H    0.028587
    73  H    0.047389
    74  H    0.009481
    75  H    0.046096
    76  H    0.035275
    77  H    0.043006
    78  H    0.046416
    79  H    0.052693
    80  Mg   0.837943
    81  C   -0.016784
    82  C   -0.087487
    83  C   -0.045811
    84  C   -0.064983
    85  N   -0.254662
    86  C   -0.049344
    87  C   -0.015217
    88  C   -0.090542
    89  C    0.045796
    90  C    0.114228
    91  C    0.062478
    92  C   -0.077868
    93  H    0.034322
    94  N   -0.423504
    95  C    0.162886
    96  C   -0.174558
    97  C   -0.008194
    98  C    0.152258
    99  C    0.099403
   100  C    0.015301
   101  O   -0.253678
   102  C    0.061296
   103  N   -0.350050
   104  C    0.037608
   105  C   -0.019767
   106  C   -0.034844
   107  C    0.088955
   108  C    0.073720
   109  C    0.034811
   110  C   -0.007605
   111  N   -0.324111
   112  C    0.078531
   113  C   -0.163278
   114  C    0.002305
   115  C    0.096185
   116  C    0.131502
   117  C    0.042290
   118  O   -0.188062
   119  C    0.000997
   120  C    0.211186
   121  O   -0.251280
   122  O   -0.305326
   123  C    0.152130
   124  H   -0.018974
   125  H   -0.016100
   126  H   -0.040693
   127  H    0.000072
   128  H   -0.004439
   129  H    0.023218
   130  H    0.014770
   131  H    0.018343
   132  H    0.013590
   133  H    0.037310
   134  H    0.021619
   135  H    0.019565
   136  H    0.009149
   137  H    0.025766
   138  H    0.039457
   139  H    0.038013
   140  H    0.035899
   141  H    0.033930
   142  H    0.014085
   143  H    0.012498
   144  H    0.024537
   145  H    0.011533
   146  H    0.005822
   147  H    0.005967
   148  H    0.003593
   149  H    0.010732
   150  H    0.017720
   151  H    0.030268
   152  H    0.045787
   153  H    0.008318
   154  H    0.046904
   155  H    0.035713
   156  H    0.043850
   157  H    0.049743
   158  H    0.053259
 Sum of Mulliken charges =  -0.00000

 Dipole moment (field-independent basis, Debye):
    X=             -4.6872    Y=              1.8623    Z=              5.8515  Tot=              7.7251
 Quadrupole moment (field-independent basis, Debye-Ang):
   XX=           -518.3376   YY=           -518.1795   ZZ=           -481.3780
   XY=            -24.8402   XZ=              5.7100   YZ=            -18.2676

 Normal termination of Gaussian 16 at Sat Sep 11 17:02:19 2021.
