 Gaussian 16, Revision A.03,
 Gaussian 16:  ES64L-G16RevA.03 25-Dec-2016

 -----------------------------------
 #p cam-b3lyp/Def2SVP td=(nstates=5)
 -----------------------------------

 --------------------------------
 TDDFT excited states in gaussian
 --------------------------------
 Symbolic Z-matrix:
 Charge =  0 Multiplicity = 1

                         Standard orientation:
 ---------------------------------------------------------------------
 Center     Atomic      Atomic             Coordinates (Angstroms)
 Number     Number       Type             X           Y           Z
 ---------------------------------------------------------------------
      1         12           0       15.708643   -0.732698    0.204833
      2          6           0       15.960581    2.111655   -1.953499
      3          6           0       16.555325    1.335523    2.783332
      4          6           0       15.937046   -3.303007    2.048190
      5          6           0       16.002969   -2.729558   -2.636220
      6          7           0       16.172745    1.430558    0.279526
      7          6           0       16.175741    2.419893   -0.608381
      8          6           0       16.354271    3.827353    0.035479
      9          6           0       17.083850    3.395732    1.385818
     10          6           0       16.545471    1.981413    1.511420
     11          6           0       18.603064    3.334032    1.264645
     12          6           0       14.983701    4.527619    0.323398
     13          6           0       15.068580    6.022517    0.645000
     14          1           0       14.004883    6.900206    0.180717
     15          7           0       15.696931   -0.902917    2.173015
     16          6           0       16.057636    0.045976    3.070110
     17          6           0       15.873842   -0.563928    4.404620
     18          6           0       15.558427   -2.005906    4.206357
     19          6           0       15.746409   -2.135795    2.783976
     20          6           0       15.952771    0.213517    5.682548
     21          6           0       15.162277   -3.096517    5.150690
     22          8           0       15.161385   -4.327676    4.805987
     23          6           0       14.856403   -2.688854    6.533909
     24          7           0       16.156999   -2.731827   -0.195282
     25          6           0       16.131388   -3.652283    0.774815
     26          6           0       16.203978   -5.040807    0.212080
     27          6           0       16.039355   -4.886319   -1.368674
     28          6           0       15.979230   -3.340978   -1.449767
     29          6           0       17.490526   -5.820272    0.517430
     30          6           0       14.908761   -5.704748   -2.041245
     31          6           0       13.561672   -5.184680   -1.591825
     32          7           0       15.763711   -0.406526   -1.940306
     33          6           0       15.914454   -1.380795   -2.937679
     34          6           0       16.002678   -0.669728   -4.226348
     35          6           0       15.913190    0.678424   -3.885285
     36          6           0       15.804043    0.802889   -2.470758
     37          6           0       16.204470   -1.273122   -5.498995
     38          6           0       15.909161    2.043853   -4.384728
     39          8           0       15.880060    2.557749   -5.503905
     40          6           0       16.062274    3.031346   -3.144872
     41          6           0       15.023377    4.109533   -3.291554
     42          8           0       13.807790    3.843904   -3.195876
     43          8           0       15.623818    5.309510   -3.283307
     44          6           0       14.646240    6.424789   -3.395765
     45          1           0       17.039826    1.834444    3.624925
     46          1           0       15.910693   -4.222223    2.637074
     47          1           0       16.010695   -3.290338   -3.572659
     48          1           0       16.990394    4.508485   -0.530057
     49          1           0       16.761993    4.000385    2.233476
     50          1           0       18.926368    3.471919    0.232956
     51          1           0       18.883568    2.343124    1.622292
     52          1           0       19.075054    4.042988    1.945368
     53          1           0       14.582098    4.157431    1.266657
     54          1           0       14.291317    4.375893   -0.505403
     55          1           0       16.044116    6.432140    0.381470
     56          1           0       15.007313    6.143198    1.726611
     57          1           0       16.361693    1.210041    5.520477
     58          1           0       16.690147   -0.283509    6.312588
     59          1           0       14.993753    0.251983    6.199401
     60          1           0       15.728943   -2.198241    6.965791
     61          1           0       14.506596   -3.586974    7.041713
     62          1           0       14.062742   -1.941412    6.514411
     63          1           0       15.395481   -5.661298    0.596464
     64          1           0       16.939942   -5.186363   -1.904948
     65          1           0       17.317109   -6.771140    1.021892
     66          1           0       18.141972   -5.177137    1.108436
     67          1           0       18.117444   -6.025392   -0.349932
     68          1           0       14.966098   -6.749942   -1.739208
     69          1           0       14.943042   -5.671872   -3.130279
     70          1           0       13.407209   -5.696961   -0.642856
     71          1           0       12.789422   -5.456233   -2.312311
     72          1           0       13.597327   -4.115319   -1.382823
     73          1           0       15.519341   -0.774953   -6.184847
     74          1           0       16.017880   -2.346181   -5.462514
     75          1           0       17.254764   -1.037496   -5.669931
     76          1           0       17.075213    3.430640   -3.185380
     77          1           0       14.943180    7.026497   -4.254839
     78          1           0       14.619342    6.912717   -2.421287
     79          1           0       13.630143    6.148377   -3.679460
     80         12           0      -16.034465   -0.548619   -0.295947
     81          6           0      -14.559849    1.791844    1.990262
     82          6           0      -18.203378    1.925297   -1.196027
     83          6           0      -17.637548   -2.704599   -1.983934
     84          6           0      -14.545940   -3.091828    1.564707
     85          7           0      -16.252994    1.545924    0.380353
     86          6           0      -15.596473    2.343750    1.209086
     87          6           0      -16.024910    3.834200    1.141596
     88          6           0      -17.509148    3.631777    0.562865
     89          6           0      -17.309665    2.302327   -0.161991
     90          6           0      -18.555689    3.432592    1.646579
     91          6           0      -15.133070    4.668473    0.156399
     92          6           0      -15.293476    6.185934    0.271965
     93          1           0      -14.117750    7.027663    0.067938
     94          7           0      -17.344996   -0.312150   -1.767390
     95          6           0      -18.124672    0.765119   -1.997352
     96          6           0      -18.925824    0.435487   -3.186330
     97          6           0      -18.674300   -0.987599   -3.541658
     98          6           0      -17.874335   -1.405009   -2.407676
     99          6           0      -19.760164    1.450491   -3.912331
    100          6           0      -19.096042   -1.836281   -4.702724
    101          8           0      -18.962415   -3.110950   -4.688711
    102          6           0      -19.755460   -1.140947   -5.817695
    103          7           0      -16.262365   -2.605993   -0.102052
    104          6           0      -16.970223   -3.310999   -1.001965
    105          6           0      -16.766695   -4.795475   -0.814111
    106          6           0      -15.580600   -4.935320    0.249465
    107          6           0      -15.354034   -3.442334    0.573596
    108          6           0      -17.985034   -5.577084   -0.323055
    109          6           0      -14.356611   -5.794582   -0.170268
    110          6           0      -13.609176   -5.113819   -1.294231
    111          7           0      -14.632378   -0.659456    1.344148
    112          6           0      -14.163286   -1.825420    1.987998
    113          6           0      -13.317088   -1.388602    3.117409
    114          6           0      -13.371637    0.012416    3.065794
    115          6           0      -14.210035    0.419850    1.993144
    116          6           0      -12.665833   -2.245428    4.048987
    117          6           0      -12.919141    1.239229    3.681332
    118          8           0      -12.121061    1.520014    4.574625
    119          6           0      -13.769656    2.444852    3.090169
    120          6           0      -12.815609    3.543854    2.710032
    121          8           0      -11.992248    3.376976    1.793054
    122          8           0      -13.175595    4.677206    3.339557
    123          6           0      -12.265606    5.799052    2.985738
    124          1           0      -19.072637    2.555552   -1.385887
    125          1           0      -18.079418   -3.489848   -2.601677
    126          1           0      -13.967291   -3.823471    2.132635
    127          1           0      -16.064907    4.339177    2.099286
    128          1           0      -17.768022    4.416164   -0.143602
    129          1           0      -18.109459    3.341805    2.625754
    130          1           0      -19.081181    2.523619    1.384532
    131          1           0      -19.299351    4.233527    1.604245
    132          1           0      -15.495521    4.518765   -0.868761
    133          1           0      -14.098671    4.405288    0.263098
    134          1           0      -15.819295    6.476133    1.189704
    135          1           0      -15.949464    6.527787   -0.532294
    136          1           0      -19.879737    2.368295   -3.323478
    137          1           0      -20.773087    1.039695   -3.983739
    138          1           0      -19.390757    1.656993   -4.919083
    139          1           0      -20.645638   -0.634831   -5.451780
    140          1           0      -19.901466   -1.899138   -6.589516
    141          1           0      -19.081761   -0.361883   -6.191598
    142          1           0      -16.463745   -5.264762   -1.742066
    143          1           0      -15.922263   -5.410718    1.180648
    144          1           0      -18.273648   -6.404841   -0.998041
    145          1           0      -18.806833   -4.884701   -0.197456
    146          1           0      -17.888577   -6.004399    0.673593
    147          1           0      -14.687554   -6.761055   -0.558270
    148          1           0      -13.668494   -5.993228    0.644611
    149          1           0      -14.171876   -5.415169   -2.182855
    150          1           0      -12.580947   -5.466969   -1.339597
    151          1           0      -13.682530   -4.023189   -1.211780
    152          1           0      -11.667901   -1.851738    4.189146
    153          1           0      -12.642198   -3.273696    3.694192
    154          1           0      -13.321237   -2.125229    4.915739
    155          1           0      -14.471162    2.760918    3.863199
    156          1           0      -11.870074    6.197980    3.924935
    157          1           0      -12.866802    6.485528    2.360387
    158          1           0      -11.351139    5.555189    2.457775
 ---------------------------------------------------------------------

 SCF Done:  E(RCAM-B3LYP) =  -4069.81176922     A.U. after   19 cycles

 Excitation energies and oscillator strengths:

 Excited State   1:      Singlet-A      1.6754 eV  740.01 nm  f=0.2918  <S**2>=0.000
     309 -> 315        0.17081
     311 -> 313        0.67512
     312 -> 314        0.12200
     309 <- 315        0.10297
 This state for optimization and/or second-order correction.
 Total Energy, E(TD-HF/TD-DFT) =  -4069.75019770
 Copying the excited state density for this state as the 1-particle RhoCI density.

 Excited State   2:      Singlet-A      1.6800 eV  737.99 nm  f=0.4877  <S**2>=0.000
     310 -> 316        0.17280
     311 -> 313       -0.12196
     312 -> 314        0.67476
     310 <- 316        0.10347

 Excited State   3:      Singlet-A      2.1861 eV  567.14 nm  f=0.0951  <S**2>=0.000
     309 -> 313        0.64208
     311 -> 315       -0.27296

 Excited State   4:      Singlet-A      2.1926 eV  565.48 nm  f=0.1050  <S**2>=0.000
     310 -> 314        0.64031
     312 -> 316       -0.27815

 Excited State   5:      Singlet-A      3.0499 eV  406.53 nm  f=0.0000  <S**2>=0.000
     312 -> 313        0.70710

 The electronic state is 1-A.
 Alpha  occ. eigenvalues --  -46.87729 -46.87661 -19.26350 -19.26218 -19.19161
 Alpha  occ. eigenvalues --  -19.18952 -19.18746 -19.18714 -19.18105 -19.18053
 Alpha  occ. eigenvalues --  -14.42499 -14.42383 -14.41383 -14.41360 -14.39353
 Alpha  occ. eigenvalues --  -14.39336 -14.38601 -14.38520 -10.39091 -10.39012
 Alpha  occ. eigenvalues --  -10.35391 -10.35380 -10.34324 -10.34231 -10.31757
 Alpha  occ. eigenvalues --  -10.31613 -10.31339 -10.31311 -10.31024 -10.30842
 Alpha  occ. eigenvalues --  -10.30504 -10.30441 -10.30399 -10.30362 -10.30142
 Alpha  occ. eigenvalues --  -10.30141 -10.29896 -10.29855 -10.29564 -10.29438
 Alpha  occ. eigenvalues --  -10.29402 -10.29188 -10.28720 -10.28682 -10.28653
 Alpha  occ. eigenvalues --  -10.28469 -10.28406 -10.28298 -10.28143 -10.28051
 Alpha  occ. eigenvalues --  -10.28002 -10.27727 -10.27671 -10.27661 -10.27519
 Alpha  occ. eigenvalues --  -10.27517 -10.27485 -10.27468 -10.27465 -10.27436
 Alpha  occ. eigenvalues --  -10.27413 -10.27385 -10.27377 -10.27337 -10.27093
 Alpha  occ. eigenvalues --  -10.27053 -10.26692 -10.26635 -10.26413 -10.26339
 Alpha  occ. eigenvalues --  -10.26173 -10.26136 -10.26118 -10.26030 -10.25953
 Alpha  occ. eigenvalues --  -10.25936 -10.25854 -10.25781 -10.25401 -10.25375
 Alpha  occ. eigenvalues --  -10.24874 -10.24767 -10.24727 -10.24722 -10.24691
 Alpha  occ. eigenvalues --  -10.24617  -3.16472  -3.16411  -1.91354  -1.91293
 Alpha  occ. eigenvalues --   -1.90940  -1.90882  -1.90783  -1.90719  -1.16644
 Alpha  occ. eigenvalues --   -1.16566  -1.08660  -1.08562  -1.07147  -1.06966
 Alpha  occ. eigenvalues --   -1.06945  -1.06575  -1.04514  -1.04497  -1.03694
 Alpha  occ. eigenvalues --   -1.03664  -1.03167  -1.03040  -1.02345  -1.02113
 Alpha  occ. eigenvalues --   -0.91989  -0.91906  -0.89495  -0.89454  -0.89153
 Alpha  occ. eigenvalues --   -0.89122  -0.88221  -0.88221  -0.87805  -0.87796
 Alpha  occ. eigenvalues --   -0.87685  -0.87606  -0.87206  -0.87120  -0.85001
 Alpha  occ. eigenvalues --   -0.84915  -0.83877  -0.83871  -0.82931  -0.82899
 Alpha  occ. eigenvalues --   -0.82653  -0.82582  -0.81597  -0.81520  -0.80530
 Alpha  occ. eigenvalues --   -0.80444  -0.78730  -0.78636  -0.77152  -0.77146
 Alpha  occ. eigenvalues --   -0.76899  -0.76868  -0.75858  -0.75840  -0.74833
 Alpha  occ. eigenvalues --   -0.74804  -0.72708  -0.72701  -0.71607  -0.71583
 Alpha  occ. eigenvalues --   -0.69841  -0.69757  -0.68828  -0.68806  -0.67603
 Alpha  occ. eigenvalues --   -0.67575  -0.67200  -0.67151  -0.65273  -0.65220
 Alpha  occ. eigenvalues --   -0.64787  -0.64771  -0.64655  -0.64554  -0.64204
 Alpha  occ. eigenvalues --   -0.64203  -0.62279  -0.62231  -0.60375  -0.60340
 Alpha  occ. eigenvalues --   -0.59798  -0.59738  -0.58994  -0.58921  -0.58438
 Alpha  occ. eigenvalues --   -0.58427  -0.57556  -0.57518  -0.57243  -0.57237
 Alpha  occ. eigenvalues --   -0.56244  -0.56206  -0.55912  -0.55887  -0.55453
 Alpha  occ. eigenvalues --   -0.55453  -0.55274  -0.55249  -0.54488  -0.54458
 Alpha  occ. eigenvalues --   -0.53914  -0.53828  -0.53232  -0.53228  -0.53155
 Alpha  occ. eigenvalues --   -0.53142  -0.52903  -0.52848  -0.52688  -0.52668
 Alpha  occ. eigenvalues --   -0.52400  -0.52371  -0.51887  -0.51851  -0.51659
 Alpha  occ. eigenvalues --   -0.51549  -0.51202  -0.51130  -0.50503  -0.50475
 Alpha  occ. eigenvalues --   -0.49981  -0.49966  -0.49868  -0.49851  -0.49488
 Alpha  occ. eigenvalues --   -0.49448  -0.49204  -0.49148  -0.49106  -0.49031
 Alpha  occ. eigenvalues --   -0.48560  -0.48528  -0.48396  -0.48378  -0.48377
 Alpha  occ. eigenvalues --   -0.48339  -0.47628  -0.47595  -0.47231  -0.47119
 Alpha  occ. eigenvalues --   -0.46731  -0.46710  -0.46555  -0.46488  -0.46293
 Alpha  occ. eigenvalues --   -0.46271  -0.46097  -0.46087  -0.45824  -0.45757
 Alpha  occ. eigenvalues --   -0.45210  -0.45136  -0.44516  -0.44512  -0.44477
 Alpha  occ. eigenvalues --   -0.44439  -0.44129  -0.44078  -0.44078  -0.44022
 Alpha  occ. eigenvalues --   -0.43953  -0.43940  -0.43554  -0.43429  -0.43387
 Alpha  occ. eigenvalues --   -0.43319  -0.42961  -0.42931  -0.42903  -0.42633
 Alpha  occ. eigenvalues --   -0.42588  -0.42554  -0.41964  -0.41943  -0.41671
 Alpha  occ. eigenvalues --   -0.41638  -0.41467  -0.41459  -0.41076  -0.40991
 Alpha  occ. eigenvalues --   -0.40802  -0.40755  -0.40722  -0.40699  -0.40506
 Alpha  occ. eigenvalues --   -0.40494  -0.40227  -0.40165  -0.39425  -0.39374
 Alpha  occ. eigenvalues --   -0.38403  -0.38351  -0.37680  -0.37654  -0.37267
 Alpha  occ. eigenvalues --   -0.37254  -0.37201  -0.37196  -0.36772  -0.36647
 Alpha  occ. eigenvalues --   -0.36218  -0.36126  -0.34255  -0.34220  -0.33862
 Alpha  occ. eigenvalues --   -0.33703  -0.33177  -0.33120  -0.31276  -0.31273
 Alpha  occ. eigenvalues --   -0.30974  -0.30969  -0.29964  -0.29958  -0.29382
 Alpha  occ. eigenvalues --   -0.29328  -0.29256  -0.29213  -0.24038  -0.24014
 Alpha  occ. eigenvalues --   -0.21118  -0.21061
 Alpha virt. eigenvalues --   -0.08793  -0.08708  -0.01685  -0.01683  -0.00029
 Alpha virt. eigenvalues --    0.00009   0.02205   0.02266   0.03193   0.03229
 Alpha virt. eigenvalues --    0.04728   0.04784   0.05164   0.05165   0.06182

 Mulliken charges:
               1
     1  Mg   0.838764
     2  C   -0.002947
     3  C   -0.094102
     4  C   -0.045850
     5  C   -0.063953
     6  N   -0.256784
     7  C   -0.052435
     8  C   -0.014055
     9  C   -0.086983
    10  C    0.046343
    11  C    0.104829
    12  C    0.053452
    13  C   -0.071827
    14  H    0.036216
    15  N   -0.433119
    16  C    0.168455
    17  C   -0.177147
    18  C   -0.003973
    19  C    0.148732
    20  C    0.110193
    21  C    0.012329
    22  O   -0.249629
    23  C    0.062447
    24  N   -0.341136
    25  C    0.041248
    26  C   -0.028180
    27  C   -0.023968
    28  C    0.074842
    29  C    0.076207
    30  C    0.035134
    31  C   -0.004509
    32  N   -0.310450
    33  C    0.080403
    34  C   -0.169724
    35  C    0.008345
    36  C    0.083011
    37  C    0.127310
    38  C    0.046112
    39  O   -0.188508
    40  C   -0.005326
    41  C    0.212866
    42  O   -0.257009
    43  O   -0.304843
    44  C    0.157688
    45  H   -0.017632
    46  H   -0.016852
    47  H   -0.041539
    48  H    0.000880
    49  H   -0.004005
    50  H    0.025427
    51  H    0.016415
    52  H    0.016612
    53  H    0.011289
    54  H    0.044181
    55  H    0.017782
    56  H    0.017976
    57  H    0.005863
    58  H    0.026772
    59  H    0.039667
    60  H    0.037291
    61  H    0.035681
    62  H    0.031626
    63  H    0.016592
    64  H    0.009383
    65  H    0.023184
    66  H    0.012508
    67  H    0.004682
    68  H    0.006318
    69  H    0.004689
    70  H    0.008814
    71  H    0.018191
    72  H    0.029043
    73  H    0.047568
    74  H    0.009094
    75  H    0.045921
    76  H    0.035076
    77  H    0.042869
    78  H    0.046412
    79  H    0.053756
    80  Mg   0.837875
    81  C   -0.016772
    82  C   -0.087782
    83  C   -0.045517
    84  C   -0.064904
    85  N   -0.254556
    86  C   -0.049859
    87  C   -0.015101
    88  C   -0.090491
    89  C    0.045747
    90  C    0.114387
    91  C    0.062524
    92  C   -0.077929
    93  H    0.034969
    94  N   -0.423488
    95  C    0.162943
    96  C   -0.174606
    97  C   -0.007790
    98  C    0.152128
    99  C    0.099365
   100  C    0.015603
   101  O   -0.253160
   102  C    0.061175
   103  N   -0.350078
   104  C    0.037551
   105  C   -0.019836
   106  C   -0.034798
   107  C    0.088925
   108  C    0.073655
   109  C    0.034727
   110  C   -0.007698
   111  N   -0.324103
   112  C    0.078459
   113  C   -0.163123
   114  C    0.002229
   115  C    0.096216
   116  C    0.131482
   117  C    0.042399
   118  O   -0.187905
   119  C    0.000885
   120  C    0.211275
   121  O   -0.250955
   122  O   -0.305668
   123  C    0.152021
   124  H   -0.019665
   125  H   -0.015556
   126  H   -0.040450
   127  H   -0.000680
   128  H   -0.004299
   129  H    0.022427
   130  H    0.014408
   131  H    0.016273
   132  H    0.013958
   133  H    0.037713
   134  H    0.020744
   135  H    0.019612
   136  H    0.008764
   137  H    0.026141
   138  H    0.039855
   139  H    0.038240
   140  H    0.036437
   141  H    0.033949
   142  H    0.014445
   143  H    0.012385
   144  H    0.025162
   145  H    0.011610
   146  H    0.005648
   147  H    0.006272
   148  H    0.003655
   149  H    0.010958
   150  H    0.018015
   151  H    0.030114
   152  H    0.046042
   153  H    0.008536
   154  H    0.046881
   155  H    0.034977
   156  H    0.043865
   157  H    0.049500
   158  H    0.053645
 Sum of Mulliken charges =  -0.00000

 Dipole moment (field-independent basis, Debye):
    X=             -1.9219    Y=              2.8700    Z=              2.7376  Tot=              4.4074
 Quadrupole moment (field-independent basis, Debye-Ang):
   XX=           -340.0096   YY=           -462.7378   ZZ=           -531.3426
   XY=            -29.1097   XZ=             74.0675   YZ=             16.3489

 Normal termination of Gaussian 16 at Sun Sep 12 14:30:00 2021.
