 Gaussian 16, Revision A.03,
 Gaussian 16:  ES64L-G16RevA.03 25-Dec-2016

 -----------------------------------
 #p cam-b3lyp/Def2SVP td=(nstates=5)
 -----------------------------------

 --------------------------------
 TDDFT excited states in gaussian
 --------------------------------
 Symbolic Z-matrix:
 Charge =  0 Multiplicity = 1

                         Standard orientation:
 ---------------------------------------------------------------------
 Center     Atomic      Atomic             Coordinates (Angstroms)
 Number     Number       Type             X           Y           Z
 ---------------------------------------------------------------------
      1         12           0      -15.802175   -0.681530   -0.326195
      2          6           0      -16.063229    1.995374    2.035637
      3          6           0      -16.629055    1.574064   -2.749340
      4          6           0      -16.023012   -3.107509   -2.356584
      5          6           0      -16.117835   -2.883050    2.356962
      6          7           0      -16.262275    1.482273   -0.243050
      7          6           0      -16.269317    2.403009    0.715786
      8          6           0      -16.441454    3.854730    0.177040
      9          6           0      -17.163119    3.526012   -1.206123
     10          6           0      -16.626252    2.123786   -1.432970
     11          6           0      -18.683172    3.458673   -1.099331
     12          6           0      -15.067941    4.571556   -0.049577
     13          6           0      -15.148340    6.086369   -0.259888
     14          1           0      -14.086197    6.924964    0.274861
     15          7           0      -15.778205   -0.705281   -2.301470
     16          6           0      -16.131646    0.308307   -3.127910
     17          6           0      -15.940349   -0.201289   -4.502827
     18          6           0      -15.628548   -1.654659   -4.410150
     19          6           0      -15.825795   -1.889326   -3.002527
     20          6           0      -16.009873    0.668989   -5.720010
     21          6           0      -15.228165   -2.673029   -5.430321
     22          8           0      -15.231470   -3.926369   -5.177925
     23          6           0      -14.912826   -2.164508   -6.777543
     24          7           0      -16.256319   -2.703892   -0.078326
     25          6           0      -16.226027   -3.549889   -1.113873
     26          6           0      -16.304457   -4.976182   -0.656186
     27          6           0      -16.149653   -4.939744    0.932669
     28          6           0      -16.087534   -3.404808    1.128582
     29          6           0      -17.590300   -5.728148   -1.026543
     30          6           0      -15.024698   -5.808182    1.549686
     31          6           0      -13.673930   -5.259026    1.148498
     32          7           0      -15.870374   -0.515295    1.836850
     33          6           0      -16.029049   -1.560558    2.758219
     34          6           0      -16.124322   -0.946877    4.095525
     35          6           0      -16.030473    0.422673    3.856005
     36          6           0      -15.912117    0.651513    2.455320
     37          6           0      -16.335196   -1.642605    5.318606
     38          6           0      -16.027404    1.747273    4.455406
     39          8           0      -16.004597    2.176656    5.609790
     40          6           0      -16.171012    2.824351    3.291314
     41          6           0      -15.131319    3.886506    3.524068
     42          8           0      -13.915580    3.626162    3.416518
     43          8           0      -15.729744    5.085042    3.601145
     44          6           0      -14.751090    6.186854    3.802140
     45          1           0      -17.107374    2.135062   -3.554593
     46          1           0      -15.994403   -3.980555   -3.011878
     47          1           0      -16.132436   -3.511744    3.249141
     48          1           0      -17.080058    4.493356    0.787586
     49          1           0      -16.834887    4.191213   -2.004555
     50          1           0      -19.012816    3.520313   -0.062288
     51          1           0      -18.963003    2.497620   -1.531262
     52          1           0      -19.149664    4.217165   -1.728498
     53          1           0      -14.660942    4.271531   -1.015185
     54          1           0      -14.381098    4.357308    0.769977
     55          1           0      -16.124867    6.477353    0.027228
     56          1           0      -15.079990    6.286836   -1.329160
     57          1           0      -16.418199    1.651596   -5.486990
     58          1           0      -16.744029    0.221622   -6.389776
     59          1           0      -15.047522    0.743688   -6.226598
     60          1           0      -15.781799   -1.641379   -7.177257
     61          1           0      -14.561252   -3.023208   -7.348402
     62          1           0      -14.118090   -1.422235   -6.697691
     63          1           0      -15.494539   -5.568136   -1.080508
     64          1           0      -17.054125   -5.276862    1.439579
     65          1           0      -17.415219   -6.639329   -1.599082
     66          1           0      -18.236922   -5.041575   -1.572244
     67          1           0      -18.223062   -5.995741   -0.180716
     68          1           0      -15.081809   -6.827965    1.170573
     69          1           0      -15.065861   -5.856123    2.637922
     70          1           0      -13.514260   -5.699811    0.165113
     71          1           0      -12.906727   -5.584901    1.851645
     72          1           0      -13.706515   -4.177033    1.019204
     73          1           0      -15.653639   -1.198129    6.043789
     74          1           0      -16.150122   -2.710388    5.203764
     75          1           0      -17.386173   -1.418111    5.500009
     76          1           0      -17.183538    3.221658    3.355027
     77          1           0      -15.052516    6.723788    4.701628
     78          1           0      -14.717193    6.745679    2.866741
     79          1           0      -13.737271    5.888030    4.070867
     80         12           0       15.934446   -0.601661    0.382556
     81          6           0       15.485353    1.889632   -2.161223
     82          6           0       17.380304    1.825238    2.294176
     83          6           0       16.749352   -2.860098    2.456884
     84          6           0       15.520100   -3.012070   -2.100168
     85          7           0       16.324598    1.542583    0.005400
     86          6           0       16.054377    2.393460   -0.973033
     87          6           0       16.340252    3.880091   -0.629851
     88          6           0       17.435614    3.654499    0.522609
     89          6           0       17.005336    2.269341    1.001012
     90          6           0       18.856189    3.556557   -0.008162
     91          6           0       15.071470    4.621098   -0.079282
     92          6           0       15.193981    6.145125   -0.015378
     93          1           0       14.007330    6.950882   -0.289399
     94          7           0       16.466310   -0.462574    2.289478
     95          6           0       17.017648    0.604559    2.904734
     96          6           0       17.239998    0.194140    4.299818
     97          6           0       16.927226   -1.256031    4.417689
     98          6           0       16.717558   -1.594562    3.024300
     99          6           0       17.628845    1.160971    5.380318
    100          6           0       16.844669   -2.187191    5.589147
    101          8           0       16.790842   -3.458618    5.436191
    102          6           0       16.922866   -1.572177    6.922242
    103          7           0       16.321020   -2.633843    0.174851
    104          6           0       16.602263   -3.397038    1.245531
    105          6           0       16.570675   -4.864949    0.892511
    106          6           0       15.969762   -4.937999   -0.587747
    107          6           0       15.835304   -3.427621   -0.881104
    108          6           0       17.917044   -5.587576    0.931161
    109          6           0       14.726925   -5.845460   -0.798782
    110          6           0       13.535381   -5.266284   -0.070663
    111          7           0       15.387205   -0.603591   -1.707558
    112          6           0       15.298781   -1.722020   -2.565102
    113          6           0       15.005028   -1.210096   -3.919381
    114          6           0       14.965401    0.183158   -3.758906
    115          6           0       15.236694    0.517147   -2.404528
    116          6           0       14.862467   -2.000391   -5.094636
    117          6           0       14.766280    1.447845   -4.429433
    118          8           0       14.421054    1.786357   -5.560796
    119          6           0       15.219003    2.615540   -3.450690
    120          6           0       14.143514    3.667122   -3.453495
    121          8           0       13.013366    3.416561   -2.998986
    122          8           0       14.686321    4.851654   -3.789110
    123          6           0       13.660801    5.928730   -3.794907
    124          1           0       18.050841    2.451251    2.883553
    125          1           0       16.917036   -3.684983    3.153261
    126          1           0       15.279605   -3.705138   -2.909181
    127          1           0       16.766772    4.459394   -1.439957
    128          1           0       17.325764    4.384554    1.320304
    129          1           0       18.882507    3.536597   -1.087534
    130          1           0       19.258951    2.637573    0.397179
    131          1           0       19.469410    4.362473    0.405095
    132          1           0       14.961237    4.396487    0.989422
    133          1           0       14.198888    4.352006   -0.642148
    134          1           0       16.050760    6.514311   -0.592068
    135          1           0       15.420300    6.432184    1.014371
    136          1           0       17.947824    2.123921    4.962728
    137          1           0       18.529312    0.760689    5.858667
    138          1           0       16.850817    1.282170    6.137062
    139          1           0       17.858631   -1.025856    7.013577
    140          1           0       16.756240   -2.386545    7.629998
    141          1           0       16.117640   -0.834905    7.015177
    142          1           0       15.918606   -5.410192    1.563783
    143          1           0       16.702849   -5.333591   -1.306031
    144          1           0       17.924012   -6.461561    1.609519
    145          1           0       18.678429   -4.875497    1.220594
    146          1           0       18.281767   -5.936487   -0.033441
    147          1           0       14.902759   -6.834534   -0.368690
    148          1           0       14.469495   -5.989418   -1.842809
    149          1           0       13.671686   -5.628358    0.952770
    150          1           0       12.606797   -5.636921   -0.500081
    151          1           0       13.585414   -4.171590   -0.042438
    152          1           0       14.006057   -1.611553   -5.629315
    153          1           0       14.736373   -3.053629   -4.852627
    154          1           0       15.821891   -1.802776   -5.580140
    155          1           0       16.170098    3.001691   -3.819315
    156          1           0       13.692266    6.394501   -4.784729
    157          1           0       13.898889    6.572588   -2.927437
    158          1           0       12.620630    5.630715   -3.734366
 ---------------------------------------------------------------------

 SCF Done:  E(RCAM-B3LYP) =  -4069.81177054     A.U. after   19 cycles

 Excitation energies and oscillator strengths:

 Excited State   1:      Singlet-A      1.6754 eV  740.04 nm  f=0.2305  <S**2>=0.000
     309 -> 316        0.16923
     311 -> 313        0.66889
     312 -> 314        0.15251
     309 <- 316        0.10202
 This state for optimization and/or second-order correction.
 Total Energy, E(TD-HF/TD-DFT) =  -4069.75020170
 Copying the excited state density for this state as the 1-particle RhoCI density.

 Excited State   2:      Singlet-A      1.6801 eV  737.94 nm  f=0.5474  <S**2>=0.000
     310 -> 315        0.17123
     311 -> 313       -0.15246
     312 -> 314        0.66852
     310 <- 315        0.10252

 Excited State   3:      Singlet-A      2.1861 eV  567.14 nm  f=0.0954  <S**2>=0.000
     309 -> 313        0.64212
     311 -> 316       -0.27299

 Excited State   4:      Singlet-A      2.1926 eV  565.47 nm  f=0.1047  <S**2>=0.000
     310 -> 314        0.64034
     312 -> 315       -0.27817

 Excited State   5:      Singlet-A      3.0557 eV  405.74 nm  f=0.0000  <S**2>=0.000
     312 -> 313        0.70711

 The electronic state is 1-A.
 Alpha  occ. eigenvalues --  -46.87744 -46.87662 -19.26352 -19.26235 -19.19163
 Alpha  occ. eigenvalues --  -19.18969 -19.18760 -19.18712 -19.18120 -19.18054
 Alpha  occ. eigenvalues --  -14.42499 -14.42398 -14.41397 -14.41361 -14.39353
 Alpha  occ. eigenvalues --  -14.39350 -14.38601 -14.38535 -10.39093 -10.39029
 Alpha  occ. eigenvalues --  -10.35393 -10.35389 -10.34340 -10.34232 -10.31760
 Alpha  occ. eigenvalues --  -10.31631 -10.31354 -10.31311 -10.31024 -10.30856
 Alpha  occ. eigenvalues --  -10.30518 -10.30455 -10.30399 -10.30363 -10.30155
 Alpha  occ. eigenvalues --  -10.30142 -10.29896 -10.29869 -10.29578 -10.29438
 Alpha  occ. eigenvalues --  -10.29402 -10.29202 -10.28721 -10.28697 -10.28654
 Alpha  occ. eigenvalues --  -10.28485 -10.28406 -10.28313 -10.28142 -10.28066
 Alpha  occ. eigenvalues --  -10.28003 -10.27741 -10.27675 -10.27671 -10.27531
 Alpha  occ. eigenvalues --  -10.27519 -10.27485 -10.27468 -10.27464 -10.27450
 Alpha  occ. eigenvalues --  -10.27426 -10.27399 -10.27377 -10.27352 -10.27108
 Alpha  occ. eigenvalues --  -10.27054 -10.26692 -10.26651 -10.26410 -10.26352
 Alpha  occ. eigenvalues --  -10.26186 -10.26137 -10.26132 -10.26029 -10.25968
 Alpha  occ. eigenvalues --  -10.25936 -10.25856 -10.25795 -10.25401 -10.25387
 Alpha  occ. eigenvalues --  -10.24875 -10.24781 -10.24736 -10.24728 -10.24691
 Alpha  occ. eigenvalues --  -10.24632  -3.16487  -3.16412  -1.91368  -1.91294
 Alpha  occ. eigenvalues --   -1.90955  -1.90882  -1.90797  -1.90719  -1.16646
 Alpha  occ. eigenvalues --   -1.16583  -1.08661  -1.08578  -1.07161  -1.06965
 Alpha  occ. eigenvalues --   -1.06948  -1.06592  -1.04529  -1.04497  -1.03708
 Alpha  occ. eigenvalues --   -1.03665  -1.03182  -1.03040  -1.02359  -1.02113
 Alpha  occ. eigenvalues --   -0.91989  -0.91921  -0.89496  -0.89468  -0.89153
 Alpha  occ. eigenvalues --   -0.89136  -0.88235  -0.88221  -0.87820  -0.87796
 Alpha  occ. eigenvalues --   -0.87685  -0.87621  -0.87220  -0.87119  -0.85001
 Alpha  occ. eigenvalues --   -0.84930  -0.83885  -0.83877  -0.82930  -0.82912
 Alpha  occ. eigenvalues --   -0.82653  -0.82596  -0.81599  -0.81535  -0.80544
 Alpha  occ. eigenvalues --   -0.80444  -0.78744  -0.78636  -0.77167  -0.77146
 Alpha  occ. eigenvalues --   -0.76900  -0.76883  -0.75872  -0.75841  -0.74847
 Alpha  occ. eigenvalues --   -0.74805  -0.72723  -0.72701  -0.71621  -0.71583
 Alpha  occ. eigenvalues --   -0.69855  -0.69758  -0.68828  -0.68821  -0.67603
 Alpha  occ. eigenvalues --   -0.67589  -0.67200  -0.67166  -0.65273  -0.65235
 Alpha  occ. eigenvalues --   -0.64802  -0.64772  -0.64655  -0.64569  -0.64218
 Alpha  occ. eigenvalues --   -0.64205  -0.62281  -0.62247  -0.60389  -0.60340
 Alpha  occ. eigenvalues --   -0.59798  -0.59753  -0.58995  -0.58936  -0.58452
 Alpha  occ. eigenvalues --   -0.58427  -0.57557  -0.57534  -0.57257  -0.57238
 Alpha  occ. eigenvalues --   -0.56258  -0.56206  -0.55928  -0.55888  -0.55467
 Alpha  occ. eigenvalues --   -0.55453  -0.55289  -0.55250  -0.54489  -0.54473
 Alpha  occ. eigenvalues --   -0.53914  -0.53843  -0.53246  -0.53229  -0.53169
 Alpha  occ. eigenvalues --   -0.53143  -0.52904  -0.52863  -0.52702  -0.52667
 Alpha  occ. eigenvalues --   -0.52401  -0.52386  -0.51889  -0.51865  -0.51659
 Alpha  occ. eigenvalues --   -0.51564  -0.51203  -0.51145  -0.50517  -0.50473
 Alpha  occ. eigenvalues --   -0.49980  -0.49979  -0.49868  -0.49865  -0.49488
 Alpha  occ. eigenvalues --   -0.49462  -0.49204  -0.49163  -0.49107  -0.49045
 Alpha  occ. eigenvalues --   -0.48561  -0.48542  -0.48410  -0.48393  -0.48378
 Alpha  occ. eigenvalues --   -0.48338  -0.47643  -0.47595  -0.47245  -0.47119
 Alpha  occ. eigenvalues --   -0.46745  -0.46711  -0.46555  -0.46503  -0.46307
 Alpha  occ. eigenvalues --   -0.46272  -0.46112  -0.46088  -0.45825  -0.45772
 Alpha  occ. eigenvalues --   -0.45210  -0.45150  -0.44527  -0.44516  -0.44477
 Alpha  occ. eigenvalues --   -0.44453  -0.44129  -0.44092  -0.44078  -0.44037
 Alpha  occ. eigenvalues --   -0.43967  -0.43939  -0.43555  -0.43444  -0.43387
 Alpha  occ. eigenvalues --   -0.43334  -0.42976  -0.42932  -0.42904  -0.42648
 Alpha  occ. eigenvalues --   -0.42603  -0.42554  -0.41965  -0.41957  -0.41671
 Alpha  occ. eigenvalues --   -0.41653  -0.41482  -0.41460  -0.41090  -0.40992
 Alpha  occ. eigenvalues --   -0.40817  -0.40768  -0.40722  -0.40698  -0.40520
 Alpha  occ. eigenvalues --   -0.40495  -0.40227  -0.40181  -0.39425  -0.39388
 Alpha  occ. eigenvalues --   -0.38417  -0.38352  -0.37695  -0.37655  -0.37269
 Alpha  occ. eigenvalues --   -0.37267  -0.37211  -0.37201  -0.36774  -0.36663
 Alpha  occ. eigenvalues --   -0.36219  -0.36141  -0.34255  -0.34234  -0.33864
 Alpha  occ. eigenvalues --   -0.33719  -0.33177  -0.33134  -0.31290  -0.31271
 Alpha  occ. eigenvalues --   -0.30983  -0.30974  -0.29979  -0.29959  -0.29396
 Alpha  occ. eigenvalues --   -0.29328  -0.29270  -0.29213  -0.24038  -0.24028
 Alpha  occ. eigenvalues --   -0.21118  -0.21076
 Alpha virt. eigenvalues --   -0.08793  -0.08722  -0.01697  -0.01685  -0.00029
 Alpha virt. eigenvalues --   -0.00005   0.02205   0.02251   0.03179   0.03231
 Alpha virt. eigenvalues --    0.04728   0.04770   0.05149   0.05163   0.06182

 Mulliken charges:
               1
     1  Mg   0.838842
     2  C   -0.002942
     3  C   -0.094090
     4  C   -0.045862
     5  C   -0.063983
     6  N   -0.256778
     7  C   -0.052486
     8  C   -0.014025
     9  C   -0.087027
    10  C    0.046343
    11  C    0.104830
    12  C    0.053476
    13  C   -0.071823
    14  H    0.036173
    15  N   -0.433157
    16  C    0.168444
    17  C   -0.177129
    18  C   -0.003977
    19  C    0.148738
    20  C    0.110174
    21  C    0.012321
    22  O   -0.249612
    23  C    0.062457
    24  N   -0.341144
    25  C    0.041241
    26  C   -0.028160
    27  C   -0.023968
    28  C    0.074848
    29  C    0.076184
    30  C    0.035131
    31  C   -0.004507
    32  N   -0.310461
    33  C    0.080422
    34  C   -0.169732
    35  C    0.008328
    36  C    0.082993
    37  C    0.127314
    38  C    0.046098
    39  O   -0.188519
    40  C   -0.005338
    41  C    0.212852
    42  O   -0.257039
    43  O   -0.304819
    44  C    0.157693
    45  H   -0.017615
    46  H   -0.016834
    47  H   -0.041533
    48  H    0.000891
    49  H   -0.004006
    50  H    0.025432
    51  H    0.016427
    52  H    0.016628
    53  H    0.011276
    54  H    0.044153
    55  H    0.017802
    56  H    0.017983
    57  H    0.005869
    58  H    0.026801
    59  H    0.039664
    60  H    0.037307
    61  H    0.035698
    62  H    0.031606
    63  H    0.016592
    64  H    0.009397
    65  H    0.023204
    66  H    0.012520
    67  H    0.004698
    68  H    0.006338
    69  H    0.004687
    70  H    0.008819
    71  H    0.018173
    72  H    0.029021
    73  H    0.047547
    74  H    0.009094
    75  H    0.045936
    76  H    0.035091
    77  H    0.042873
    78  H    0.046417
    79  H    0.053720
    80  Mg   0.837949
    81  C   -0.016787
    82  C   -0.087775
    83  C   -0.045494
    84  C   -0.064888
    85  N   -0.254564
    86  C   -0.049846
    87  C   -0.015106
    88  C   -0.090498
    89  C    0.045751
    90  C    0.114381
    91  C    0.062513
    92  C   -0.077912
    93  H    0.034944
    94  N   -0.423511
    95  C    0.162958
    96  C   -0.174602
    97  C   -0.007761
    98  C    0.152115
    99  C    0.099352
   100  C    0.015602
   101  O   -0.253142
   102  C    0.061174
   103  N   -0.350082
   104  C    0.037514
   105  C   -0.019839
   106  C   -0.034806
   107  C    0.088915
   108  C    0.073654
   109  C    0.034725
   110  C   -0.007683
   111  N   -0.324115
   112  C    0.078458
   113  C   -0.163143
   114  C    0.002241
   115  C    0.096192
   116  C    0.131480
   117  C    0.042369
   118  O   -0.187936
   119  C    0.000896
   120  C    0.211255
   121  O   -0.250961
   122  O   -0.305657
   123  C    0.152035
   124  H   -0.019649
   125  H   -0.015539
   126  H   -0.040466
   127  H   -0.000680
   128  H   -0.004290
   129  H    0.022428
   130  H    0.014413
   131  H    0.016282
   132  H    0.013968
   133  H    0.037698
   134  H    0.020746
   135  H    0.019626
   136  H    0.008770
   137  H    0.026157
   138  H    0.039889
   139  H    0.038241
   140  H    0.036461
   141  H    0.033965
   142  H    0.014450
   143  H    0.012382
   144  H    0.025170
   145  H    0.011616
   146  H    0.005648
   147  H    0.006275
   148  H    0.003633
   149  H    0.010974
   150  H    0.017989
   151  H    0.030107
   152  H    0.046004
   153  H    0.008520
   154  H    0.046886
   155  H    0.034983
   156  H    0.043860
   157  H    0.049509
   158  H    0.053605
 Sum of Mulliken charges =  -0.00000

 Dipole moment (field-independent basis, Debye):
    X=              0.9131    Y=              3.1159    Z=             -0.9823  Tot=              3.3923
 Quadrupole moment (field-independent basis, Debye-Ang):
   XX=           -367.6145   YY=           -460.2829   ZZ=           -538.2617
   XY=             13.1523   XZ=            103.4968   YZ=             -4.3353

 Normal termination of Gaussian 16 at Sun Sep 12 13:25:34 2021.
