 Gaussian 16, Revision A.03,
 Gaussian 16:  ES64L-G16RevA.03 25-Dec-2016

 -----------------------------------
 #p cam-b3lyp/Def2SVP td=(nstates=5)
 -----------------------------------

 --------------------------------
 TDDFT excited states in gaussian
 --------------------------------
 Symbolic Z-matrix:
 Charge =  0 Multiplicity = 1

                         Standard orientation:
 ---------------------------------------------------------------------
 Center     Atomic      Atomic             Coordinates (Angstroms)
 Number     Number       Type             X           Y           Z
 ---------------------------------------------------------------------
      1         12           0        4.112298   -1.197655    0.193962
      2          6           0        4.769268    1.815085   -1.623730
      3          6           0        5.097334    0.461620    3.008135
      4          6           0        3.975244   -3.962592    1.740882
      5          6           0        4.277694   -2.893310   -2.846279
      6          7           0        4.819849    0.874045    0.522707
      7          6           0        4.969350    1.946966   -0.247787
      8          6           0        5.285470    3.244556    0.554524
      9          6           0        5.910640    2.584621    1.864351
     10          6           0        5.208461    1.239019    1.817197
     11          6           0        7.415993    2.356595    1.772589
     12          6           0        3.995262    4.066949    0.887336
     13          6           0        4.240260    5.497116    1.377187
     14          1           0        3.302575    6.540260    0.989961
     15          7           0        4.009249   -1.579025    2.129624
     16          6           0        4.444062   -0.783262    3.136095
     17          6           0        4.142579   -1.508987    4.388737
     18          6           0        3.670346   -2.873016    4.021972
     19          6           0        3.893838   -2.868311    2.598804
     20          6           0        4.264016   -0.890534    5.747603
     21          6           0        3.116837   -4.005371    4.827907
     22          8           0        2.986480   -5.182699    4.346784
     23          6           0        2.809796   -3.717668    6.240704
     24          7           0        4.341305   -3.180191   -0.418201
     25          6           0        4.174304   -4.191418    0.441167
     26          6           0        4.106685   -5.508984   -0.272546
     27          6           0        4.018749   -5.164482   -1.829254
     28          6           0        4.140315   -3.623376   -1.737136
     29          6           0        5.282714   -6.464302   -0.026918
     30          6           0        2.826567   -5.764590   -2.616014
     31          6           0        1.532986   -5.140447   -2.142523
     32          7           0        4.282831   -0.648212   -1.898901
     33          6           0        4.356437   -1.518793   -2.995872
     34          6           0        4.573052   -0.686885   -4.193818
     35          6           0        4.627324    0.617031   -3.705248
     36          6           0        4.481748    0.598472   -2.288648
     37          6           0        4.750162   -1.167468   -5.521261
     38          6           0        4.799075    2.019571   -4.047655
     39          8           0        4.870297    2.652321   -5.102191
     40          6           0        5.019774    2.840671   -2.701210
     41          6           0        4.118255    4.044089   -2.749778
     42          8           0        2.877463    3.915805   -2.713109
     43          8           0        4.852430    5.156180   -2.592356
     44          6           0        4.014810    6.385191   -2.601314
     45          1           0        5.605143    0.804659    3.911681
     46          1           0        3.821553   -4.930910    2.221691
     47          1           0        4.254818   -3.345485   -3.839489
     48          1           0        6.016130    3.902967    0.084360
     49          1           0        5.629994    3.127075    2.766960
     50          1           0        7.790458    2.566874    0.770851
     51          1           0        7.567066    1.306327    2.022803
     52          1           0        7.941482    2.925960    2.539702
     53          1           0        3.519498    3.646354    1.773231
     54          1           0        3.320689    4.089845    0.030742
     55          1           0        5.265499    5.814322    1.184382
     56          1           0        4.153918    5.505465    2.463776
     57          1           0        4.790818    0.062089    5.708436
     58          1           0        4.915652   -1.537344    6.334729
     59          1           0        3.297632   -0.795118    6.242911
     60          1           0        3.716777   -3.384187    6.745406
     61          1           0        2.340418   -4.617919    6.635776
     62          1           0        2.108912   -2.883658    6.286957
     63          1           0        3.218521   -6.067317    0.020464
     64          1           0        4.897661   -5.508995   -2.374688
     65          1           0        4.982466   -7.437187    0.363021
     66          1           0        5.982018   -5.971412    0.647858
     67          1           0        5.912994   -6.646517   -0.896953
     68          1           0        2.751878   -6.835872   -2.432381
     69          1           0        2.904109   -5.617378   -3.693310
     70          1           0        1.285944   -5.731238   -1.261179
     71          1           0        0.761359   -5.238148   -2.906890
     72          1           0        1.684133   -4.112118   -1.813613
     73          1           0        4.152556   -0.519642   -6.162477
     74          1           0        4.439808   -2.208315   -5.610268
     75          1           0        5.826158   -1.040960   -5.639938
     76          1           0        6.072816    3.118907   -2.672761
     77          1           0        4.410322    7.037515   -3.379952
     78          1           0        4.008863    6.763592   -1.578973
     79          1           0        2.984636    6.263980   -2.938045
     80         12           0       -4.807735   -0.056573   -0.155713
     81          6           0       -2.077417    2.085145    0.759443
     82          6           0       -6.901476    2.325037    1.100791
     83          6           0       -7.202434   -2.103199   -0.535387
     84          6           0       -2.523355   -2.685828   -0.275235
     85          7           0       -4.419957    1.908837    0.781863
     86          6           0       -3.345263    2.645265    1.020734
     87          6           0       -3.649160    4.091645    1.495274
     88          6           0       -5.116467    3.843415    2.098806
     89          6           0       -5.527429    2.638806    1.254580
     90          6           0       -5.103278    3.421399    3.558629
     91          6           0       -3.682504    5.115946    0.307124
     92          6           0       -3.666469    6.587651    0.726142
     93          1           0       -2.948437    7.542610   -0.113466
     94          7           0       -6.765783    0.257681   -0.232280
     95          6           0       -7.446564    1.287581    0.312823
     96          6           0       -8.862392    1.048128   -0.006935
     97          6           0       -8.979415   -0.292084   -0.643223
     98          6           0       -7.627047   -0.784007   -0.472344
     99          6           0       -9.932981    2.075540    0.220424
    100          6           0      -10.122895   -1.016829   -1.286181
    101          8           0      -10.058996   -2.267396   -1.559737
    102          6           0      -11.353220   -0.241086   -1.500670
    103          7           0       -4.898982   -2.133562   -0.167257
    104          6           0       -6.057219   -2.773348   -0.406144
    105          6           0       -5.828110   -4.247794   -0.638344
    106          6           0       -4.242277   -4.424525   -0.745419
    107          6           0       -3.805568   -2.971843   -0.454949
    108          6           0       -6.372519   -5.183629    0.440646
    109          6           0       -3.696217   -5.119084   -2.022950
    110          6           0       -3.934631   -4.240628   -3.229953
    111          7           0       -2.662007   -0.260712   -0.006595
    112          6           0       -1.913341   -1.456915   -0.058372
    113          6           0       -0.504015   -1.100179    0.204218
    114          6           0       -0.534177    0.286604    0.414998
    115          6           0       -1.871007    0.757628    0.312391
    116          6           0        0.586316   -2.012695    0.272171
    117          6           0        0.259413    1.457499    0.711476
    118          8           0        1.463459    1.686324    0.819436
    119          6           0       -0.721675    2.654709    1.072789
    120          6           0       -0.276677    3.868230    0.303469
    121          8           0       -0.342711    3.888674   -0.938239
    122          8           0       -0.053008    4.877991    1.164116
    123          6           0        0.379963    6.107097    0.447406
    124          1           0       -7.631956    2.900606    1.670005
    125          1           0       -7.975900   -2.836534   -0.775065
    126          1           0       -1.736422   -3.434016   -0.392011
    127          1           0       -2.987558    4.464694    2.267861
    128          1           0       -5.772181    4.687830    1.902933
    129          1           0       -4.100489    3.242982    3.917388
    130          1           0       -5.689811    2.513309    3.607637
    131          1           0       -5.635335    4.157116    4.168530
    132          1           0       -4.665896    5.069475   -0.178196
    133          1           0       -2.881552    4.927410   -0.381034
    134          1           0       -3.384739    6.713506    1.778630
    135          1           0       -4.687065    6.974506    0.673772
    136          1           0       -9.574167    2.897305    0.852361
    137          1           0      -10.715433    1.595199    0.817826
    138          1           0      -10.372466    2.439097   -0.710889
    139          1           0      -11.711476    0.138863   -0.546859
    140          1           0      -12.024195   -0.903556   -2.050957
    141          1           0      -11.113092    0.632336   -2.117197
    142          1           0       -6.280974   -4.567705   -1.568758
    143          1           0       -3.844873   -5.041867    0.073608
    144          1           0       -7.078821   -5.939008    0.047438
    145          1           0       -6.845359   -4.583160    1.206408
    146          1           0       -5.616501   -5.725716    1.006139
    147          1           0       -4.235101   -6.051832   -2.206641
    148          1           0       -2.640756   -5.363119   -1.964297
    149          1           0       -4.968955   -4.470956   -3.502361
    150          1           0       -3.247935   -4.499080   -4.033495
    151          1           0       -3.893757   -3.179340   -2.958553
    152          1           0        1.405957   -1.559316   -0.269238
    153          1           0        0.320535   -2.981538   -0.145530
    154          1           0        0.734739   -2.058996    1.354339
    155          1           0       -0.665658    2.810186    2.150867
    156          1           0        1.334329    6.413614    0.886637
    157          1           0       -0.464824    6.816141    0.533099
    158          1           0        0.649854    6.009118   -0.597593
 ---------------------------------------------------------------------

 SCF Done:  E(RCAM-B3LYP) =  -4069.81590235     A.U. after   18 cycles

 Excitation energies and oscillator strengths:

 Excited State   1:      Singlet-A      1.6627 eV  745.67 nm  f=0.4530  <S**2>=0.000
     309 -> 315        0.16913
     311 -> 313        0.68124
     309 <- 315        0.10306
 This state for optimization and/or second-order correction.
 Total Energy, E(TD-HF/TD-DFT) =  -4069.75479833
 Copying the excited state density for this state as the 1-particle RhoCI density.

 Excited State   2:      Singlet-A      1.6756 eV  739.94 nm  f=0.3640  <S**2>=0.000
     310 -> 316        0.16938
     312 -> 314        0.68012
     310 <- 316        0.10099

 Excited State   3:      Singlet-A      2.0498 eV  604.86 nm  f=0.0001  <S**2>=0.000
     312 -> 313        0.70324

 Excited State   4:      Singlet-A      2.1603 eV  573.92 nm  f=0.0030  <S**2>=0.000
     309 -> 313       -0.40261
     310 -> 314        0.50958
     311 -> 315        0.15978
     312 -> 316       -0.19939

 Excited State   5:      Singlet-A      2.1848 eV  567.47 nm  f=0.1664  <S**2>=0.000
     309 -> 313        0.50393
     310 -> 314        0.39504
     311 -> 315       -0.21318
     312 -> 316       -0.17087

 The electronic state is 1-A.
 Alpha  occ. eigenvalues --  -46.87754 -46.86738 -19.26209 -19.25525 -19.18861
 Alpha  occ. eigenvalues --  -19.18834 -19.18815 -19.18209 -19.18043 -19.17378
 Alpha  occ. eigenvalues --  -14.42589 -14.41442 -14.41323 -14.40561 -14.39460
 Alpha  occ. eigenvalues --  -14.38722 -14.38399 -14.37644 -10.38817 -10.38106
 Alpha  occ. eigenvalues --  -10.35489 -10.34856 -10.34676 -10.33581 -10.31522
 Alpha  occ. eigenvalues --  -10.31444 -10.31221 -10.31094 -10.30536 -10.30516
 Alpha  occ. eigenvalues --  -10.30374 -10.30182 -10.30010 -10.29883 -10.29656
 Alpha  occ. eigenvalues --  -10.29623 -10.29557 -10.29553 -10.29486 -10.29151
 Alpha  occ. eigenvalues --  -10.28815 -10.28777 -10.28650 -10.28529 -10.28440
 Alpha  occ. eigenvalues --  -10.28233 -10.28230 -10.28030 -10.27780 -10.27750
 Alpha  occ. eigenvalues --  -10.27604 -10.27578 -10.27567 -10.27522 -10.27439
 Alpha  occ. eigenvalues --  -10.27411 -10.27229 -10.27175 -10.27046 -10.26968
 Alpha  occ. eigenvalues --  -10.26966 -10.26832 -10.26796 -10.26782 -10.26674
 Alpha  occ. eigenvalues --  -10.26520 -10.26487 -10.26476 -10.26296 -10.26146
 Alpha  occ. eigenvalues --  -10.26116 -10.26005 -10.25991 -10.25948 -10.25456
 Alpha  occ. eigenvalues --  -10.25417 -10.25415 -10.25234 -10.25191 -10.25103
 Alpha  occ. eigenvalues --  -10.24992 -10.24796 -10.24771 -10.24709 -10.24004
 Alpha  occ. eigenvalues --  -10.23972  -3.16502  -3.15414  -1.91383  -1.90972
 Alpha  occ. eigenvalues --   -1.90811  -1.90299  -1.89881  -1.89733  -1.16448
 Alpha  occ. eigenvalues --   -1.15836  -1.09254  -1.07830  -1.07063  -1.06653
 Alpha  occ. eigenvalues --   -1.06630  -1.05686  -1.04597  -1.03769  -1.03538
 Alpha  occ. eigenvalues --   -1.03144  -1.02842  -1.02340  -1.02227  -1.01511
 Alpha  occ. eigenvalues --   -0.92117  -0.91080  -0.89560  -0.89229  -0.88957
 Alpha  occ. eigenvalues --   -0.88273  -0.88208  -0.88136  -0.87771  -0.87671
 Alpha  occ. eigenvalues --   -0.87237  -0.87080  -0.86769  -0.86537  -0.85077
 Alpha  occ. eigenvalues --   -0.84140  -0.83909  -0.83473  -0.83007  -0.82718
 Alpha  occ. eigenvalues --   -0.82388  -0.81888  -0.81657  -0.80853  -0.80511
 Alpha  occ. eigenvalues --   -0.79804  -0.78811  -0.78023  -0.77271  -0.76942
 Alpha  occ. eigenvalues --   -0.76592  -0.76193  -0.75921  -0.75154  -0.74857
 Alpha  occ. eigenvalues --   -0.74290  -0.72886  -0.71987  -0.71673  -0.70887
 Alpha  occ. eigenvalues --   -0.69781  -0.69524  -0.68922  -0.68080  -0.67727
 Alpha  occ. eigenvalues --   -0.67269  -0.66863  -0.66357  -0.65351  -0.64855
 Alpha  occ. eigenvalues --   -0.64695  -0.64419  -0.64251  -0.64059  -0.63899
 Alpha  occ. eigenvalues --   -0.63542  -0.62260  -0.61561  -0.60447  -0.59917
 Alpha  occ. eigenvalues --   -0.59724  -0.59105  -0.58852  -0.58531  -0.58187
 Alpha  occ. eigenvalues --   -0.57745  -0.57655  -0.57317  -0.56766  -0.56599
 Alpha  occ. eigenvalues --   -0.56366  -0.55902  -0.55580  -0.55555  -0.55318
 Alpha  occ. eigenvalues --   -0.55247  -0.54841  -0.54732  -0.54503  -0.53985
 Alpha  occ. eigenvalues --   -0.53863  -0.53393  -0.53218  -0.52962  -0.52895
 Alpha  occ. eigenvalues --   -0.52757  -0.52644  -0.52538  -0.52449  -0.52323
 Alpha  occ. eigenvalues --   -0.52213  -0.52061  -0.51890  -0.51756  -0.51436
 Alpha  occ. eigenvalues --   -0.51184  -0.50784  -0.50561  -0.50448  -0.50090
 Alpha  occ. eigenvalues --   -0.49992  -0.49965  -0.49598  -0.49540  -0.49404
 Alpha  occ. eigenvalues --   -0.49273  -0.49186  -0.48759  -0.48680  -0.48535
 Alpha  occ. eigenvalues --   -0.48461  -0.48425  -0.48302  -0.47932  -0.47793
 Alpha  occ. eigenvalues --   -0.47749  -0.47666  -0.47215  -0.47012  -0.46823
 Alpha  occ. eigenvalues --   -0.46637  -0.46573  -0.46417  -0.46296  -0.46108
 Alpha  occ. eigenvalues --   -0.45981  -0.45624  -0.45558  -0.45448  -0.45266
 Alpha  occ. eigenvalues --   -0.45082  -0.44876  -0.44580  -0.44561  -0.44326
 Alpha  occ. eigenvalues --   -0.44184  -0.44070  -0.43944  -0.43832  -0.43577
 Alpha  occ. eigenvalues --   -0.43530  -0.43470  -0.43292  -0.43234  -0.43026
 Alpha  occ. eigenvalues --   -0.42840  -0.42763  -0.42614  -0.42566  -0.42383
 Alpha  occ. eigenvalues --   -0.42090  -0.42034  -0.41926  -0.41845  -0.41524
 Alpha  occ. eigenvalues --   -0.41356  -0.41109  -0.40887  -0.40795  -0.40767
 Alpha  occ. eigenvalues --   -0.40707  -0.40551  -0.40343  -0.40260  -0.40195
 Alpha  occ. eigenvalues --   -0.40159  -0.39847  -0.39440  -0.39227  -0.38999
 Alpha  occ. eigenvalues --   -0.38391  -0.37845  -0.37702  -0.37312  -0.37290
 Alpha  occ. eigenvalues --   -0.37012  -0.36608  -0.36548  -0.36340  -0.36067
 Alpha  occ. eigenvalues --   -0.35908  -0.35367  -0.34376  -0.33613  -0.33367
 Alpha  occ. eigenvalues --   -0.33211  -0.32767  -0.32304  -0.31366  -0.31059
 Alpha  occ. eigenvalues --   -0.30741  -0.30536  -0.30150  -0.29494  -0.29383
 Alpha  occ. eigenvalues --   -0.29222  -0.28617  -0.28469  -0.24125  -0.23104
 Alpha  occ. eigenvalues --   -0.21234  -0.20259
 Alpha virt. eigenvalues --   -0.08936  -0.07907  -0.01772  -0.00912  -0.00174
 Alpha virt. eigenvalues --    0.00763   0.01918   0.02985   0.03236   0.04630
 Alpha virt. eigenvalues --    0.04928   0.05551   0.05893   0.06035   0.06276

 Mulliken charges:
               1
     1  Mg   0.762581
     2  C    0.010311
     3  C   -0.092633
     4  C   -0.051930
     5  C   -0.065234
     6  N   -0.247811
     7  C   -0.034860
     8  C   -0.021140
     9  C   -0.091659
    10  C    0.062179
    11  C    0.105767
    12  C    0.065238
    13  C   -0.073714
    14  H    0.026146
    15  N   -0.425770
    16  C    0.175263
    17  C   -0.179653
    18  C   -0.007990
    19  C    0.145488
    20  C    0.111544
    21  C    0.009053
    22  O   -0.253166
    23  C    0.063691
    24  N   -0.333983
    25  C    0.042001
    26  C   -0.027116
    27  C   -0.022781
    28  C    0.071779
    29  C    0.077072
    30  C    0.042159
    31  C   -0.022998
    32  N   -0.305781
    33  C    0.077637
    34  C   -0.171839
    35  C    0.006950
    36  C    0.083236
    37  C    0.127949
    38  C    0.048715
    39  O   -0.190706
    40  C   -0.010878
    41  C    0.209210
    42  O   -0.243685
    43  O   -0.306314
    44  C    0.156687
    45  H   -0.021736
    46  H   -0.021741
    47  H   -0.046664
    48  H   -0.003882
    49  H   -0.006530
    50  H    0.024021
    51  H    0.015630
    52  H    0.013387
    53  H    0.020117
    54  H    0.047064
    55  H    0.014615
    56  H    0.017922
    57  H    0.005353
    58  H    0.024274
    59  H    0.036747
    60  H    0.036966
    61  H    0.032843
    62  H    0.029908
    63  H    0.012137
    64  H    0.008672
    65  H    0.020869
    66  H    0.013471
    67  H    0.003439
    68  H    0.004635
    69  H    0.003952
    70  H    0.008131
    71  H    0.017084
    72  H    0.035564
    73  H    0.046516
    74  H    0.006829
    75  H    0.044280
    76  H    0.032535
    77  H    0.040961
    78  H    0.041406
    79  H    0.056097
    80  Mg   0.840800
    81  C   -0.017703
    82  C   -0.087818
    83  C   -0.045431
    84  C   -0.066645
    85  N   -0.254832
    86  C   -0.050164
    87  C   -0.015158
    88  C   -0.090638
    89  C    0.046613
    90  C    0.114488
    91  C    0.062495
    92  C   -0.077646
    93  H    0.035779
    94  N   -0.423628
    95  C    0.163938
    96  C   -0.174172
    97  C   -0.007232
    98  C    0.152775
    99  C    0.099265
   100  C    0.016063
   101  O   -0.252472
   102  C    0.060958
   103  N   -0.350162
   104  C    0.038399
   105  C   -0.020204
   106  C   -0.034804
   107  C    0.087807
   108  C    0.073374
   109  C    0.033022
   110  C   -0.007430
   111  N   -0.324391
   112  C    0.080003
   113  C   -0.157776
   114  C    0.002380
   115  C    0.100401
   116  C    0.099734
   117  C    0.064154
   118  O   -0.180934
   119  C    0.001797
   120  C    0.215737
   121  O   -0.236228
   122  O   -0.312455
   123  C    0.163105
   124  H   -0.019450
   125  H   -0.015030
   126  H   -0.037415
   127  H   -0.001445
   128  H   -0.003927
   129  H    0.021681
   130  H    0.014406
   131  H    0.016323
   132  H    0.013980
   133  H    0.040468
   134  H    0.019670
   135  H    0.019268
   136  H    0.009070
   137  H    0.026520
   138  H    0.040566
   139  H    0.038288
   140  H    0.036888
   141  H    0.034330
   142  H    0.014725
   143  H    0.013977
   144  H    0.025320
   145  H    0.011414
   146  H    0.006816
   147  H    0.006040
   148  H    0.005727
   149  H    0.010746
   150  H    0.017618
   151  H    0.030697
   152  H    0.073547
   153  H    0.017333
   154  H    0.073889
   155  H    0.033227
   156  H    0.020743
   157  H    0.045152
   158  H    0.059780
 Sum of Mulliken charges =  -0.00000

 Dipole moment (field-independent basis, Debye):
    X=             -2.9412    Y=              2.8146    Z=              5.8899  Tot=              7.1599
 Quadrupole moment (field-independent basis, Debye-Ang):
   XX=           -487.3355   YY=           -477.4330   ZZ=           -515.7457
   XY=            -26.8846   XZ=              6.8332   YZ=             41.5743

 Normal termination of Gaussian 16 at Thu Sep  9 22:58:33 2021.
