 Gaussian 16, Revision A.03,
 Gaussian 16:  ES64L-G16RevA.03 25-Dec-2016

 -----------------------------------
 #p cam-b3lyp/Def2SVP td=(nstates=5)
 -----------------------------------

 --------------------------------
 TDDFT excited states in gaussian
 --------------------------------
 Symbolic Z-matrix:
 Charge =  0 Multiplicity = 1

                         Standard orientation:
 ---------------------------------------------------------------------
 Center     Atomic      Atomic             Coordinates (Angstroms)
 Number     Number       Type             X           Y           Z
 ---------------------------------------------------------------------
      1         12           0        3.885624    0.473295    1.469680
      2          6           0        4.802675   -2.469662   -0.349727
      3          6           0        5.679105    2.264170   -0.814890
      4          6           0        3.470430    3.025236    3.305935
      5          6           0        3.150997   -1.603837    4.169959
      6          7           0        5.047344   -0.138553   -0.312649
      7          6           0        5.270419   -1.291390   -0.935846
      8          6           0        5.983450   -1.122570   -2.310787
      9          6           0        6.687222    0.285579   -2.058162
     10          6           0        5.729232    0.854265   -1.026282
     11          6           0        8.072865    0.170394   -1.431084
     12          6           0        4.969280   -1.050722   -3.501597
     13          6           0        5.584442   -1.214113   -4.894519
     14          1           0        4.824444   -1.916070   -5.917753
     15          7           0        4.058277    2.395895    1.049382
     16          6           0        4.820280    2.946365    0.073872
     17          6           0        4.608626    4.406935    0.166711
     18          6           0        3.810470    4.673850    1.395449
     19          6           0        3.769596    3.361246    1.987715
     20          6           0        5.096603    5.376329   -0.865715
     21          6           0        3.192923    5.916986    1.953463
     22          8           0        2.741097    5.974844    3.148067
     23          6           0        3.211018    7.106992    1.083635
     24          7           0        3.592136    0.713075    3.522484
     25          6           0        3.380816    1.922706    4.052691
     26          6           0        2.918846    1.821797    5.476186
     27          6           0        2.623313    0.274313    5.736393
     28          6           0        3.070473   -0.285449    4.363445
     29          6           0        3.900511    2.339234    6.536659
     30          6           0        1.211961   -0.093908    6.258809
     31          6           0        0.179605    0.187399    5.190069
     32          7           0        3.783732   -1.666713    1.817575
     33          6           0        3.479422   -2.311012    3.025444
     34          6           0        3.640884   -3.758478    2.795572
     35          6           0        4.046593   -3.855244    1.465955
     36          6           0        4.158442   -2.549410    0.908659
     37          6           0        3.473921   -4.780901    3.770871
     38          6           0        4.435417   -4.756740    0.393584
     39          8           0        4.442335   -5.980046    0.248789
     40          6           0        5.057901   -3.890173   -0.788533
     41          6           0        4.426446   -4.353553   -2.072999
     42          8           0        3.212951   -4.164042   -2.294091
     43          8           0        5.387621   -4.728848   -2.930809
     44          6           0        4.830013   -5.172115   -4.236467
     45          1           0        6.400663    2.901138   -1.330222
     46          1           0        3.212314    3.872448    3.944718
     47          1           0        2.857699   -2.317816    4.941751
     48          1           0        6.735653   -1.880907   -2.528822
     49          1           0        6.690452    0.905529   -2.954473
     50          1           0        8.295171   -0.856680   -1.141913
     51          1           0        8.049725    0.816510   -0.553308
     52          1           0        8.832857    0.589026   -2.091339
     53          1           0        4.585793   -0.033946   -3.586248
     54          1           0        4.170172   -1.781518   -3.372406
     55          1           0        6.600764   -1.605020   -4.838035
     56          1           0        5.699195   -0.223879   -5.335504
     57          1           0        5.790292    4.905385   -1.561095
     58          1           0        5.698057    6.120771   -0.344402
     59          1           0        4.275473    5.867405   -1.388135
     60          1           0        4.242759    7.352497    0.831075
     61          1           0        2.647489    7.874735    1.612648
     62          1           0        2.714591    6.864752    0.143513
     63          1           0        2.003461    2.391322    5.631552
     64          1           0        3.300539   -0.152617    6.476507
     65          1           0        3.484031    3.118052    7.175949
     66          1           0        4.795538    2.690962    6.024308
     67          1           0        4.312906    1.571664    7.191018
     68          1           0        0.955277    0.519232    7.122012
     69          1           0        1.122067   -1.138893    6.555755
     70          1           0       -0.019232    1.250899    5.317603
     71          1           0       -0.720786   -0.402017    5.366404
     72          1           0        0.593646    0.050845    4.190865
     73          1           0        2.914904   -5.579374    3.283112
     74          1           0        2.947435   -4.408125    4.649195
     75          1           0        4.513669   -5.030385    3.981913
     76          1           0        6.132988   -4.066520   -0.773950
     77          1           0        5.202781   -6.180042   -4.419117
     78          1           0        5.085822   -4.398971   -4.961184
     79          1           0        3.753231   -5.342072   -4.268009
     80         12           0       -3.539687    0.449057   -1.331607
     81          6           0       -6.003558   -1.628131    0.247533
     82          6           0       -5.855718    2.953104   -1.313253
     83          6           0       -1.556632    2.161569   -3.121086
     84          6           0       -1.867903   -2.468712   -2.246739
     85          7           0       -5.625177    0.530316   -0.599230
     86          6           0       -6.434923   -0.301624    0.038368
     87          6           0       -7.750810    0.345431    0.547599
     88          6           0       -7.829817    1.573557   -0.484073
     89          6           0       -6.342753    1.725554   -0.797467
     90          6           0       -8.557054    1.230497   -1.773556
     91          6           0       -7.635676    0.846944    2.029906
     92          6           0       -8.967366    1.206985    2.692269
     93          1           0       -9.134216    0.928798    4.116078
     94          7           0       -3.481653    2.402911   -1.674601
     95          6           0       -4.510305    3.273239   -1.599103
     96          6           0       -3.954499    4.585626   -1.963613
     97          6           0       -2.551526    4.390500   -2.420020
     98          6           0       -2.480732    2.943249   -2.443172
     99          6           0       -4.713842    5.868423   -1.786838
    100          6           0       -1.458943    5.347923   -2.788520
    101          8           0       -0.394096    4.957080   -3.385330
    102          6           0       -1.713075    6.769768   -2.514179
    103          7           0       -2.058649   -0.076058   -2.692904
    104          6           0       -1.307303    0.863351   -3.293666
    105          6           0       -0.132835    0.244488   -4.013403
    106          6           0       -0.116120   -1.291145   -3.567127
    107          6           0       -1.392832   -1.316100   -2.698345
    108          6           0       -0.167198    0.330448   -5.539128
    109          6           0        1.205127   -1.831813   -2.955041
    110          6           0        1.459785   -1.176892   -1.616529
    111          7           0       -3.747709   -1.659896   -0.910796
    112          6           0       -2.955441   -2.713090   -1.417926
    113          6           0       -3.553025   -3.976653   -0.939687
    114          6           0       -4.673692   -3.568629   -0.200672
    115          6           0       -4.779391   -2.151869   -0.233994
    116          6           0       -3.083778   -5.285889   -1.242738
    117          6           0       -5.797320   -4.014836    0.591181
    118          8           0       -6.172838   -5.100339    1.032110
    119          6           0       -6.780381   -2.785411    0.811329
    120          6           0       -7.147073   -2.739190    2.269379
    121          8           0       -6.283825   -2.495502    3.130793
    122          8           0       -8.486876   -2.774028    2.388106
    123          6           0       -8.900007   -2.719275    3.815750
    124          1           0       -6.575635    3.732907   -1.563268
    125          1           0       -0.783212    2.709877   -3.663902
    126          1           0       -1.349956   -3.416661   -2.407343
    127          1           0       -8.631065   -0.278724    0.450765
    128          1           0       -8.211568    2.470036   -0.002476
    129          1           0       -8.798365    0.179583   -1.832669
    130          1           0       -7.884404    1.509829   -2.573907
    131          1           0       -9.441104    1.864318   -1.887841
    132          1           0       -7.149582    1.831007    2.038226
    133          1           0       -7.113053    0.131560    2.634654
    134          1           0       -9.825911    0.829343    2.123727
    135          1           0       -9.085451    2.292976    2.666265
    136          1           0       -5.776594    5.682688   -1.588208
    137          1           0       -4.704036    6.381747   -2.754445
    138          1           0       -4.266626    6.522488   -1.035253
    139          1           0       -2.607627    7.085814   -3.045557
    140          1           0       -0.783731    7.285979   -2.762613
    141          1           0       -1.923748    6.887636   -1.445385
    142          1           0        0.796525    0.709342   -3.707962
    143          1           0       -0.301115   -1.964474   -4.416973
    144          1           0        0.721576    0.830462   -5.968235
    145          1           0       -1.072047    0.846401   -5.831643
    146          1           0       -0.268859   -0.623776   -6.053254
    147          1           0        2.052689   -1.571924   -3.593990
    148          1           0        1.214224   -2.909493   -2.830522
    149          1           0        1.932036   -0.229004   -1.891459
    150          1           0        2.125661   -1.788668   -1.011231
    151          1           0        0.517648   -0.940612   -1.108397
    152          1           0       -3.118109   -5.850203   -0.320312
    153          1           0       -2.078300   -5.261700   -1.657712
    154          1           0       -3.826529   -5.592557   -1.984045
    155          1           0       -7.651704   -2.944632    0.174911
    156          1           0       -9.533571   -3.592658    3.998725
    157          1           0       -9.361949   -1.723811    3.955102
    158          1           0       -8.129918   -2.855730    4.565944
 ---------------------------------------------------------------------

 SCF Done:  E(RCAM-B3LYP) =  -4069.81684089     A.U. after   19 cycles

 Excitation energies and oscillator strengths:

 Excited State   1:      Singlet-A      1.6314 eV  759.97 nm  f=0.0038  <S**2>=0.000
     309 -> 315       -0.11100
     310 -> 316        0.11908
     311 -> 313       -0.46605
     312 -> 314        0.50591
 This state for optimization and/or second-order correction.
 Total Energy, E(TD-HF/TD-DFT) =  -4069.75688674
 Copying the excited state density for this state as the 1-particle RhoCI density.

 Excited State   2:      Singlet-A      1.7083 eV  725.76 nm  f=0.6759  <S**2>=0.000
     309 -> 315        0.13506
     310 -> 316        0.12289
     311 -> 313        0.50291
     312 -> 314        0.46331

 Excited State   3:      Singlet-A      2.1776 eV  569.37 nm  f=0.0564  <S**2>=0.000
     309 -> 313        0.24599
     310 -> 314        0.59702
     311 -> 315       -0.10001
     312 -> 316       -0.24556

 Excited State   4:      Singlet-A      2.1968 eV  564.38 nm  f=0.1289  <S**2>=0.000
     309 -> 313        0.59146
     310 -> 314       -0.24091
     311 -> 315       -0.26030
     312 -> 316        0.10975

 Excited State   5:      Singlet-A      2.2700 eV  546.20 nm  f=0.0002  <S**2>=0.000
     312 -> 313        0.70583

 The electronic state is 1-A.
 Alpha  occ. eigenvalues --  -46.87698 -46.87256 -19.26894 -19.26135 -19.19886
 Alpha  occ. eigenvalues --  -19.18931 -19.18731 -19.18520 -19.18264 -19.17738
 Alpha  occ. eigenvalues --  -14.42407 -14.42111 -14.41390 -14.40893 -14.39330
 Alpha  occ. eigenvalues --  -14.38968 -14.38540 -14.38194 -10.39795 -10.38850
 Alpha  occ. eigenvalues --  -10.35359 -10.35207 -10.34512 -10.33913 -10.32168
 Alpha  occ. eigenvalues --  -10.31581 -10.31424 -10.30915 -10.30910 -10.30700
 Alpha  occ. eigenvalues --  -10.30549 -10.30468 -10.30088 -10.29981 -10.29934
 Alpha  occ. eigenvalues --  -10.29880 -10.29614 -10.29588 -10.29401 -10.29150
 Alpha  occ. eigenvalues --  -10.29048 -10.29003 -10.28895 -10.28816 -10.28457
 Alpha  occ. eigenvalues --  -10.28439 -10.28353 -10.28184 -10.28061 -10.27838
 Alpha  occ. eigenvalues --  -10.27729 -10.27680 -10.27632 -10.27518 -10.27452
 Alpha  occ. eigenvalues --  -10.27415 -10.27340 -10.27333 -10.27280 -10.27254
 Alpha  occ. eigenvalues --  -10.27184 -10.27109 -10.27098 -10.27026 -10.26750
 Alpha  occ. eigenvalues --  -10.26741 -10.26584 -10.26452 -10.26337 -10.26274
 Alpha  occ. eigenvalues --  -10.26263 -10.25929 -10.25925 -10.25751 -10.25724
 Alpha  occ. eigenvalues --  -10.25366 -10.25339 -10.25309 -10.25000 -10.24813
 Alpha  occ. eigenvalues --  -10.24750 -10.24510 -10.24377 -10.24350 -10.24282
 Alpha  occ. eigenvalues --  -10.23339  -3.16435  -3.16007  -1.91314  -1.90904
 Alpha  occ. eigenvalues --   -1.90890  -1.90747  -1.90477  -1.90315  -1.17270
 Alpha  occ. eigenvalues --   -1.16424  -1.08778  -1.08351  -1.07427  -1.07132
 Alpha  occ. eigenvalues --   -1.06788  -1.06713  -1.04560  -1.04121  -1.03706
 Alpha  occ. eigenvalues --   -1.03252  -1.03177  -1.02595  -1.02360  -1.01690
 Alpha  occ. eigenvalues --   -0.92051  -0.91618  -0.89432  -0.89278  -0.88925
 Alpha  occ. eigenvalues --   -0.88758  -0.88186  -0.87814  -0.87662  -0.87491
 Alpha  occ. eigenvalues --   -0.87369  -0.87264  -0.87160  -0.86815  -0.85071
 Alpha  occ. eigenvalues --   -0.84668  -0.83861  -0.83188  -0.82862  -0.82705
 Alpha  occ. eigenvalues --   -0.82600  -0.82204  -0.81769  -0.81234  -0.80644
 Alpha  occ. eigenvalues --   -0.80083  -0.78709  -0.78271  -0.77200  -0.77031
 Alpha  occ. eigenvalues --   -0.76772  -0.76416  -0.75998  -0.75485  -0.74845
 Alpha  occ. eigenvalues --   -0.74280  -0.72722  -0.72256  -0.71680  -0.71190
 Alpha  occ. eigenvalues --   -0.69742  -0.68942  -0.68874  -0.68440  -0.67665
 Alpha  occ. eigenvalues --   -0.67311  -0.67226  -0.66927  -0.65401  -0.64974
 Alpha  occ. eigenvalues --   -0.64932  -0.64650  -0.64360  -0.64244  -0.64184
 Alpha  occ. eigenvalues --   -0.63486  -0.62536  -0.61883  -0.60347  -0.59964
 Alpha  occ. eigenvalues --   -0.59845  -0.59461  -0.59003  -0.58576  -0.58542
 Alpha  occ. eigenvalues --   -0.58017  -0.57875  -0.57271  -0.57235  -0.56802
 Alpha  occ. eigenvalues --   -0.56437  -0.56151  -0.55834  -0.55650  -0.55510
 Alpha  occ. eigenvalues --   -0.55390  -0.55165  -0.54809  -0.54663  -0.54054
 Alpha  occ. eigenvalues --   -0.53949  -0.53606  -0.53320  -0.53257  -0.53145
 Alpha  occ. eigenvalues --   -0.52900  -0.52737  -0.52680  -0.52526  -0.52433
 Alpha  occ. eigenvalues --   -0.52252  -0.51903  -0.51762  -0.51470  -0.51369
 Alpha  occ. eigenvalues --   -0.51285  -0.51174  -0.50689  -0.50405  -0.50213
 Alpha  occ. eigenvalues --   -0.50009  -0.49829  -0.49667  -0.49644  -0.49324
 Alpha  occ. eigenvalues --   -0.49220  -0.49186  -0.49004  -0.48895  -0.48783
 Alpha  occ. eigenvalues --   -0.48590  -0.48430  -0.48356  -0.48244  -0.48094
 Alpha  occ. eigenvalues --   -0.47861  -0.47690  -0.47255  -0.47196  -0.46777
 Alpha  occ. eigenvalues --   -0.46762  -0.46658  -0.46384  -0.46306  -0.46167
 Alpha  occ. eigenvalues --   -0.46111  -0.45969  -0.45784  -0.45620  -0.45438
 Alpha  occ. eigenvalues --   -0.45135  -0.44747  -0.44613  -0.44481  -0.44237
 Alpha  occ. eigenvalues --   -0.44200  -0.44065  -0.44061  -0.43996  -0.43838
 Alpha  occ. eigenvalues --   -0.43663  -0.43654  -0.43521  -0.43413  -0.43115
 Alpha  occ. eigenvalues --   -0.43097  -0.43002  -0.42941  -0.42618  -0.42532
 Alpha  occ. eigenvalues --   -0.42500  -0.41988  -0.41969  -0.41744  -0.41574
 Alpha  occ. eigenvalues --   -0.41342  -0.41277  -0.41142  -0.40904  -0.40875
 Alpha  occ. eigenvalues --   -0.40805  -0.40619  -0.40505  -0.40471  -0.40405
 Alpha  occ. eigenvalues --   -0.40257  -0.39983  -0.39533  -0.39248  -0.38514
 Alpha  occ. eigenvalues --   -0.38378  -0.37886  -0.37684  -0.37373  -0.37336
 Alpha  occ. eigenvalues --   -0.37241  -0.37144  -0.36866  -0.36570  -0.36430
 Alpha  occ. eigenvalues --   -0.36233  -0.35602  -0.34539  -0.34213  -0.33833
 Alpha  occ. eigenvalues --   -0.33595  -0.33161  -0.32757  -0.31266  -0.31081
 Alpha  occ. eigenvalues --   -0.31006  -0.30571  -0.30144  -0.29638  -0.29376
 Alpha  occ. eigenvalues --   -0.29267  -0.28982  -0.28833  -0.24067  -0.23623
 Alpha  occ. eigenvalues --   -0.21081  -0.20699
 Alpha virt. eigenvalues --   -0.08730  -0.08408  -0.01707  -0.01273  -0.00024
 Alpha virt. eigenvalues --    0.00258   0.02184   0.02586   0.02795   0.04423
 Alpha virt. eigenvalues --    0.04536   0.04669   0.05107   0.05417   0.05878

 Mulliken charges:
               1
     1  Mg   0.831016
     2  C   -0.013094
     3  C   -0.092633
     4  C   -0.044829
     5  C   -0.062269
     6  N   -0.255276
     7  C   -0.054962
     8  C   -0.003790
     9  C   -0.087266
    10  C    0.047311
    11  C    0.104873
    12  C    0.020381
    13  C   -0.071274
    14  H    0.034546
    15  N   -0.432317
    16  C    0.170095
    17  C   -0.173540
    18  C   -0.002488
    19  C    0.149142
    20  C    0.109236
    21  C    0.013093
    22  O   -0.250167
    23  C    0.060434
    24  N   -0.339812
    25  C    0.041083
    26  C   -0.028201
    27  C   -0.023971
    28  C    0.074537
    29  C    0.076250
    30  C    0.034857
    31  C   -0.005536
    32  N   -0.309323
    33  C    0.081469
    34  C   -0.168721
    35  C    0.003767
    36  C    0.082013
    37  C    0.127100
    38  C    0.046848
    39  O   -0.188359
    40  C   -0.008284
    41  C    0.222580
    42  O   -0.255708
    43  O   -0.302733
    44  C    0.155922
    45  H   -0.017664
    46  H   -0.016721
    47  H   -0.040317
    48  H   -0.001202
    49  H   -0.003354
    50  H    0.025414
    51  H    0.017575
    52  H    0.016943
    53  H    0.015889
    54  H    0.063434
    55  H    0.018933
    56  H    0.020185
    57  H    0.005797
    58  H    0.025712
    59  H    0.046782
    60  H    0.037242
    61  H    0.033973
    62  H    0.036287
    63  H    0.016932
    64  H    0.009257
    65  H    0.023122
    66  H    0.012129
    67  H    0.004932
    68  H    0.006028
    69  H    0.006000
    70  H    0.007372
    71  H    0.023914
    72  H    0.028577
    73  H    0.047676
    74  H    0.010869
    75  H    0.045525
    76  H    0.036020
    77  H    0.045646
    78  H    0.048341
    79  H    0.052395
    80  Mg   0.836253
    81  C   -0.018191
    82  C   -0.088629
    83  C   -0.046536
    84  C   -0.064376
    85  N   -0.254739
    86  C   -0.049776
    87  C   -0.015132
    88  C   -0.090288
    89  C    0.045314
    90  C    0.114675
    91  C    0.062656
    92  C   -0.077333
    93  H    0.033646
    94  N   -0.423148
    95  C    0.162386
    96  C   -0.175407
    97  C   -0.008828
    98  C    0.151920
    99  C    0.099457
   100  C    0.014129
   101  O   -0.257144
   102  C    0.061551
   103  N   -0.350644
   104  C    0.037949
   105  C   -0.018549
   106  C   -0.029980
   107  C    0.089697
   108  C    0.075736
   109  C    0.032087
   110  C   -0.050565
   111  N   -0.324382
   112  C    0.078842
   113  C   -0.160934
   114  C    0.001395
   115  C    0.096762
   116  C    0.129964
   117  C    0.042212
   118  O   -0.188521
   119  C    0.001041
   120  C    0.211216
   121  O   -0.251846
   122  O   -0.305564
   123  C    0.152377
   124  H   -0.021110
   125  H   -0.018024
   126  H   -0.032336
   127  H   -0.001275
   128  H   -0.005130
   129  H    0.021964
   130  H    0.014335
   131  H    0.015240
   132  H    0.014076
   133  H    0.037165
   134  H    0.020524
   135  H    0.019352
   136  H    0.008261
   137  H    0.024466
   138  H    0.038921
   139  H    0.038658
   140  H    0.031382
   141  H    0.034868
   142  H    0.011802
   143  H    0.008349
   144  H    0.020096
   145  H    0.009607
   146  H    0.004510
   147  H   -0.002952
   148  H    0.027325
   149  H    0.011954
   150  H    0.057378
   151  H    0.021227
   152  H    0.045980
   153  H    0.015858
   154  H    0.045317
   155  H    0.034285
   156  H    0.043451
   157  H    0.049248
   158  H    0.052831
 Sum of Mulliken charges =  -0.00000

 Dipole moment (field-independent basis, Debye):
    X=              1.3239    Y=              6.3983    Z=             -2.6524  Tot=              7.0517
 Quadrupole moment (field-independent basis, Debye-Ang):
   XX=           -453.2289   YY=           -537.8748   ZZ=           -486.1164
   XY=            -22.5033   XZ=            -15.4333   YZ=              2.3816

 Normal termination of Gaussian 16 at Wed Sep  8 16:06:21 2021.
