 Gaussian 16, Revision A.03,
 Gaussian 16:  ES64L-G16RevA.03 25-Dec-2016

 -----------------------------------
 #p cam-b3lyp/Def2SVP td=(nstates=5)
 -----------------------------------

 --------------------------------
 TDDFT excited states in gaussian
 --------------------------------
 Symbolic Z-matrix:
 Charge =  0 Multiplicity = 1

                         Standard orientation:
 ---------------------------------------------------------------------
 Center     Atomic      Atomic             Coordinates (Angstroms)
 Number     Number       Type             X           Y           Z
 ---------------------------------------------------------------------
      1         12           0       -6.520841    0.596038   -0.539690
      2          6           0       -6.775846   -2.686905    0.863689
      3          6           0       -7.635335    1.799902    2.452246
      4          6           0       -6.738030    3.455061   -1.894472
      5          6           0       -6.530165   -0.907545   -3.683703
      6          7           0       -7.097168   -0.414938    1.343504
      7          6           0       -7.092657   -1.673611    1.771164
      8          6           0       -7.383050   -1.809117    3.295855
      9          6           0       -8.175624   -0.444548    3.523403
     10          6           0       -7.575926    0.375746    2.394951
     11          6           0       -9.678804   -0.567827    3.295912
     12          6           0       -6.070945   -1.858631    4.148884
     13          6           0       -6.251600   -2.314696    5.599650
     14          1           0       -5.205707   -3.115977    6.217230
     15          7           0       -6.627670    2.393810    0.272376
     16          6           0       -7.092880    2.698045    1.507815
     17          6           0       -6.965146    4.165178    1.641552
     18          6           0       -6.565359    4.709972    0.314350
     19          6           0       -6.654330    3.529148   -0.506087
     20          6           0       -7.165478    4.894067    2.934741
     21          6           0       -6.176577    6.079899   -0.144212
     22          8           0       -6.091420    6.383796   -1.383150
     23          6           0       -5.981572    7.094066    0.907683
     24          7           0       -6.841163    1.214262   -2.507640
     25          6           0       -6.831911    2.511428   -2.833614
     26          6           0       -6.797985    2.700347   -4.321262
     27          6           0       -6.539635    1.253239   -4.944869
     28          6           0       -6.552313    0.426344   -3.635535
     29          6           0       -8.060667    3.307992   -4.947691
     30          6           0       -5.328190    1.104853   -5.899228
     31          6           0       -4.040837    1.283640   -5.126017
     32          7           0       -6.453652   -1.433714   -1.305613
     33          6           0       -6.490419   -1.828990   -2.650633
     34          6           0       -6.530959   -3.302816   -2.666806
     35          6           0       -6.531698   -3.664425   -1.321041
     36          6           0       -6.520516   -2.490273   -0.515105
     37          6           0       -6.619513   -4.121375   -3.827217
     38          6           0       -6.564211   -4.769123   -0.376349
     39          8           0       -6.488833   -5.994909   -0.472574
     40          6           0       -6.846600   -4.178788    1.075404
     41          6           0       -5.856029   -4.802655    2.020321
     42          8           0       -4.637322   -4.550581    1.927701
     43          8           0       -6.515427   -5.403194    3.022862
     44          6           0       -5.590047   -6.017397    4.012094
     45          1           0       -8.197676    2.272658    3.259844
     46          1           0       -6.703487    4.419683   -2.405109
     47          1           0       -6.449158   -1.448106   -4.628522
     48          1           0       -8.014832   -2.655876    3.564697
     49          1           0       -7.940033    0.007110    4.486846
     50          1           0       -9.941357   -1.544093    2.888612
     51          1           0       -9.931547    0.220905    2.587029
     52          1           0      -10.228870   -0.337808    4.208763
     53          1           0       -5.712947   -0.842922    4.316917
     54          1           0       -5.319733   -2.484017    3.665253
     55          1           0       -7.227476   -2.775992    5.753856
     56          1           0       -6.266451   -1.430103    6.236419
     57          1           0       -7.612757    4.251088    3.691752
     58          1           0       -7.916022    5.663243    2.753742
     59          1           0       -6.244989    5.355590    3.292552
     60          1           0       -6.903778    7.201854    1.479056
     61          1           0       -5.620489    7.987959    0.400314
     62          1           0       -5.226965    6.735467    1.608343
     63          1           0       -5.985769    3.365057   -4.612622
     64          1           0       -7.387460    0.904987   -5.535281
     65          1           0       -7.872509    4.219277   -5.515900
     66          1           0       -8.780477    3.486504   -4.149382
     67          1           0       -8.619146    2.633510   -5.596222
     68          1           0       -5.352190    1.878850   -6.665582
     69          1           0       -5.293698    0.139311   -6.403996
     70          1           0       -3.922360    2.366221   -5.097478
     71          1           0       -3.210985    0.813889   -5.655064
     72          1           0       -4.143729    0.939858   -4.096594
     73          1           0       -5.917495   -4.941366   -3.676372
     74          1           0       -6.381856   -3.557240   -4.728812
     75          1           0       -7.667111   -4.419038   -3.784892
     76          1           0       -7.873634   -4.441991    1.326497
     77          1           0       -5.860831   -7.070077    4.094400
     78          1           0       -5.650733   -5.407361    4.913526
     79          1           0       -4.545123   -6.096697    3.710125
     80         12           0        6.678869    0.793148    0.428674
     81          6           0        6.655045   -2.276238   -1.430721
     82          6           0        5.629990   -1.008252    3.128560
     83          6           0        6.256443    3.534823    1.968860
     84          6           0        6.607471    2.479127   -2.620606
     85          7           0        6.235751   -1.357971    0.690602
     86          6           0        6.321788   -2.438988   -0.069877
     87          6           0        6.112990   -3.777188    0.688521
     88          6           0        5.252341   -3.221077    1.925013
     89          6           0        5.757743   -1.779971    1.946087
     90          6           0        3.756905   -3.198885    1.655757
     91          6           0        7.466323   -4.409470    1.168854
     92          6           0        7.365737   -5.861331    1.641860
     93          1           0        8.483916   -6.760665    1.371021
     94          7           0        6.515209    1.162674    2.371669
     95          6           0        6.094603    0.310105    3.329523
     96          6           0        6.136054    1.068373    4.589479
     97          6           0        6.458025    2.486457    4.273147
     98          6           0        6.400628    2.453193    2.825499
     99          6           0        5.961906    0.423089    5.933619
    100          6           0        6.754320    3.678529    5.131847
    101          8           0        6.772003    4.866716    4.651485
    102          6           0        6.930924    3.423651    6.568972
    103          7           0        6.249850    2.721965   -0.217819
    104          6           0        6.170762    3.741971    0.654684
    105          6           0        6.128048    5.070593   -0.061803
    106          6           0        6.439975    4.741851   -1.595497
    107          6           0        6.524645    3.201959   -1.512085
    108          6           0        4.809221    5.837080    0.036085
    109          6           0        7.616471    5.512155   -2.255174
    110          6           0        8.926457    5.084431   -1.633585
    111          7           0        6.823958    0.244144   -1.655934
    112          6           0        6.744119    1.105196   -2.772318
    113          6           0        6.780980    0.256018   -3.980607
    114          6           0        6.857110   -1.052077   -3.479032
    115          6           0        6.846631   -1.021578   -2.058305
    116          6           0        6.696340    0.717389   -5.324519
    117          6           0        6.933228   -2.452390   -3.828346
    118          8           0        7.061619   -3.079917   -4.878799
    119          6           0        6.678246   -3.314748   -2.517731
    120          6           0        7.739412   -4.378495   -2.447901
    121          8           0        8.933515   -4.070471   -2.287117
    122          8           0        7.149270   -5.584776   -2.364191
    123          6           0        8.160922   -6.671764   -2.281545
    124          1           0        5.085211   -1.435773    3.970784
    125          1           0        6.218299    4.515141    2.449502
    126          1           0        6.688281    2.934657   -3.609866
    127          1           0        5.544909   -4.523118    0.145697
    128          1           0        5.513709   -3.730354    2.848961
    129          1           0        3.528301   -3.450720    0.630834
    130          1           0        3.432734   -2.190861    1.879009
    131          1           0        3.236273   -3.847225    2.366341
    132          1           0        7.774100   -3.927532    2.105740
    133          1           0        8.216336   -4.329031    0.406200
    134          1           0        6.417806   -6.326673    1.345492
    135          1           0        7.338228   -5.869314    2.734199
    136          1           0        5.575088   -0.599341    5.841908
    137          1           0        5.165240    0.969608    6.449867
    138          1           0        6.868778    0.463184    6.540780
    139          1           0        6.031735    2.958999    6.966501
    140          1           0        7.223326    4.382221    7.002006
    141          1           0        7.743012    2.699567    6.698651
    142          1           0        6.891778    5.738820    0.316732
    143          1           0        5.583069    4.974768   -2.244565
    144          1           0        4.925307    6.853378    0.457676
    145          1           0        4.119346    5.254626    0.632197
    146          1           0        4.268124    5.946821   -0.902193
    147          1           0        7.519494    6.584370   -2.067827
    148          1           0        7.672572    5.376836   -3.330131
    149          1           0        8.982887    5.698495   -0.729798
    150          1           0        9.756004    5.294280   -2.305770
    151          1           0        8.888184    4.035468   -1.317542
    152          1           0        7.439094    0.169617   -5.889107
    153          1           0        6.860275    1.791141   -5.387322
    154          1           0        5.663844    0.445346   -5.559469
    155          1           0        5.676834   -3.739911   -2.595015
    156          1           0        7.946559   -7.370346   -3.096234
    157          1           0        8.093209   -7.065081   -1.249817
    158          1           0        9.192449   -6.413358   -2.490455
 ---------------------------------------------------------------------

 SCF Done:  E(RCAM-B3LYP) =  -4069.81192196     A.U. after   19 cycles

 Excitation energies and oscillator strengths:

 Excited State   1:      Singlet-A      1.6699 eV  742.45 nm  f=0.1567  <S**2>=0.000
     309 -> 315       -0.10007
     310 -> 316        0.14019
     311 -> 313       -0.39690
     312 -> 314        0.55997
 This state for optimization and/or second-order correction.
 Total Energy, E(TD-HF/TD-DFT) =  -4069.75055280
 Copying the excited state density for this state as the 1-particle RhoCI density.

 Excited State   2:      Singlet-A      1.6840 eV  736.23 nm  f=0.5802  <S**2>=0.000
     309 -> 315        0.14429
     310 -> 316        0.10120
     311 -> 313        0.55914
     312 -> 314        0.39636

 Excited State   3:      Singlet-A      2.1846 eV  567.54 nm  f=0.0765  <S**2>=0.000
     309 -> 313       -0.13450
     310 -> 314        0.62875
     312 -> 316       -0.26553

 Excited State   4:      Singlet-A      2.1934 eV  565.27 nm  f=0.1184  <S**2>=0.000
     309 -> 313        0.62646
     310 -> 314        0.13334
     311 -> 315       -0.27269

 Excited State   5:      Singlet-A      2.6464 eV  468.51 nm  f=0.0000  <S**2>=0.000
     312 -> 313        0.70710

 The electronic state is 1-A.
 Alpha  occ. eigenvalues --  -46.87859 -46.87544 -19.26416 -19.26205 -19.19150
 Alpha  occ. eigenvalues --  -19.19027 -19.18864 -19.18642 -19.18243 -19.17933
 Alpha  occ. eigenvalues --  -14.42516 -14.42370 -14.41508 -14.41246 -14.39464
 Alpha  occ. eigenvalues --  -14.39241 -14.38649 -14.38485 -10.39204 -10.38955
 Alpha  occ. eigenvalues --  -10.35496 -10.35322 -10.34465 -10.34107 -10.31832
 Alpha  occ. eigenvalues --  -10.31613 -10.31474 -10.31170 -10.30981 -10.30894
 Alpha  occ. eigenvalues --  -10.30633 -10.30566 -10.30291 -10.30258 -10.30243
 Alpha  occ. eigenvalues --  -10.30038 -10.29976 -10.29787 -10.29689 -10.29330
 Alpha  occ. eigenvalues --  -10.29310 -10.29297 -10.28842 -10.28678 -10.28547
 Alpha  occ. eigenvalues --  -10.28498 -10.28430 -10.28288 -10.28198 -10.27948
 Alpha  occ. eigenvalues --  -10.27892 -10.27852 -10.27790 -10.27642 -10.27541
 Alpha  occ. eigenvalues --  -10.27537 -10.27533 -10.27489 -10.27473 -10.27428
 Alpha  occ. eigenvalues --  -10.27386 -10.27366 -10.27361 -10.27288 -10.27246
 Alpha  occ. eigenvalues --  -10.26912 -10.26827 -10.26542 -10.26449 -10.26368
 Alpha  occ. eigenvalues --  -10.26306 -10.26206 -10.26072 -10.26061 -10.25884
 Alpha  occ. eigenvalues --  -10.25826 -10.25756 -10.25749 -10.25470 -10.25316
 Alpha  occ. eigenvalues --  -10.24895 -10.24846 -10.24761 -10.24710 -10.24659
 Alpha  occ. eigenvalues --  -10.24583  -3.16602  -3.16294  -1.91484  -1.91176
 Alpha  occ. eigenvalues --   -1.91070  -1.90912  -1.90765  -1.90602  -1.16763
 Alpha  occ. eigenvalues --   -1.16502  -1.08705  -1.08538  -1.07265  -1.06896
 Alpha  occ. eigenvalues --   -1.06811  -1.06770  -1.04648  -1.04367  -1.03820
 Alpha  occ. eigenvalues --   -1.03547  -1.03294  -1.02928  -1.02472  -1.01998
 Alpha  occ. eigenvalues --   -0.92043  -0.91863  -0.89568  -0.89392  -0.89273
 Alpha  occ. eigenvalues --   -0.88979  -0.88334  -0.88123  -0.87926  -0.87741
 Alpha  occ. eigenvalues --   -0.87685  -0.87560  -0.87328  -0.87032  -0.85064
 Alpha  occ. eigenvalues --   -0.84854  -0.83984  -0.83782  -0.83015  -0.82855
 Alpha  occ. eigenvalues --   -0.82726  -0.82520  -0.81678  -0.81470  -0.80672
 Alpha  occ. eigenvalues --   -0.80323  -0.78853  -0.78535  -0.77282  -0.77020
 Alpha  occ. eigenvalues --   -0.77018  -0.76762  -0.76005  -0.75688  -0.74952
 Alpha  occ. eigenvalues --   -0.74697  -0.72833  -0.72585  -0.71737  -0.71450
 Alpha  occ. eigenvalues --   -0.69946  -0.69666  -0.68950  -0.68690  -0.67707
 Alpha  occ. eigenvalues --   -0.67491  -0.67306  -0.67075  -0.65370  -0.65127
 Alpha  occ. eigenvalues --   -0.64927  -0.64695  -0.64651  -0.64525  -0.64321
 Alpha  occ. eigenvalues --   -0.64101  -0.62394  -0.62152  -0.60495  -0.60246
 Alpha  occ. eigenvalues --   -0.59881  -0.59646  -0.59052  -0.58876  -0.58570
 Alpha  occ. eigenvalues --   -0.58309  -0.57672  -0.57426  -0.57370  -0.57134
 Alpha  occ. eigenvalues --   -0.56374  -0.56093  -0.56085  -0.55756  -0.55583
 Alpha  occ. eigenvalues --   -0.55404  -0.55343  -0.55140  -0.54601  -0.54376
 Alpha  occ. eigenvalues --   -0.53982  -0.53749  -0.53358  -0.53297  -0.53123
 Alpha  occ. eigenvalues --   -0.53019  -0.52997  -0.52819  -0.52778  -0.52562
 Alpha  occ. eigenvalues --   -0.52477  -0.52314  -0.51968  -0.51781  -0.51699
 Alpha  occ. eigenvalues --   -0.51525  -0.51265  -0.51083  -0.50620  -0.50394
 Alpha  occ. eigenvalues --   -0.50078  -0.49977  -0.49857  -0.49768  -0.49587
 Alpha  occ. eigenvalues --   -0.49369  -0.49284  -0.49174  -0.49078  -0.48949
 Alpha  occ. eigenvalues --   -0.48672  -0.48517  -0.48507  -0.48423  -0.48279
 Alpha  occ. eigenvalues --   -0.48242  -0.47762  -0.47475  -0.47359  -0.47014
 Alpha  occ. eigenvalues --   -0.46859  -0.46641  -0.46591  -0.46421  -0.46406
 Alpha  occ. eigenvalues --   -0.46227  -0.46164  -0.45976  -0.45900  -0.45696
 Alpha  occ. eigenvalues --   -0.45251  -0.45108  -0.44652  -0.44570  -0.44395
 Alpha  occ. eigenvalues --   -0.44340  -0.44204  -0.44163  -0.44089  -0.43984
 Alpha  occ. eigenvalues --   -0.43979  -0.43831  -0.43581  -0.43455  -0.43426
 Alpha  occ. eigenvalues --   -0.43255  -0.43093  -0.42805  -0.42805  -0.42776
 Alpha  occ. eigenvalues --   -0.42709  -0.42458  -0.42071  -0.41852  -0.41772
 Alpha  occ. eigenvalues --   -0.41616  -0.41546  -0.41324  -0.41208  -0.40943
 Alpha  occ. eigenvalues --   -0.40883  -0.40851  -0.40624  -0.40624  -0.40568
 Alpha  occ. eigenvalues --   -0.40379  -0.40336  -0.40084  -0.39478  -0.39337
 Alpha  occ. eigenvalues --   -0.38523  -0.38243  -0.37847  -0.37515  -0.37374
 Alpha  occ. eigenvalues --   -0.37346  -0.37155  -0.37063  -0.36816  -0.36643
 Alpha  occ. eigenvalues --   -0.36271  -0.36099  -0.34349  -0.34135  -0.33888
 Alpha  occ. eigenvalues --   -0.33733  -0.33252  -0.33061  -0.31395  -0.31199
 Alpha  occ. eigenvalues --   -0.31100  -0.30855  -0.30104  -0.29835  -0.29507
 Alpha  occ. eigenvalues --   -0.29383  -0.29227  -0.29101  -0.24144  -0.23918
 Alpha  occ. eigenvalues --   -0.21188  -0.21002
 Alpha virt. eigenvalues --   -0.08834  -0.08682  -0.01809  -0.01573  -0.00118
 Alpha virt. eigenvalues --    0.00075   0.02136   0.02319   0.03052   0.03329
 Alpha virt. eigenvalues --    0.04639   0.04867   0.04981   0.05299   0.06064

 Mulliken charges:
               1
     1  Mg   0.838591
     2  C   -0.003272
     3  C   -0.094262
     4  C   -0.045764
     5  C   -0.063719
     6  N   -0.256777
     7  C   -0.052597
     8  C   -0.014024
     9  C   -0.086977
    10  C    0.046215
    11  C    0.104776
    12  C    0.053549
    13  C   -0.071451
    14  H    0.034883
    15  N   -0.433181
    16  C    0.168435
    17  C   -0.177122
    18  C   -0.003879
    19  C    0.148685
    20  C    0.110141
    21  C    0.012331
    22  O   -0.249531
    23  C    0.062441
    24  N   -0.341120
    25  C    0.041273
    26  C   -0.028217
    27  C   -0.024019
    28  C    0.074780
    29  C    0.076132
    30  C    0.035075
    31  C   -0.004587
    32  N   -0.310443
    33  C    0.080314
    34  C   -0.169543
    35  C    0.008284
    36  C    0.082895
    37  C    0.127303
    38  C    0.046005
    39  O   -0.188582
    40  C   -0.005339
    41  C    0.212957
    42  O   -0.257833
    43  O   -0.304528
    44  C    0.157949
    45  H   -0.017559
    46  H   -0.016687
    47  H   -0.041137
    48  H    0.000926
    49  H   -0.004166
    50  H    0.025521
    51  H    0.016652
    52  H    0.016708
    53  H    0.011116
    54  H    0.043539
    55  H    0.018198
    56  H    0.018034
    57  H    0.005791
    58  H    0.026986
    59  H    0.039695
    60  H    0.037409
    61  H    0.035811
    62  H    0.031629
    63  H    0.016606
    64  H    0.009632
    65  H    0.023331
    66  H    0.012530
    67  H    0.004919
    68  H    0.006536
    69  H    0.005088
    70  H    0.008605
    71  H    0.018683
    72  H    0.028716
    73  H    0.047636
    74  H    0.009493
    75  H    0.046087
    76  H    0.035268
    77  H    0.043076
    78  H    0.046291
    79  H    0.052791
    80  Mg   0.837966
    81  C   -0.016776
    82  C   -0.087609
    83  C   -0.045825
    84  C   -0.064990
    85  N   -0.254669
    86  C   -0.049309
    87  C   -0.015214
    88  C   -0.090600
    89  C    0.045909
    90  C    0.114348
    91  C    0.062491
    92  C   -0.077847
    93  H    0.034359
    94  N   -0.423482
    95  C    0.162881
    96  C   -0.174731
    97  C   -0.008180
    98  C    0.152227
    99  C    0.099477
   100  C    0.015283
   101  O   -0.253622
   102  C    0.061308
   103  N   -0.350057
   104  C    0.037627
   105  C   -0.019829
   106  C   -0.034801
   107  C    0.088999
   108  C    0.073694
   109  C    0.034788
   110  C   -0.007611
   111  N   -0.324152
   112  C    0.078612
   113  C   -0.163244
   114  C    0.002399
   115  C    0.096209
   116  C    0.131471
   117  C    0.042371
   118  O   -0.187881
   119  C    0.000951
   120  C    0.211183
   121  O   -0.251356
   122  O   -0.305228
   123  C    0.152142
   124  H   -0.019361
   125  H   -0.016038
   126  H   -0.040697
   127  H    0.000288
   128  H   -0.004644
   129  H    0.023817
   130  H    0.014521
   131  H    0.017734
   132  H    0.013540
   133  H    0.037367
   134  H    0.021644
   135  H    0.019398
   136  H    0.008932
   137  H    0.025567
   138  H    0.039445
   139  H    0.037904
   140  H    0.035927
   141  H    0.033910
   142  H    0.014094
   143  H    0.012494
   144  H    0.024669
   145  H    0.011563
   146  H    0.005939
   147  H    0.006042
   148  H    0.003559
   149  H    0.010757
   150  H    0.017714
   151  H    0.030240
   152  H    0.045827
   153  H    0.008283
   154  H    0.046982
   155  H    0.036052
   156  H    0.043976
   157  H    0.049657
   158  H    0.053216
 Sum of Mulliken charges =  -0.00000

 Dipole moment (field-independent basis, Debye):
    X=             -4.6243    Y=              2.0295    Z=              6.4104  Tot=              8.1606
 Quadrupole moment (field-independent basis, Debye-Ang):
   XX=           -518.0594   YY=           -529.7873   ZZ=           -469.7658
   XY=            -18.0385   XZ=              3.9348   YZ=            -28.7943

 Normal termination of Gaussian 16 at Sat Sep 11 16:27:53 2021.
