 Gaussian 16, Revision A.03,
 Gaussian 16:  ES64L-G16RevA.03 25-Dec-2016

 -----------------------------------
 #p cam-b3lyp/Def2SVP td=(nstates=5)
 -----------------------------------

 --------------------------------
 TDDFT excited states in gaussian
 --------------------------------
 Symbolic Z-matrix:
 Charge =  0 Multiplicity = 1

                         Standard orientation:
 ---------------------------------------------------------------------
 Center     Atomic      Atomic             Coordinates (Angstroms)
 Number     Number       Type             X           Y           Z
 ---------------------------------------------------------------------
      1         12           0       15.937496   -0.645934   -0.050848
      2          6           0       16.108020    2.836247   -0.861744
      3          6           0       16.823446    0.204469    3.132699
      4          6           0       16.236769   -3.740075    0.576326
      5          6           0       16.185169   -1.301890   -3.464649
      6          7           0       16.380420    1.306612    0.893625
      7          6           0       16.351863    2.572203    0.487873
      8          6           0       16.530819    3.597015    1.647661
      9          6           0       17.296828    2.665630    2.690614
     10          6           0       16.776526    1.313269    2.236378
     11          6           0       18.813295    2.688212    2.528380
     12          6           0       15.160183    4.091915    2.220517
     13          6           0       15.236932    5.326351    3.123640
     14          1           0       14.153299    6.296374    3.077346
     15          7           0       15.974411   -1.605508    1.675624
     16          6           0       16.346339   -1.099086    2.875829
     17          6           0       16.200787   -2.204365    3.847351
     18          6           0       15.895958   -3.445352    3.082417
     19          6           0       16.051402   -2.979196    1.728197
     20          6           0       16.301901   -2.015421    5.329858
     21          6           0       15.533904   -4.834018    3.505094
     22          8           0       15.537785   -5.816717    2.687254
     23          6           0       15.256749   -5.032975    4.939194
     24          7           0       16.397248   -2.298119   -1.241036
     25          6           0       16.404428   -3.534867   -0.731736
     26          6           0       16.478238   -4.570682   -1.814132
     27          6           0       16.274431   -3.787140   -3.190460
     28          6           0       16.196111   -2.344974   -2.631628
     29          6           0       17.779830   -5.381834   -1.876579
     30          6           0       15.136843   -4.281119   -4.119059
     31          6           0       13.795422   -4.016178   -3.472921
     32          7           0       15.938069    0.529081   -1.875782
     33          6           0       16.075297    0.050360   -3.186762
     34          6           0       16.125336    1.227380   -4.073434
     35          6           0       16.029786    2.316580   -3.209514
     36          6           0       15.953020    1.850207   -1.866050
     37          6           0       16.303139    1.200538   -5.484852
     38          6           0       15.999485    3.766550   -3.106932
     39          8           0       15.938350    4.692134   -3.917519
     40          6           0       16.171639    4.164162   -1.574583
     41          6           0       15.118241    5.187887   -1.249545
     42          8           0       13.908142    4.882888   -1.249681
     43          8           0       15.706029    6.291172   -0.761888
     44          6           0       14.714353    7.335951   -0.391526
     45          1           0       17.322549    0.325336    4.096146
     46          1           0       16.234123   -4.819979    0.738308
     47          1           0       16.176522   -1.430941   -4.548496
     48          1           0       17.146093    4.461911    1.399033
     49          1           0       16.988876    2.864908    3.716857
     50          1           0       19.110490    3.241745    1.637764
     51          1           0       19.112656    1.643283    2.444720
     52          1           0       19.293850    3.066220    3.431128
     53          1           0       14.785061    3.361005    2.936838
     54          1           0       14.449914    4.278634    1.414305
     55          1           0       16.201550    5.826676    3.033667
     56          1           0       15.200148    4.993449    4.160956
     57          1           0       16.696327   -1.031925    5.582265
     58          1           0       17.059256   -2.712094    5.688702
     59          1           0       15.355100   -2.210006    5.833878
     60          1           0       16.134098   -4.744814    5.518650
     61          1           0       14.928607   -6.066762    5.041450
     62          1           0       14.455015   -4.358283    5.240793
     63          1           0       15.685700   -5.309573   -1.703003
     64          1           0       17.165116   -3.824454   -3.818124
     65          1           0       17.628495   -6.458979   -1.802008
     66          1           0       18.438339   -5.023769   -1.085727
     67          1           0       18.388060   -5.202567   -2.762771
     68          1           0       15.212362   -5.357187   -4.271770
     69          1           0       15.144855   -3.805578   -5.099900
     70          1           0       13.668989   -4.874307   -2.813785
     71          1           0       13.009153   -3.984599   -4.227902
     72          1           0       13.824768   -3.125021   -2.845654
     73          1           0       15.596673    1.922065   -5.895063
     74          1           0       16.128788    0.202806   -5.887014
     75          1           0       17.346527    1.505704   -5.562775
     76          1           0       17.179064    4.564678   -1.465934
     77          1           0       14.984411    8.241720   -0.934559
     78          1           0       14.705508    7.382610    0.697579
     79          1           0       13.694763    7.179948   -0.745700
     80         12           0      -15.815245   -0.894969    0.132774
     81          6           0      -17.145865    2.401219   -0.360808
     82          6           0      -13.734922    0.457317    2.473319
     83          6           0      -14.316227   -3.688098    0.270006
     84          6           0      -17.149236   -1.747728   -2.971893
     85          7           0      -15.567283    1.174522    0.873020
     86          6           0      -16.170893    2.333389    0.656177
     87          6           0      -15.760489    3.465550    1.635654
     88          6           0      -14.318661    2.902502    2.063426
     89          6           0      -14.557318    1.412942    1.824839
     90          6           0      -13.197415    3.359664    1.145195
     91          6           0      -16.725791    3.568502    2.868378
     92          6           0      -16.570198    4.842062    3.702397
     93          1           0      -17.764190    5.431926    4.301490
     94          7           0      -14.612639   -1.640058    1.524585
     95          6           0      -13.859828   -0.947696    2.405036
     96          6           0      -13.140953   -1.955645    3.199663
     97          6           0      -13.404945   -3.295260    2.607669
     98          6           0      -14.120318   -2.915996    1.405796
     99          6           0      -12.367728   -1.613857    4.440128
    100          6           0      -13.058331   -4.686626    3.043750
    101          8           0      -13.180148   -5.689499    2.254931
    102          6           0      -12.484113   -4.827883    4.389784
    103          7           0      -15.557441   -2.426225   -1.249667
    104          6           0      -14.908356   -3.555828   -0.917098
    105          6           0      -15.086036   -4.618686   -1.974993
    106          6           0      -16.193789   -4.046848   -2.976730
    107          6           0      -16.409462   -2.653297   -2.346722
    108          6           0      -13.829996   -4.989131   -2.763360
    109          6           0      -17.436977   -4.941207   -3.236071
    110          6           0      -18.266639   -5.049403   -1.976967
    111          7           0      -17.098442    0.055178   -1.322798
    112          6           0      -17.511813   -0.469470   -2.566964
    113          6           0      -18.280657    0.589623   -3.252260
    114          6           0      -18.241386    1.673365   -2.362071
    115          6           0      -17.483311    1.321751   -1.212643
    116          6           0      -18.858210    0.491315   -4.549521
    117          6           0      -18.659881    3.038428   -2.138084
    118          8           0      -19.395932    3.829106   -2.726985
    119          6           0      -17.862682    3.612871   -0.888743
    120          6           0      -18.849957    4.293763    0.019104
    121          8           0      -19.733923    3.637344    0.597316
    122          8           0      -18.456232    5.563819    0.224791
    123          6           0      -19.397918    6.277215    1.128184
    124          1           0      -12.886253    0.814313    3.057436
    125          1           0      -13.912118   -4.702125    0.313729
    126          1           0      -17.680776   -1.968026   -3.900130
    127          1           0      -15.657891    4.443906    1.181704
    128          1           0      -14.116223    3.092722    3.114228
    129          1           0      -13.573424    3.893389    0.285015
    130          1           0      -12.684026    2.458437    0.836548
    131          1           0      -12.465138    3.946125    1.707492
    132          1           0      -16.434567    2.818333    3.614828
    133          1           0      -17.748009    3.459860    2.561957
    134          1           0      -15.983994    5.607838    3.180003
    135          1           0      -15.974807    4.606441    4.587832
    136          1           0      -12.214893   -0.531573    4.533435
    137          1           0      -11.358918   -2.020433    4.310277
    138          1           0      -12.808212   -2.042917    5.342646
    139          1           0      -11.574764   -4.235572    4.458452
    140          1           0      -12.386117   -5.902673    4.554366
    141          1           0      -13.188669   -4.408236    5.116507
    142          1           0      -15.449164   -5.541303   -1.539090
    143          1           0      -15.784035   -3.876691   -3.983203
    144          1           0      -13.582400   -6.066079   -2.709090
    145          1           0      -13.007159   -4.390762   -2.395348
    146          1           0      -13.853111   -4.725588   -3.819393
    147          1           0      -17.125989   -5.957266   -3.491106
    148          1           0      -18.064858   -4.583873   -4.045442
    149          1           0      -17.764904   -5.845272   -1.418460
    150          1           0      -19.292593   -5.321635   -2.216456
    151          1           0      -18.196705   -4.132936   -1.379599
    152          1           0      -19.847121    0.925163   -4.483748
    153          1           0      -18.898092   -0.541359   -4.889754
    154          1           0      -18.144898    1.086230   -5.126180
    155          1           0      -17.111537    4.305771   -1.269855
    156          1           0      -19.730170    7.175413    0.598521
    157          1           0      -18.847521    6.426093    2.076157
    158          1           0      -20.344979    5.797164    1.345177
 ---------------------------------------------------------------------

 SCF Done:  E(RCAM-B3LYP) =  -4069.81177195     A.U. after   19 cycles

 Excitation energies and oscillator strengths:

 Excited State   1:      Singlet-A      1.6754 eV  740.03 nm  f=0.2724  <S**2>=0.000
     310 -> 316        0.17023
     311 -> 314       -0.13370
     312 -> 313        0.67290
     310 <- 316        0.10262
 This state for optimization and/or second-order correction.
 Total Energy, E(TD-HF/TD-DFT) =  -4069.75020209
 Copying the excited state density for this state as the 1-particle RhoCI density.

 Excited State   2:      Singlet-A      1.6800 eV  738.00 nm  f=0.5066  <S**2>=0.000
     309 -> 315        0.17223
     311 -> 314        0.67254
     312 -> 313        0.13365
     309 <- 315        0.10313

 Excited State   3:      Singlet-A      2.1861 eV  567.15 nm  f=0.0951  <S**2>=0.000
     310 -> 313        0.64210
     312 -> 316       -0.27295

 Excited State   4:      Singlet-A      2.1926 eV  565.48 nm  f=0.1050  <S**2>=0.000
     309 -> 314        0.64032
     311 -> 315       -0.27816

 Excited State   5:      Singlet-A      3.0629 eV  404.79 nm  f=0.0000  <S**2>=0.000
     312 -> 314        0.70710

 The electronic state is 1-A.
 Alpha  occ. eigenvalues --  -46.87812 -46.87660 -19.26350 -19.26302 -19.19162
 Alpha  occ. eigenvalues --  -19.19038 -19.18830 -19.18714 -19.18185 -19.18052
 Alpha  occ. eigenvalues --  -14.42497 -14.42466 -14.41465 -14.41359 -14.39418
 Alpha  occ. eigenvalues --  -14.39352 -14.38602 -14.38600 -10.39098 -10.39091
 Alpha  occ. eigenvalues --  -10.35463 -10.35392 -10.34405 -10.34229 -10.31757
 Alpha  occ. eigenvalues --  -10.31699 -10.31421 -10.31309 -10.31023 -10.30925
 Alpha  occ. eigenvalues --  -10.30585 -10.30523 -10.30398 -10.30361 -10.30222
 Alpha  occ. eigenvalues --  -10.30141 -10.29935 -10.29895 -10.29646 -10.29437
 Alpha  occ. eigenvalues --  -10.29401 -10.29270 -10.28766 -10.28719 -10.28655
 Alpha  occ. eigenvalues --  -10.28559 -10.28405 -10.28380 -10.28139 -10.28133
 Alpha  occ. eigenvalues --  -10.28001 -10.27808 -10.27743 -10.27669 -10.27600
 Alpha  occ. eigenvalues --  -10.27518 -10.27514 -10.27497 -10.27484 -10.27468
 Alpha  occ. eigenvalues --  -10.27465 -10.27463 -10.27419 -10.27375 -10.27174
 Alpha  occ. eigenvalues --  -10.27051 -10.26724 -10.26693 -10.26426 -10.26415
 Alpha  occ. eigenvalues --  -10.26250 -10.26197 -10.26138 -10.26034 -10.26022
 Alpha  occ. eigenvalues --  -10.25935 -10.25858 -10.25852 -10.25448 -10.25395
 Alpha  occ. eigenvalues --  -10.24873 -10.24848 -10.24803 -10.24732 -10.24701
 Alpha  occ. eigenvalues --  -10.24690  -3.16555  -3.16410  -1.91436  -1.91293
 Alpha  occ. eigenvalues --   -1.91023  -1.90881  -1.90865  -1.90718  -1.16651
 Alpha  occ. eigenvalues --   -1.16644  -1.08659  -1.08643  -1.07231  -1.06967
 Alpha  occ. eigenvalues --   -1.06946  -1.06661  -1.04597  -1.04495  -1.03776
 Alpha  occ. eigenvalues --   -1.03663  -1.03249  -1.03039  -1.02426  -1.02112
 Alpha  occ. eigenvalues --   -0.91988  -0.91987  -0.89534  -0.89495  -0.89204
 Alpha  occ. eigenvalues --   -0.89151  -0.88301  -0.88220  -0.87885  -0.87794
 Alpha  occ. eigenvalues --   -0.87689  -0.87684  -0.87289  -0.87120  -0.84999
 Alpha  occ. eigenvalues --   -0.84999  -0.83951  -0.83876  -0.82982  -0.82932
 Alpha  occ. eigenvalues --   -0.82665  -0.82653  -0.81602  -0.81597  -0.80612
 Alpha  occ. eigenvalues --   -0.80443  -0.78813  -0.78636  -0.77234  -0.77144
 Alpha  occ. eigenvalues --   -0.76951  -0.76898  -0.75939  -0.75838  -0.74912
 Alpha  occ. eigenvalues --   -0.74803  -0.72789  -0.72699  -0.71687  -0.71581
 Alpha  occ. eigenvalues --   -0.69921  -0.69758  -0.68889  -0.68827  -0.67657
 Alpha  occ. eigenvalues --   -0.67602  -0.67237  -0.67200  -0.65303  -0.65272
 Alpha  occ. eigenvalues --   -0.64869  -0.64770  -0.64654  -0.64637  -0.64284
 Alpha  occ. eigenvalues --   -0.64204  -0.62314  -0.62279  -0.60457  -0.60340
 Alpha  occ. eigenvalues --   -0.59820  -0.59796  -0.59003  -0.58993  -0.58519
 Alpha  occ. eigenvalues --   -0.58426  -0.57601  -0.57555  -0.57324  -0.57237
 Alpha  occ. eigenvalues --   -0.56325  -0.56205  -0.55996  -0.55887  -0.55536
 Alpha  occ. eigenvalues --   -0.55452  -0.55354  -0.55248  -0.54539  -0.54488
 Alpha  occ. eigenvalues --   -0.53912  -0.53912  -0.53314  -0.53238  -0.53228
 Alpha  occ. eigenvalues --   -0.53142  -0.52931  -0.52903  -0.52772  -0.52668
 Alpha  occ. eigenvalues --   -0.52452  -0.52402  -0.51930  -0.51886  -0.51659
 Alpha  occ. eigenvalues --   -0.51633  -0.51211  -0.51202  -0.50588  -0.50475
 Alpha  occ. eigenvalues --   -0.50046  -0.49979  -0.49934  -0.49867  -0.49531
 Alpha  occ. eigenvalues --   -0.49488  -0.49230  -0.49202  -0.49112  -0.49104
 Alpha  occ. eigenvalues --   -0.48609  -0.48558  -0.48476  -0.48461  -0.48376
 Alpha  occ. eigenvalues --   -0.48339  -0.47710  -0.47595  -0.47312  -0.47118
 Alpha  occ. eigenvalues --   -0.46812  -0.46709  -0.46572  -0.46554  -0.46374
 Alpha  occ. eigenvalues --   -0.46271  -0.46178  -0.46086  -0.45838  -0.45823
 Alpha  occ. eigenvalues --   -0.45215  -0.45208  -0.44594  -0.44523  -0.44514
 Alpha  occ. eigenvalues --   -0.44476  -0.44160  -0.44127  -0.44104  -0.44078
 Alpha  occ. eigenvalues --   -0.44035  -0.43939  -0.43554  -0.43511  -0.43401
 Alpha  occ. eigenvalues --   -0.43386  -0.43042  -0.42931  -0.42901  -0.42715
 Alpha  occ. eigenvalues --   -0.42670  -0.42554  -0.42025  -0.41965  -0.41719
 Alpha  occ. eigenvalues --   -0.41669  -0.41550  -0.41459  -0.41156  -0.40989
 Alpha  occ. eigenvalues --   -0.40885  -0.40839  -0.40722  -0.40698  -0.40586
 Alpha  occ. eigenvalues --   -0.40493  -0.40252  -0.40227  -0.39455  -0.39426
 Alpha  occ. eigenvalues --   -0.38483  -0.38350  -0.37766  -0.37654  -0.37335
 Alpha  occ. eigenvalues --   -0.37280  -0.37266  -0.37199  -0.36772  -0.36730
 Alpha  occ. eigenvalues --   -0.36217  -0.36208  -0.34301  -0.34254  -0.33863
 Alpha  occ. eigenvalues --   -0.33788  -0.33202  -0.33176  -0.31360  -0.31273
 Alpha  occ. eigenvalues --   -0.31051  -0.30973  -0.30045  -0.29956  -0.29465
 Alpha  occ. eigenvalues --   -0.29337  -0.29327  -0.29212  -0.24096  -0.24036
 Alpha  occ. eigenvalues --   -0.21143  -0.21117
 Alpha virt. eigenvalues --   -0.08792  -0.08790  -0.01765  -0.01684  -0.00073
 Alpha virt. eigenvalues --   -0.00029   0.02185   0.02207   0.03104   0.03225
 Alpha virt. eigenvalues --    0.04702   0.04730   0.05080   0.05164   0.06159

 Mulliken charges:
               1
     1  Mg   0.838682
     2  C   -0.002967
     3  C   -0.094134
     4  C   -0.045858
     5  C   -0.063936
     6  N   -0.256766
     7  C   -0.052481
     8  C   -0.014015
     9  C   -0.086987
    10  C    0.046304
    11  C    0.104807
    12  C    0.053480
    13  C   -0.071793
    14  H    0.036065
    15  N   -0.433130
    16  C    0.168409
    17  C   -0.177156
    18  C   -0.003993
    19  C    0.148706
    20  C    0.110180
    21  C    0.012279
    22  O   -0.249600
    23  C    0.062481
    24  N   -0.341127
    25  C    0.041258
    26  C   -0.028186
    27  C   -0.023978
    28  C    0.074827
    29  C    0.076162
    30  C    0.035126
    31  C   -0.004505
    32  N   -0.310466
    33  C    0.080399
    34  C   -0.169711
    35  C    0.008359
    36  C    0.082974
    37  C    0.127313
    38  C    0.046117
    39  O   -0.188440
    40  C   -0.005338
    41  C    0.212883
    42  O   -0.257137
    43  O   -0.304783
    44  C    0.157698
    45  H   -0.017600
    46  H   -0.016818
    47  H   -0.041473
    48  H    0.000943
    49  H   -0.004051
    50  H    0.025484
    51  H    0.016466
    52  H    0.016664
    53  H    0.011182
    54  H    0.044098
    55  H    0.017898
    56  H    0.017941
    57  H    0.005868
    58  H    0.026845
    59  H    0.039523
    60  H    0.037358
    61  H    0.035666
    62  H    0.031468
    63  H    0.016562
    64  H    0.009482
    65  H    0.023235
    66  H    0.012550
    67  H    0.004774
    68  H    0.006394
    69  H    0.004741
    70  H    0.008787
    71  H    0.018149
    72  H    0.028955
    73  H    0.047563
    74  H    0.009126
    75  H    0.046028
    76  H    0.035166
    77  H    0.042957
    78  H    0.046390
    79  H    0.053654
    80  Mg   0.837878
    81  C   -0.016867
    82  C   -0.087767
    83  C   -0.045517
    84  C   -0.064883
    85  N   -0.254563
    86  C   -0.049821
    87  C   -0.015085
    88  C   -0.090509
    89  C    0.045747
    90  C    0.114360
    91  C    0.062512
    92  C   -0.077890
    93  H    0.034875
    94  N   -0.423509
    95  C    0.162910
    96  C   -0.174599
    97  C   -0.007808
    98  C    0.152148
    99  C    0.099357
   100  C    0.015597
   101  O   -0.253164
   102  C    0.061185
   103  N   -0.350049
   104  C    0.037550
   105  C   -0.019860
   106  C   -0.034824
   107  C    0.088922
   108  C    0.073639
   109  C    0.034743
   110  C   -0.007679
   111  N   -0.324114
   112  C    0.078446
   113  C   -0.163135
   114  C    0.002253
   115  C    0.096187
   116  C    0.131492
   117  C    0.042384
   118  O   -0.187884
   119  C    0.000929
   120  C    0.211268
   121  O   -0.251037
   122  O   -0.305623
   123  C    0.152030
   124  H   -0.019621
   125  H   -0.015550
   126  H   -0.040449
   127  H   -0.000624
   128  H   -0.004330
   129  H    0.022485
   130  H    0.014467
   131  H    0.016330
   132  H    0.013909
   133  H    0.037670
   134  H    0.020811
   135  H    0.019587
   136  H    0.008775
   137  H    0.026194
   138  H    0.039774
   139  H    0.038284
   140  H    0.036401
   141  H    0.033878
   142  H    0.014395
   143  H    0.012448
   144  H    0.025159
   145  H    0.011687
   146  H    0.005709
   147  H    0.006274
   148  H    0.003649
   149  H    0.010933
   150  H    0.017921
   151  H    0.030099
   152  H    0.045993
   153  H    0.008510
   154  H    0.046969
   155  H    0.035058
   156  H    0.043919
   157  H    0.049496
   158  H    0.053568
 Sum of Mulliken charges =  -0.00000

 Dipole moment (field-independent basis, Debye):
    X=              5.8378    Y=             -0.1197    Z=              6.4235  Tot=              8.6808
 Quadrupole moment (field-independent basis, Debye-Ang):
   XX=           -578.9998   YY=           -525.0616   ZZ=           -468.5981
   XY=              4.9365   XZ=             32.5064   YZ=             57.6061

 Normal termination of Gaussian 16 at Sun Sep 12 20:09:10 2021.
