 Gaussian 16, Revision A.03,
 Gaussian 16:  ES64L-G16RevA.03 25-Dec-2016

 -----------------------------------
 #p cam-b3lyp/Def2SVP td=(nstates=5)
 -----------------------------------

 --------------------------------
 TDDFT excited states in gaussian
 --------------------------------
 Symbolic Z-matrix:
 Charge =  0 Multiplicity = 1

                         Standard orientation:
 ---------------------------------------------------------------------
 Center     Atomic      Atomic             Coordinates (Angstroms)
 Number     Number       Type             X           Y           Z
 ---------------------------------------------------------------------
      1         12           0        5.569196    0.286216    0.516387
      2          6           0        5.720765   -2.840907   -1.218647
      3          6           0        6.661810    1.764434   -2.358354
      4          6           0        5.878516    2.986143    2.150809
      5          6           0        5.595214   -1.530792    3.490183
      6          7           0        6.088921   -0.539555   -1.470731
      7          6           0        6.046664   -1.747485   -2.024167
      8          6           0        6.307867   -1.732849   -3.560049
      9          6           0        7.129333   -0.370259   -3.662712
     10          6           0        6.568864    0.343574   -2.445239
     11          6           0        8.632714   -0.549785   -3.478000
     12          6           0        4.980712   -1.665485   -4.388211
     13          6           0        5.125703   -1.974749   -5.881090
     14          1           0        4.050398   -2.685058   -6.556759
     15          7           0        5.705840    2.154754   -0.110306
     16          6           0        6.157336    2.573223   -1.317087
     17          6           0        6.062970    4.048832   -1.298246
     18          6           0        5.699004    4.463879    0.084996
     19          6           0        5.773177    3.203660    0.779059
     20          6           0        6.259024    4.901459   -2.514116
     21          6           0        5.351361    5.788100    0.688085
     22          8           0        5.294556    5.965552    1.952940
     23          6           0        5.163248    6.908618   -0.251113
     24          7           0        5.937640    0.692647    2.530511
     25          6           0        5.965354    1.949563    2.986995
     26          6           0        5.961175    1.986092    4.486524
     27          6           0        5.678393    0.488954    4.964402
     28          6           0        5.648880   -0.199803    3.577674
     29          6           0        7.248629    2.498068    5.147094
     30          6           0        4.480014    0.270929    5.921884
     31          6           0        3.184487    0.556625    5.195879
     32          7           0        5.465771   -1.809197    1.072798
     33          6           0        5.515679   -2.340654    2.369616
     34          6           0        5.520739   -3.808945    2.234844
     35          6           0        5.489958   -4.030980    0.859490
     36          6           0        5.493624   -2.780620    0.177670
     37          6           0        5.609025   -4.743643    3.303946
     38          6           0        5.479700   -5.033742   -0.193230
     39          8           0        5.376260   -6.260945   -0.220888
     40          6           0        5.751735   -4.304531   -1.582502
     41          6           0        4.730495   -4.806170   -2.566746
     42          8           0        3.519998   -4.537659   -2.425445
     43          8           0        5.358095   -5.315666   -3.637761
     44          6           0        4.401502   -5.804622   -4.666355
     45          1           0        7.221714    2.304577   -3.124313
     46          1           0        5.876010    3.894026    2.757587
     47          1           0        5.517109   -2.163178    4.376434
     48          1           0        6.914296   -2.561616   -3.925854
     49          1           0        6.888508    0.182706   -4.570431
     50          1           0        8.878367   -1.568213   -3.177369
     51          1           0        8.916455    0.156472   -2.697496
     52          1           0        9.172683   -0.240008   -4.373125
     53          1           0        4.644658   -0.630157   -4.445007
     54          1           0        4.222842   -2.320064   -3.956373
     55          1           0        6.087362   -2.439597   -6.100266
     56          1           0        5.151231   -1.030238   -6.424641
     57          1           0        6.677719    4.329401   -3.341152
     58          1           0        7.030950    5.631095   -2.270248
     59          1           0        5.344078    5.417647   -2.805245
     60          1           0        6.078004    7.053585   -0.826226
     61          1           0        4.832574    7.753809    0.351512
     62          1           0        4.388430    6.640532   -0.969956
     63          1           0        5.170356    2.635548    4.859670
     64          1           0        6.527386    0.063259    5.499816
     65          1           0        7.092255    3.350462    5.808666
     66          1           0        7.958956    2.741108    4.357373
     67          1           0        7.801475    1.748472    5.712677
     68          1           0        4.535727    0.961777    6.762462
     69          1           0        4.430661   -0.740149    6.326281
     70          1           0        3.091828    1.638830    5.280016
     71          1           0        2.352552    0.053943    5.690253
     72          1           0        3.261595    0.317686    4.135008
     73          1           0        4.884881   -5.527984    3.083960
     74          1           0        5.400393   -4.269473    4.262716
     75          1           0        6.648233   -5.058803    3.211327
     76          1           0        6.767693   -4.563614   -1.878858
     77          1           0        4.645252   -6.849168   -4.860633
     78          1           0        4.461713   -5.107125   -5.501985
     79          1           0        3.360217   -5.890963   -4.353928
     80         12           0       -4.996698    0.768475   -0.024346
     81          6           0       -7.684071   -1.595143    0.240965
     82          6           0       -7.140590    2.786822   -1.746151
     83          6           0       -2.536935    2.667587   -0.664945
     84          6           0       -2.808539   -1.850046    0.683439
     85          7           0       -7.114093    0.518014   -0.612696
     86          6           0       -8.050469   -0.395027   -0.403185
     87          6           0       -9.476566    0.033988   -0.841063
     88          6           0       -9.070504    1.135500   -1.936796
     89          6           0       -7.704066    1.536930   -1.385085
     90          6           0       -8.872602    0.556294   -3.327731
     91          6           0      -10.297252    0.669578    0.335588
     92          6           0      -11.794833    0.827429    0.063365
     93          1           0      -12.727109    0.642186    1.171977
     94          7           0       -4.956359    2.663219   -0.613331
     95          6           0       -5.922202    3.328549   -1.280980
     96          6           0       -5.399997    4.686951   -1.495973
     97          6           0       -3.981843    4.720971   -1.046081
     98          6           0       -3.758897    3.315801   -0.770630
     99          6           0       -6.250675    5.814886   -2.003442
    100          6           0       -2.986637    5.832201   -0.901449
    101          8           0       -1.739298    5.599639   -0.720059
    102          6           0       -3.500796    7.199020   -1.071625
    103          7           0       -2.955289    0.418976   -0.205525
    104          6           0       -2.098772    1.429327   -0.436807
    105          6           0       -0.667545    0.983913   -0.253510
    106          6           0       -0.751566   -0.478891    0.387387
    107          6           0       -2.284113   -0.670401    0.380827
    108          6           0        0.181710    0.934841   -1.523443
    109          6           0        0.016469   -0.709606    1.717639
    110          6           0       -0.624221    0.090342    2.828930
    111          7           0       -5.186998   -1.299712    0.571007
    112          6           0       -4.142055   -2.224190    0.788970
    113          6           0       -4.769176   -3.533171    1.064103
    114          6           0       -6.145952   -3.282434    0.963618
    115          6           0       -6.361088   -1.918342    0.628252
    116          6           0       -4.076550   -4.751834    1.311601
    117          6           0       -7.465900   -3.863957    1.054536
    118          8           0       -7.910824   -4.960143    1.392398
    119          6           0       -8.516763   -2.826581    0.466371
    120          6           0       -9.664389   -2.728925    1.433800
    121          8           0       -9.493430   -2.257050    2.571661
    122          8           0      -10.811226   -3.004250    0.786253
    123          6           0      -11.979579   -2.909469    1.701558
    124          1           0       -7.658648    3.394367   -2.488706
    125          1           0       -1.655065    3.304100   -0.768135
    126          1           0       -2.197361   -2.694140    1.009999
    127          1           0      -10.065212   -0.749929   -1.302326
    128          1           0       -9.752732    1.981413   -1.918136
    129          1           0       -8.922434   -0.522433   -3.325796
    130          1           0       -7.894215    0.889263   -3.648568
    131          1           0       -9.586606    1.001476   -4.026541
    132          1           0      -10.013281    1.724539    0.441266
    133          1           0      -10.151262    0.117575    1.243664
    134          1           0      -12.117964    0.249675   -0.811123
    135          1           0      -11.989386    1.866075   -0.214808
    136          1           0       -7.204391    5.450420   -2.404689
    137          1           0       -5.734877    6.238740   -2.871867
    138          1           0       -6.394992    6.601302   -1.259546
    139          1           0       -3.947602    7.296557   -2.058187
    140          1           0       -2.660636    7.857789   -0.843504
    141          1           0       -4.303957    7.363708   -0.344703
    142          1           0       -0.143635    1.638436    0.432203
    143          1           0       -0.336482   -1.243200   -0.285936
    144          1           0        1.095744    1.555153   -1.461500
    145          1           0       -0.433179    1.245951   -2.357500
    146          1           0        0.498676   -0.060881   -1.828850
    147          1           0        1.044376   -0.349488    1.628817
    148          1           0        0.064951   -1.752352    2.013136
    149          1           0       -0.183122    1.083762    2.703845
    150          1           0       -0.373821   -0.333358    3.799408
    151          1           0       -1.704738    0.187260    2.671601
    152          1           0       -4.580541   -5.233960    2.138669
    153          1           0       -3.026426   -4.574203    1.534006
    154          1           0       -4.213353   -5.252785    0.349526
    155          1           0       -8.833785   -3.198592   -0.508664
    156          1           0      -12.505344   -3.867842    1.648791
    157          1           0      -12.538205   -2.010147    1.380777
    158          1           0      -11.779230   -2.836371    2.764085
 ---------------------------------------------------------------------

 SCF Done:  E(RCAM-B3LYP) =  -4069.81249979     A.U. after   19 cycles

 Excitation energies and oscillator strengths:

 Excited State   1:      Singlet-A      1.6537 eV  749.72 nm  f=0.0042  <S**2>=0.000
     309 -> 315       -0.11202
     310 -> 316        0.12551
     311 -> 313       -0.45560
     312 -> 314        0.51457
 This state for optimization and/or second-order correction.
 Total Energy, E(TD-HF/TD-DFT) =  -4069.75172617
 Copying the excited state density for this state as the 1-particle RhoCI density.

 Excited State   2:      Singlet-A      1.6979 eV  730.22 nm  f=0.7061  <S**2>=0.000
     309 -> 315        0.13499
     310 -> 316        0.11818
     311 -> 313        0.51269
     312 -> 314        0.45387

 Excited State   3:      Singlet-A      2.1840 eV  567.69 nm  f=0.1102  <S**2>=0.000
     310 -> 314        0.64221
     312 -> 316       -0.27116

 Excited State   4:      Singlet-A      2.1967 eV  564.41 nm  f=0.0927  <S**2>=0.000
     309 -> 313        0.63961
     311 -> 315       -0.27969

 Excited State   5:      Singlet-A      2.4683 eV  502.31 nm  f=0.0000  <S**2>=0.000
     312 -> 313        0.70639

 The electronic state is 1-A.
 Alpha  occ. eigenvalues --  -46.87900 -46.87467 -19.26391 -19.26217 -19.19153
 Alpha  occ. eigenvalues --  -19.19020 -19.18744 -19.18584 -19.18239 -19.17876
 Alpha  occ. eigenvalues --  -14.42529 -14.42310 -14.41529 -14.41149 -14.39475
 Alpha  occ. eigenvalues --  -14.39166 -14.38683 -14.38401 -10.39205 -10.38946
 Alpha  occ. eigenvalues --  -10.35370 -10.35266 -10.34464 -10.34053 -10.31769
 Alpha  occ. eigenvalues --  -10.31640 -10.31494 -10.31118 -10.30967 -10.30862
 Alpha  occ. eigenvalues --  -10.30655 -10.30577 -10.30256 -10.30195 -10.30158
 Alpha  occ. eigenvalues --  -10.30001 -10.29917 -10.29680 -10.29671 -10.29303
 Alpha  occ. eigenvalues --  -10.29244 -10.29207 -10.28822 -10.28612 -10.28576
 Alpha  occ. eigenvalues --  -10.28546 -10.28432 -10.28229 -10.28185 -10.27992
 Alpha  occ. eigenvalues --  -10.27847 -10.27809 -10.27795 -10.27617 -10.27560
 Alpha  occ. eigenvalues --  -10.27499 -10.27484 -10.27477 -10.27444 -10.27338
 Alpha  occ. eigenvalues --  -10.27298 -10.27285 -10.27242 -10.27178 -10.27126
 Alpha  occ. eigenvalues --  -10.26885 -10.26799 -10.26566 -10.26330 -10.26290
 Alpha  occ. eigenvalues --  -10.26264 -10.26222 -10.26092 -10.25911 -10.25891
 Alpha  occ. eigenvalues --  -10.25834 -10.25684 -10.25547 -10.25463 -10.25169
 Alpha  occ. eigenvalues --  -10.24898 -10.24849 -10.24826 -10.24681 -10.24496
 Alpha  occ. eigenvalues --  -10.24466  -3.16639  -3.16217  -1.91522  -1.91107
 Alpha  occ. eigenvalues --   -1.91099  -1.90949  -1.90687  -1.90524  -1.16743
 Alpha  occ. eigenvalues --   -1.16509  -1.08703  -1.08485  -1.07137  -1.06840
 Alpha  occ. eigenvalues --   -1.06804  -1.06769  -1.04656  -1.04313  -1.03832
 Alpha  occ. eigenvalues --   -1.03468  -1.03307  -1.02832  -1.02486  -1.01912
 Alpha  occ. eigenvalues --   -0.92048  -0.91801  -0.89592  -0.89261  -0.89255
 Alpha  occ. eigenvalues --   -0.88994  -0.88352  -0.87979  -0.87937  -0.87741
 Alpha  occ. eigenvalues --   -0.87570  -0.87489  -0.87263  -0.86965  -0.85043
 Alpha  occ. eigenvalues --   -0.84838  -0.84007  -0.83641  -0.82938  -0.82779
 Alpha  occ. eigenvalues --   -0.82671  -0.82492  -0.81662  -0.81423  -0.80649
 Alpha  occ. eigenvalues --   -0.80269  -0.78819  -0.78454  -0.77277  -0.77007
 Alpha  occ. eigenvalues --   -0.76960  -0.76711  -0.75991  -0.75671  -0.74957
 Alpha  occ. eigenvalues --   -0.74588  -0.72839  -0.72490  -0.71735  -0.71390
 Alpha  occ. eigenvalues --   -0.69986  -0.69492  -0.68924  -0.68662  -0.67690
 Alpha  occ. eigenvalues --   -0.67417  -0.67256  -0.67057  -0.65361  -0.65109
 Alpha  occ. eigenvalues --   -0.64928  -0.64688  -0.64571  -0.64472  -0.64338
 Alpha  occ. eigenvalues --   -0.63967  -0.62384  -0.62101  -0.60458  -0.60162
 Alpha  occ. eigenvalues --   -0.59872  -0.59629  -0.59055  -0.58793  -0.58568
 Alpha  occ. eigenvalues --   -0.58233  -0.57670  -0.57380  -0.57361  -0.57035
 Alpha  occ. eigenvalues --   -0.56358  -0.56059  -0.56011  -0.55731  -0.55528
 Alpha  occ. eigenvalues --   -0.55414  -0.55295  -0.55028  -0.54607  -0.54276
 Alpha  occ. eigenvalues --   -0.53965  -0.53759  -0.53346  -0.53235  -0.53044
 Alpha  occ. eigenvalues --   -0.52989  -0.52969  -0.52734  -0.52731  -0.52538
 Alpha  occ. eigenvalues --   -0.52516  -0.52142  -0.51986  -0.51653  -0.51636
 Alpha  occ. eigenvalues --   -0.51511  -0.51269  -0.51006  -0.50513  -0.50337
 Alpha  occ. eigenvalues --   -0.50081  -0.49921  -0.49822  -0.49656  -0.49536
 Alpha  occ. eigenvalues --   -0.49336  -0.49258  -0.49152  -0.49039  -0.48928
 Alpha  occ. eigenvalues --   -0.48663  -0.48518  -0.48423  -0.48389  -0.48197
 Alpha  occ. eigenvalues --   -0.48151  -0.47734  -0.47417  -0.47329  -0.46938
 Alpha  occ. eigenvalues --   -0.46867  -0.46617  -0.46501  -0.46423  -0.46390
 Alpha  occ. eigenvalues --   -0.46236  -0.46065  -0.45899  -0.45867  -0.45621
 Alpha  occ. eigenvalues --   -0.45259  -0.45003  -0.44650  -0.44524  -0.44357
 Alpha  occ. eigenvalues --   -0.44281  -0.44200  -0.44148  -0.44028  -0.43967
 Alpha  occ. eigenvalues --   -0.43877  -0.43784  -0.43569  -0.43449  -0.43375
 Alpha  occ. eigenvalues --   -0.43207  -0.43090  -0.42786  -0.42772  -0.42736
 Alpha  occ. eigenvalues --   -0.42702  -0.42334  -0.42088  -0.41770  -0.41753
 Alpha  occ. eigenvalues --   -0.41596  -0.41485  -0.41284  -0.41201  -0.40940
 Alpha  occ. eigenvalues --   -0.40812  -0.40779  -0.40637  -0.40589  -0.40525
 Alpha  occ. eigenvalues --   -0.40287  -0.40253  -0.40097  -0.39527  -0.39145
 Alpha  occ. eigenvalues --   -0.38536  -0.38124  -0.37822  -0.37502  -0.37387
 Alpha  occ. eigenvalues --   -0.37337  -0.37048  -0.37017  -0.36814  -0.36609
 Alpha  occ. eigenvalues --   -0.36276  -0.36007  -0.34365  -0.34058  -0.33894
 Alpha  occ. eigenvalues --   -0.33711  -0.33261  -0.32977  -0.31290  -0.31142
 Alpha  occ. eigenvalues --   -0.31090  -0.30783  -0.30104  -0.29779  -0.29491
 Alpha  occ. eigenvalues --   -0.29387  -0.29152  -0.29016  -0.24160  -0.23837
 Alpha  occ. eigenvalues --   -0.21194  -0.20920
 Alpha virt. eigenvalues --   -0.08827  -0.08603  -0.01814  -0.01499  -0.00063
 Alpha virt. eigenvalues --    0.00126   0.02118   0.02212   0.02459   0.03414
 Alpha virt. eigenvalues --    0.04640   0.04902   0.04979   0.05313   0.06042

 Mulliken charges:
               1
     1  Mg   0.830690
     2  C   -0.003067
     3  C   -0.093286
     4  C   -0.045203
     5  C   -0.063671
     6  N   -0.256536
     7  C   -0.053546
     8  C   -0.013699
     9  C   -0.087016
    10  C    0.046355
    11  C    0.104714
    12  C    0.053120
    13  C   -0.071942
    14  H    0.036091
    15  N   -0.434197
    16  C    0.168508
    17  C   -0.176244
    18  C   -0.002925
    19  C    0.148681
    20  C    0.110047
    21  C    0.014721
    22  O   -0.248909
    23  C    0.061404
    24  N   -0.340239
    25  C    0.040545
    26  C   -0.028486
    27  C   -0.024043
    28  C    0.073693
    29  C    0.076088
    30  C    0.035575
    31  C   -0.006751
    32  N   -0.310376
    33  C    0.078613
    34  C   -0.170847
    35  C    0.008099
    36  C    0.081125
    37  C    0.127570
    38  C    0.045377
    39  O   -0.188485
    40  C   -0.005360
    41  C    0.213372
    42  O   -0.259109
    43  O   -0.304412
    44  C    0.157575
    45  H   -0.017239
    46  H   -0.016049
    47  H   -0.041991
    48  H    0.001085
    49  H   -0.003670
    50  H    0.025611
    51  H    0.016684
    52  H    0.016981
    53  H    0.011372
    54  H    0.042825
    55  H    0.018183
    56  H    0.018412
    57  H    0.005622
    58  H    0.027069
    59  H    0.041937
    60  H    0.036147
    61  H    0.036823
    62  H    0.035479
    63  H    0.017239
    64  H    0.009779
    65  H    0.023800
    66  H    0.012723
    67  H    0.004938
    68  H    0.007302
    69  H    0.004647
    70  H    0.010806
    71  H    0.019398
    72  H    0.026038
    73  H    0.046925
    74  H    0.009034
    75  H    0.046367
    76  H    0.035560
    77  H    0.043458
    78  H    0.046638
    79  H    0.053336
    80  Mg   0.837530
    81  C   -0.017281
    82  C   -0.088310
    83  C   -0.045532
    84  C   -0.063661
    85  N   -0.254628
    86  C   -0.049765
    87  C   -0.015057
    88  C   -0.090469
    89  C    0.045682
    90  C    0.114542
    91  C    0.062587
    92  C   -0.077651
    93  H    0.034498
    94  N   -0.423278
    95  C    0.162652
    96  C   -0.175323
    97  C   -0.008465
    98  C    0.152020
    99  C    0.099661
   100  C    0.015187
   101  O   -0.254147
   102  C    0.061306
   103  N   -0.350072
   104  C    0.037468
   105  C   -0.020698
   106  C   -0.037679
   107  C    0.088248
   108  C    0.067678
   109  C    0.032604
   110  C   -0.008537
   111  N   -0.324243
   112  C    0.078240
   113  C   -0.162413
   114  C    0.002098
   115  C    0.096429
   116  C    0.131533
   117  C    0.042549
   118  O   -0.187897
   119  C    0.000903
   120  C    0.211199
   121  O   -0.251175
   122  O   -0.305644
   123  C    0.152139
   124  H   -0.020469
   125  H   -0.016369
   126  H   -0.036482
   127  H   -0.000874
   128  H   -0.004775
   129  H    0.022395
   130  H    0.014325
   131  H    0.015667
   132  H    0.013865
   133  H    0.037641
   134  H    0.020635
   135  H    0.019352
   136  H    0.008405
   137  H    0.025091
   138  H    0.039253
   139  H    0.037569
   140  H    0.035477
   141  H    0.034142
   142  H    0.013694
   143  H    0.020989
   144  H    0.025951
   145  H    0.010133
   146  H    0.012917
   147  H    0.007897
   148  H    0.008247
   149  H    0.010943
   150  H    0.017833
   151  H    0.029017
   152  H    0.045443
   153  H    0.011096
   154  H    0.048013
   155  H    0.034828
   156  H    0.043721
   157  H    0.049281
   158  H    0.053439
 Sum of Mulliken charges =  -0.00000

 Dipole moment (field-independent basis, Debye):
    X=              1.3255    Y=              6.1010    Z=             -5.5535  Tot=              8.3559
 Quadrupole moment (field-independent basis, Debye-Ang):
   XX=           -454.0361   YY=           -547.8223   ZZ=           -475.4240
   XY=            -29.5888   XZ=             11.7665   YZ=            -11.7294

 Normal termination of Gaussian 16 at Sat Sep 11 02:19:49 2021.
