 Gaussian 16, Revision A.03,
 Gaussian 16:  ES64L-G16RevA.03 25-Dec-2016

 -----------------------------------
 #p cam-b3lyp/Def2SVP td=(nstates=5)
 -----------------------------------

 --------------------------------
 TDDFT excited states in gaussian
 --------------------------------
 Symbolic Z-matrix:
 Charge =  0 Multiplicity = 1

                         Standard orientation:
 ---------------------------------------------------------------------
 Center     Atomic      Atomic             Coordinates (Angstroms)
 Number     Number       Type             X           Y           Z
 ---------------------------------------------------------------------
      1         12           0       15.597707   -0.843010    0.280102
      2          6           0       15.858428    2.311453   -1.391306
      3          6           0       16.445507    0.780601    3.159024
      4          6           0       15.818307   -3.677349    1.685263
      5          6           0       15.891396   -2.356499   -2.845399
      6          7           0       16.066309    1.278847    0.702928
      7          6           0       16.072535    2.398352   -0.013898
      8          6           0       16.253237    3.683215    0.848569
      9          6           0       16.980182    3.037906    2.112343
     10          6           0       16.438641    1.623078    2.007843
     11          6           0       18.499414    2.993047    1.984193
     12          6           0       14.883793    4.331068    1.244348
     13          6           0       14.971440    5.754384    1.802780
     14          1           0       13.910201    6.697877    1.485071
     15          7           0       15.583134   -1.328216    2.195099
     16          6           0       15.944715   -0.537160    3.233740
     17          6           0       15.757932   -1.353766    4.452325
     18          6           0       15.439706   -2.744202    4.023940
     19          6           0       15.629217   -2.643561    2.599393
     20          6           0       15.836890   -0.792652    5.838927
     21          6           0       15.040040   -3.971850    4.779772
     22          8           0       15.036970   -5.131344    4.241129
     23          6           0       14.733278   -3.791768    6.210334
     24          7           0       16.042322   -2.752534   -0.436606
     25          6           0       16.013523   -3.817257    0.372418
     26          6           0       16.083877   -5.097084   -0.406704
     27          6           0       15.921590   -4.689445   -1.942036
     28          6           0       15.864852   -3.151105   -1.773035
     29          6           0       17.368378   -5.918533   -0.229814
     30          6           0       14.790115   -5.386160   -2.738761
     31          6           0       13.443564   -4.942233   -2.212617
     32          7           0       15.656192   -0.175468   -1.784362
     33          6           0       15.806130   -0.976581   -2.925594
     34          6           0       15.897501   -0.067304   -4.082717
     35          6           0       15.810445    1.208448   -3.528892
     36          6           0       15.699767    1.103538   -2.112899
     37          6           0       16.099626   -0.458141   -5.435797
     38          6           0       15.809951    2.636532   -3.801718
     39          8           0       15.783363    3.324167   -4.823454
     40          6           0       15.963587    3.410912   -2.418766
     41          6           0       14.927171    4.501032   -2.390687
     42          8           0       13.710901    4.226253   -2.340182
     43          8           0       15.530149    5.682604   -2.188580
     44          6           0       14.555086    6.803674   -2.120690
     45          1           0       16.929998    1.136230    4.070472
     46          1           0       15.789254   -4.679402    2.118257
     47          1           0       15.899120   -2.759024   -3.859976
     48          1           0       16.891524    4.445129    0.400796
     49          1           0       16.658534    3.498763    3.046086
     50          1           0       18.824320    3.294679    0.988514
     51          1           0       18.777357    1.956806    2.177698
     52          1           0       18.972045    3.581923    2.770719
     53          1           0       14.480208    3.814608    2.115238
     54          1           0       14.192142    4.316510    0.401299
     55          1           0       15.948178    6.198881    1.609609
     56          1           0       14.909056    5.699289    2.889643
     57          1           0       16.248134    0.216021    5.839974
     58          1           0       16.572408   -1.386428    6.381286
     59          1           0       14.877300   -0.835790    6.354348
     60          1           0       15.606309   -3.379192    6.716444
     61          1           0       14.380918   -4.759187    6.566414
     62          1           0       13.941231   -3.049131    6.310846
     63          1           0       15.273577   -5.769556   -0.128098
     64          1           0       16.822218   -4.901199   -2.518841
     65          1           0       17.192300   -6.937878    0.114625
     66          1           0       18.020438   -5.380570    0.457721
     67          1           0       17.995959   -5.982609   -1.118326
     68          1           0       14.844847   -6.466501   -2.609093
     69          1           0       14.825849   -5.178259   -3.808224
     70          1           0       13.286808   -5.600417   -1.358770
     71          1           0       12.671655   -5.092326   -2.968156
     72          1           0       13.481226   -3.920627   -1.833948
     73          1           0       15.416428    0.145639   -6.033007
     74          1           0       15.910710   -1.522617   -5.572926
     75          1           0       17.150634   -0.200461   -5.565563
     76          1           0       16.977423    3.809181   -2.393461
     77          1           0       14.854395    7.535298   -2.871273
     78          1           0       14.527988    7.128212   -1.080332
     79          1           0       13.538765    6.578943   -2.446155
     80         12           0      -16.152111   -0.507763   -0.212493
     81          6           0      -13.659969    2.020774    0.311755
     82          6           0      -18.286791    1.429297    1.611117
     83          6           0      -18.224380   -2.909761   -0.271846
     84          6           0      -13.560007   -2.706767   -0.981309
     85          7           0      -15.890628    1.451561    0.779946
     86          6           0      -14.918104    2.347234    0.859436
     87          6           0      -15.339359    3.699379    1.494891
     88          6           0      -16.593445    3.181126    2.353704
     89          6           0      -16.976727    1.962958    1.515948
     90          6           0      -16.213603    2.703368    3.745400
     91          6           0      -15.776556    4.754839    0.419317
     92          6           0      -15.904173    6.188267    0.939655
     93          1           0      -15.532822    7.286652    0.051887
     94          7           0      -18.108323   -0.524780    0.121425
     95          6           0      -18.814095    0.350643    0.867619
     96          6           0      -20.210366   -0.109539    0.814511
     97          6           0      -20.245644   -1.420902    0.111798
     98          6           0      -18.827314   -1.685029   -0.024761
     99          6           0      -21.357856    0.711804    1.326445
    100          6           0      -21.369834   -2.298825   -0.348267
    101          8           0      -21.169481   -3.507446   -0.724992
    102          6           0      -22.723556   -1.732723   -0.256338
    103          7           0      -15.918630   -2.567875   -0.366605
    104          6           0      -16.986931   -3.382465   -0.422221
    105          6           0      -16.583538   -4.785533   -0.808288
    106          6           0      -15.046218   -4.687708   -1.237985
    107          6           0      -14.791041   -3.196464   -0.927371
    108          6           0      -16.740757   -5.846401    0.280859
    109          6           0      -14.674038   -5.223283   -2.647713
    110          6           0      -15.290466   -4.345138   -3.712731
    111          7           0      -14.016805   -0.353916   -0.503804
    112          6           0      -13.117704   -1.403436   -0.793991
    113          6           0      -11.757814   -0.826331   -0.786406
    114          6           0      -11.959787    0.524882   -0.467121
    115          6           0      -13.345758    0.768041   -0.268495
    116          6           0      -10.548230   -1.544230   -1.004673
    117          6           0      -11.314676    1.798490   -0.242507
    118          8           0      -10.165040    2.221868   -0.355667
    119          6           0      -12.374571    2.796190    0.395948
    120          6           0      -12.292792    4.100084   -0.349505
    121          8           0      -12.616011    4.163889   -1.548696
    122          8           0      -12.056640    5.094111    0.525997
    123          6           0      -11.978042    6.408996   -0.164459
    124          1           0      -18.964722    1.847904    2.355467
    125          1           0      -18.906573   -3.751616   -0.411031
    126          1           0      -12.707248   -3.305797   -1.307864
    127          1           0      -14.599036    4.144083    2.149051
    128          1           0      -17.398984    3.910834    2.356332
    129          1           0      -15.143076    2.680764    3.885380
    130          1           0      -16.628395    1.708181    3.838178
    131          1           0      -16.716456    3.311297    4.502960
    132          1           0      -16.819376    4.564847    0.134408
    133          1           0      -15.115482    4.734485   -0.425191
    134          1           0      -15.434470    6.313219    1.922871
    135          1           0      -16.961183    6.399600    1.118784
    136          1           0      -21.009035    1.553567    1.937311
    137          1           0      -21.915465    0.080620    2.026841
    138          1           0      -22.031293    1.036870    0.530540
    139          1           0      -22.932046   -1.461021    0.775737
    140          1           0      -23.381910   -2.473812   -0.713762
    141          1           0      -22.755091   -0.804985   -0.838517
    142          1           0      -17.163090   -5.135793   -1.653595
    143          1           0      -14.397016   -5.264816   -0.563215
    144          1           0      -17.386325   -6.691862   -0.023285
    145          1           0      -17.133137   -5.368553    1.168681
    146          1           0      -15.809209   -6.277806    0.643227
    147          1           0      -15.086980   -6.224448   -2.793640
    148          1           0      -13.604334   -5.288385   -2.816485
    149          1           0      -16.309876   -4.734170   -3.793764
    150          1           0      -14.752659   -4.448511   -4.653007
    151          1           0      -15.360533   -3.305168   -3.373332
    152          1           0       -9.938944   -0.935810   -1.659731
    153          1           0      -10.740028   -2.524614   -1.435765
    154          1           0      -10.174301   -1.612579    0.020396
    155          1           0      -12.122220    2.911157    1.450785
    156          1           0      -11.013340    6.852219    0.101233
    157          1           0      -12.886997    6.961123    0.140048
    158          1           0      -11.917719    6.404096   -1.246486
 ---------------------------------------------------------------------

 SCF Done:  E(RCAM-B3LYP) =  -4069.81173309     A.U. after   19 cycles

 Excitation energies and oscillator strengths:

 Excited State   1:      Singlet-A      1.6756 eV  739.95 nm  f=0.3851  <S**2>=0.000
     309 -> 316        0.17316
     311 -> 313        0.68428
     309 <- 316        0.10437
 This state for optimization and/or second-order correction.
 Total Energy, E(TD-HF/TD-DFT) =  -4069.75015652
 Copying the excited state density for this state as the 1-particle RhoCI density.

 Excited State   2:      Singlet-A      1.6799 eV  738.05 nm  f=0.3968  <S**2>=0.000
     310 -> 315        0.17509
     312 -> 314        0.68394
     310 <- 315        0.10485

 Excited State   3:      Singlet-A      2.1861 eV  567.15 nm  f=0.0944  <S**2>=0.000
     309 -> 313        0.64200
     311 -> 316       -0.27295

 Excited State   4:      Singlet-A      2.1925 eV  565.50 nm  f=0.1056  <S**2>=0.000
     310 -> 314        0.64025
     312 -> 315       -0.27808

 Excited State   5:      Singlet-A      3.0465 eV  406.98 nm  f=0.0000  <S**2>=0.000
     312 -> 313        0.70708

 The electronic state is 1-A.
 Alpha  occ. eigenvalues --  -46.87732 -46.87660 -19.26344 -19.26214 -19.19155
 Alpha  occ. eigenvalues --  -19.18948 -19.18752 -19.18714 -19.18104 -19.18047
 Alpha  occ. eigenvalues --  -14.42497 -14.42385 -14.41385 -14.41358 -14.39351
 Alpha  occ. eigenvalues --  -14.39338 -14.38598 -14.38522 -10.39085 -10.39009
 Alpha  occ. eigenvalues --  -10.35391 -10.35386 -10.34324 -10.34224 -10.31749
 Alpha  occ. eigenvalues --  -10.31607 -10.31340 -10.31308 -10.31023 -10.30844
 Alpha  occ. eigenvalues --  -10.30505 -10.30443 -10.30396 -10.30359 -10.30144
 Alpha  occ. eigenvalues --  -10.30140 -10.29893 -10.29857 -10.29566 -10.29436
 Alpha  occ. eigenvalues --  -10.29399 -10.29190 -10.28719 -10.28684 -10.28653
 Alpha  occ. eigenvalues --  -10.28469 -10.28404 -10.28300 -10.28141 -10.28053
 Alpha  occ. eigenvalues --  -10.27999 -10.27729 -10.27669 -10.27663 -10.27520
 Alpha  occ. eigenvalues --  -10.27517 -10.27482 -10.27467 -10.27464 -10.27439
 Alpha  occ. eigenvalues --  -10.27419 -10.27388 -10.27376 -10.27339 -10.27092
 Alpha  occ. eigenvalues --  -10.27047 -10.26691 -10.26635 -10.26415 -10.26349
 Alpha  occ. eigenvalues --  -10.26174 -10.26135 -10.26120 -10.26028 -10.25955
 Alpha  occ. eigenvalues --  -10.25933 -10.25844 -10.25779 -10.25399 -10.25378
 Alpha  occ. eigenvalues --  -10.24870 -10.24768 -10.24727 -10.24724 -10.24689
 Alpha  occ. eigenvalues --  -10.24619  -3.16474  -3.16409  -1.91356  -1.91292
 Alpha  occ. eigenvalues --   -1.90943  -1.90880  -1.90785  -1.90717  -1.16638
 Alpha  occ. eigenvalues --   -1.16562  -1.08654  -1.08561  -1.07154  -1.06966
 Alpha  occ. eigenvalues --   -1.06940  -1.06571  -1.04516  -1.04494  -1.03696
 Alpha  occ. eigenvalues --   -1.03662  -1.03169  -1.03038  -1.02347  -1.02110
 Alpha  occ. eigenvalues --   -0.91985  -0.91907  -0.89493  -0.89455  -0.89151
 Alpha  occ. eigenvalues --   -0.89123  -0.88224  -0.88219  -0.87806  -0.87791
 Alpha  occ. eigenvalues --   -0.87683  -0.87608  -0.87210  -0.87120  -0.84999
 Alpha  occ. eigenvalues --   -0.84917  -0.83875  -0.83873  -0.82931  -0.82904
 Alpha  occ. eigenvalues --   -0.82652  -0.82584  -0.81593  -0.81519  -0.80531
 Alpha  occ. eigenvalues --   -0.80440  -0.78733  -0.78634  -0.77154  -0.77143
 Alpha  occ. eigenvalues --   -0.76897  -0.76869  -0.75858  -0.75837  -0.74835
 Alpha  occ. eigenvalues --   -0.74802  -0.72710  -0.72697  -0.71609  -0.71580
 Alpha  occ. eigenvalues --   -0.69843  -0.69756  -0.68826  -0.68808  -0.67600
 Alpha  occ. eigenvalues --   -0.67577  -0.67199  -0.67154  -0.65270  -0.65221
 Alpha  occ. eigenvalues --   -0.64788  -0.64769  -0.64652  -0.64555  -0.64205
 Alpha  occ. eigenvalues --   -0.64202  -0.62275  -0.62230  -0.60379  -0.60339
 Alpha  occ. eigenvalues --   -0.59796  -0.59740  -0.58991  -0.58923  -0.58439
 Alpha  occ. eigenvalues --   -0.58424  -0.57551  -0.57518  -0.57244  -0.57235
 Alpha  occ. eigenvalues --   -0.56245  -0.56202  -0.55910  -0.55883  -0.55456
 Alpha  occ. eigenvalues --   -0.55450  -0.55275  -0.55245  -0.54485  -0.54457
 Alpha  occ. eigenvalues --   -0.53912  -0.53830  -0.53235  -0.53226  -0.53157
 Alpha  occ. eigenvalues --   -0.53140  -0.52900  -0.52848  -0.52692  -0.52668
 Alpha  occ. eigenvalues --   -0.52398  -0.52373  -0.51881  -0.51850  -0.51658
 Alpha  occ. eigenvalues --   -0.51551  -0.51198  -0.51131  -0.50510  -0.50475
 Alpha  occ. eigenvalues --   -0.49980  -0.49968  -0.49866  -0.49855  -0.49487
 Alpha  occ. eigenvalues --   -0.49450  -0.49201  -0.49150  -0.49103  -0.49032
 Alpha  occ. eigenvalues --   -0.48556  -0.48528  -0.48399  -0.48381  -0.48375
 Alpha  occ. eigenvalues --   -0.48338  -0.47630  -0.47593  -0.47233  -0.47117
 Alpha  occ. eigenvalues --   -0.46733  -0.46708  -0.46553  -0.46490  -0.46295
 Alpha  occ. eigenvalues --   -0.46269  -0.46098  -0.46083  -0.45819  -0.45756
 Alpha  occ. eigenvalues --   -0.45208  -0.45139  -0.44512  -0.44512  -0.44475
 Alpha  occ. eigenvalues --   -0.44443  -0.44126  -0.44080  -0.44076  -0.44024
 Alpha  occ. eigenvalues --   -0.43954  -0.43938  -0.43550  -0.43428  -0.43384
 Alpha  occ. eigenvalues --   -0.43321  -0.42963  -0.42927  -0.42898  -0.42632
 Alpha  occ. eigenvalues --   -0.42588  -0.42552  -0.41962  -0.41944  -0.41667
 Alpha  occ. eigenvalues --   -0.41639  -0.41468  -0.41458  -0.41077  -0.40989
 Alpha  occ. eigenvalues --   -0.40804  -0.40760  -0.40722  -0.40698  -0.40508
 Alpha  occ. eigenvalues --   -0.40492  -0.40226  -0.40167  -0.39424  -0.39376
 Alpha  occ. eigenvalues --   -0.38405  -0.38350  -0.37681  -0.37653  -0.37265
 Alpha  occ. eigenvalues --   -0.37256  -0.37198  -0.37198  -0.36767  -0.36645
 Alpha  occ. eigenvalues --   -0.36215  -0.36126  -0.34252  -0.34221  -0.33857
 Alpha  occ. eigenvalues --   -0.33700  -0.33174  -0.33121  -0.31282  -0.31273
 Alpha  occ. eigenvalues --   -0.30972  -0.30971  -0.29963  -0.29951  -0.29385
 Alpha  occ. eigenvalues --   -0.29326  -0.29257  -0.29209  -0.24035  -0.24016
 Alpha  occ. eigenvalues --   -0.21116  -0.21063
 Alpha virt. eigenvalues --   -0.08791  -0.08710  -0.01685  -0.01683  -0.00028
 Alpha virt. eigenvalues --    0.00006   0.02210   0.02265   0.03194   0.03229
 Alpha virt. eigenvalues --    0.04731   0.04783   0.05168   0.05170   0.06184

 Mulliken charges:
               1
     1  Mg   0.838893
     2  C   -0.002915
     3  C   -0.094117
     4  C   -0.045895
     5  C   -0.063967
     6  N   -0.256778
     7  C   -0.052471
     8  C   -0.014018
     9  C   -0.087022
    10  C    0.046363
    11  C    0.104834
    12  C    0.053470
    13  C   -0.071839
    14  H    0.036263
    15  N   -0.433154
    16  C    0.168438
    17  C   -0.177159
    18  C   -0.004013
    19  C    0.148723
    20  C    0.110194
    21  C    0.012297
    22  O   -0.249666
    23  C    0.062465
    24  N   -0.341167
    25  C    0.041264
    26  C   -0.028161
    27  C   -0.023966
    28  C    0.074856
    29  C    0.076193
    30  C    0.035127
    31  C   -0.004505
    32  N   -0.310485
    33  C    0.080452
    34  C   -0.169693
    35  C    0.008359
    36  C    0.083032
    37  C    0.127299
    38  C    0.046147
    39  O   -0.188421
    40  C   -0.005352
    41  C    0.212873
    42  O   -0.256978
    43  O   -0.304850
    44  C    0.157663
    45  H   -0.017660
    46  H   -0.016880
    47  H   -0.041509
    48  H    0.000902
    49  H   -0.004029
    50  H    0.025440
    51  H    0.016403
    52  H    0.016596
    53  H    0.011259
    54  H    0.044216
    55  H    0.017789
    56  H    0.017936
    57  H    0.005851
    58  H    0.026740
    59  H    0.039594
    60  H    0.037282
    61  H    0.035613
    62  H    0.031581
    63  H    0.016564
    64  H    0.009394
    65  H    0.023160
    66  H    0.012502
    67  H    0.004692
    68  H    0.006305
    69  H    0.004722
    70  H    0.008775
    71  H    0.018223
    72  H    0.029046
    73  H    0.047635
    74  H    0.009109
    75  H    0.045936
    76  H    0.035084
    77  H    0.042909
    78  H    0.046390
    79  H    0.053814
    80  Mg   0.837895
    81  C   -0.016821
    82  C   -0.087800
    83  C   -0.045531
    84  C   -0.064877
    85  N   -0.254567
    86  C   -0.049835
    87  C   -0.015090
    88  C   -0.090494
    89  C    0.045740
    90  C    0.114386
    91  C    0.062522
    92  C   -0.077908
    93  H    0.034956
    94  N   -0.423489
    95  C    0.162908
    96  C   -0.174643
    97  C   -0.007817
    98  C    0.152114
    99  C    0.099376
   100  C    0.015577
   101  O   -0.253188
   102  C    0.061190
   103  N   -0.350092
   104  C    0.037538
   105  C   -0.019853
   106  C   -0.034821
   107  C    0.088920
   108  C    0.073671
   109  C    0.034748
   110  C   -0.007694
   111  N   -0.324127
   112  C    0.078452
   113  C   -0.163090
   114  C    0.002267
   115  C    0.096211
   116  C    0.131479
   117  C    0.042410
   118  O   -0.187742
   119  C    0.000894
   120  C    0.211286
   121  O   -0.250969
   122  O   -0.305657
   123  C    0.151994
   124  H   -0.019688
   125  H   -0.015576
   126  H   -0.040407
   127  H   -0.000660
   128  H   -0.004322
   129  H    0.022442
   130  H    0.014406
   131  H    0.016252
   132  H    0.013926
   133  H    0.037719
   134  H    0.020758
   135  H    0.019579
   136  H    0.008748
   137  H    0.026119
   138  H    0.039804
   139  H    0.038234
   140  H    0.036402
   141  H    0.033915
   142  H    0.014417
   143  H    0.012417
   144  H    0.025138
   145  H    0.011604
   146  H    0.005663
   147  H    0.006263
   148  H    0.003698
   149  H    0.010924
   150  H    0.017998
   151  H    0.030102
   152  H    0.046132
   153  H    0.008554
   154  H    0.046939
   155  H    0.035000
   156  H    0.043954
   157  H    0.049461
   158  H    0.053650
 Sum of Mulliken charges =  -0.00000

 Dipole moment (field-independent basis, Debye):
    X=             -1.3389    Y=              1.3132    Z=              7.0032  Tot=              7.2499
 Quadrupole moment (field-independent basis, Debye-Ang):
   XX=           -363.0186   YY=           -483.9235   ZZ=           -505.0640
   XY=            -34.0090   XZ=             14.8368   YZ=             49.1413

 Normal termination of Gaussian 16 at Sun Sep 12 16:49:29 2021.
