 Gaussian 16, Revision A.03,
 Gaussian 16:  ES64L-G16RevA.03 25-Dec-2016

 -----------------------------------
 #p cam-b3lyp/Def2SVP td=(nstates=5)
 -----------------------------------

 --------------------------------
 TDDFT excited states in gaussian
 --------------------------------
 Symbolic Z-matrix:
 Charge =  0 Multiplicity = 1

                         Standard orientation:
 ---------------------------------------------------------------------
 Center     Atomic      Atomic             Coordinates (Angstroms)
 Number     Number       Type             X           Y           Z
 ---------------------------------------------------------------------
      1         12           0       -7.859917   -0.711095   -0.245976
      2          6           0       -8.165648    1.958558    2.118701
      3          6           0       -8.671615    1.545129   -2.673662
      4          6           0       -8.041539   -3.133563   -2.284426
      5          6           0       -8.194096   -2.920856    2.428149
      6          7           0       -8.334273    1.449648   -0.163378
      7          6           0       -8.358441    2.368050    0.797416
      8          6           0       -8.533046    3.819963    0.259982
      9          6           0       -9.236086    3.490111   -1.132473
     10          6           0       -8.687933    2.091738   -1.356095
     11          6           0      -10.756865    3.413217   -1.044041
     12          6           0       -7.161356    4.545716    0.051470
     13          6           0       -7.248546    6.060503   -0.156311
     14          1           0       -6.198049    6.904314    0.393040
     15          7           0       -7.812184   -0.730020   -2.220871
     16          6           0       -8.161943    0.283341   -3.049155
     17          6           0       -7.951089   -0.221816   -4.422850
     18          6           0       -7.631488   -1.673466   -4.329783
     19          6           0       -7.844106   -1.912670   -2.925164
     20          6           0       -8.011403    0.650901   -5.638776
     21          6           0       -7.212681   -2.686947   -5.347422
     22          8           0       -7.211297   -3.940878   -5.097962
     23          6           0       -6.884388   -2.173315   -6.689602
     24          7           0       -8.304550   -2.736781   -0.008205
     25          6           0       -8.256676   -3.580121   -1.045254
     26          6           0       -8.331802   -5.007947   -0.591814
     27          6           0       -8.196235   -4.974326    0.998860
     28          6           0       -8.145902   -3.439507    1.199025
     29          6           0       -9.608477   -5.766890   -0.979264
     30          6           0       -7.073420   -5.837322    1.627305
     31          6           0       -5.721354   -5.278960    1.243579
     32          7           0       -7.954996   -0.550405    1.916473
     33          6           0       -8.118248   -1.598800    2.833475
     34          6           0       -8.233276   -0.988883    4.170949
     35          6           0       -8.144992    0.381779    3.935714
     36          6           0       -8.011305    0.614657    2.537077
     37          6           0       -8.454479   -1.688784    5.389819
     38          6           0       -8.157235    1.704950    4.538148
     39          8           0       -8.150873    2.131729    5.693705
     40          6           0       -8.293533    2.783883    3.374897
     41          6           0       -7.263248    3.851827    3.622518
     42          8           0       -6.044732    3.599185    3.528933
     43          8           0       -7.869909    5.046492    3.695176
     44          6           0       -6.900521    6.153795    3.910402
     45          1           0       -9.143712    2.105096   -3.483294
     46          1           0       -7.999730   -4.004863   -2.941333
     47          1           0       -8.215499   -3.551739    3.318644
     48          1           0       -9.182820    4.453220    0.864302
     49          1           0       -8.902427    4.159198   -1.925389
     50          1           0      -11.099258    3.470381   -0.010881
     51          1           0      -11.025596    2.451495   -1.481497
     52          1           0      -11.220455    4.170328   -1.677005
     53          1           0       -6.741002    4.250476   -0.909882
     54          1           0       -6.483057    4.333735    0.878695
     55          1           0       -8.230822    6.444821    0.119991
     56          1           0       -7.168649    6.263917   -1.224224
     57          1           0       -8.428520    1.630436   -5.408407
     58          1           0       -8.734733    0.200637   -6.318309
     59          1           0       -7.043540    0.732689   -6.133634
     60          1           0       -7.751719   -1.654569   -7.098489
     61          1           0       -6.520740   -3.028492   -7.258180
     62          1           0       -6.095242   -1.426384   -6.598537
     63          1           0       -7.513243   -5.593926   -1.007767
     64          1           0       -9.104613   -5.318174    1.494130
     65          1           0       -9.420964   -6.675624   -1.551756
     66          1           0      -10.252737   -5.082997   -1.531089
     67          1           0      -10.249650   -6.040354   -0.141689
     68          1           0       -7.119723   -6.856535    1.245196
     69          1           0       -7.127297   -5.888092    2.714858
     70          1           0       -5.547229   -5.716429    0.261167
     71          1           0       -4.960625   -5.601798    1.955111
     72          1           0       -5.759042   -4.196884    1.116389
     73          1           0       -7.784388   -1.241864    6.124128
     74          1           0       -8.261483   -2.755140    5.274750
     75          1           0       -9.508910   -1.471157    5.559141
     76          1           0       -9.309172    3.174834    3.427395
     77          1           0       -7.215978    6.686741    4.807447
     78          1           0       -6.858879    6.715030    2.976761
     79          1           0       -5.888170    5.860545    4.190561
     80         12           0        7.999391   -0.571388    0.300970
     81          6           0        7.565437    1.923120   -2.242278
     82          6           0        9.407337    1.859771    2.235328
     83          6           0        8.803304   -2.829712    2.379716
     84          6           0        7.629589   -2.978409   -2.192064
     85          7           0        8.380834    1.576092   -0.066564
     86          6           0        8.117105    2.427614   -1.046207
     87          6           0        8.389709    3.915141   -0.696216
     88          6           0        9.472579    3.693537    0.468755
     89          6           0        9.045136    2.304642    0.938791
     90          6           0       10.899974    3.605540   -0.045196
     91          6           0        7.109903    4.647061   -0.159177
     92          6           0        7.222268    6.171654   -0.090312
     93          1           0        6.034046    6.970789   -0.376659
     94          7           0        8.507549   -0.433565    2.214437
     95          6           0        9.044919    0.635462    2.838698
     96          6           0        9.253089    0.223107    4.235408
     97          6           0        8.947853   -1.229226    4.346186
     98          6           0        8.756957   -1.565743    2.949614
     99          6           0        9.623037    1.189728    5.322692
    100          6           0        8.857031   -2.163646    5.514433
    101          8           0        8.812846   -3.435013    5.357924
    102          6           0        8.915499   -1.551335    6.849776
    103          7           0        8.400918   -2.600668    0.093245
    104          6           0        8.674015   -3.364671    1.165459
    105          6           0        8.655676   -4.831908    0.808717
    106          6           0        8.072976   -4.905128   -0.678791
    107          6           0        7.932743   -3.394900   -0.970270
    108          6           0       10.005905   -5.546359    0.861825
    109          6           0        6.838345   -5.819676   -0.906774
    110          6           0        5.634641   -5.249520   -0.191644
    111          7           0        7.477202   -0.571716   -1.795534
    112          6           0        7.405919   -1.688630   -2.656651
    113          6           0        7.125237   -1.175316   -4.013171
    114          6           0        7.075139    0.217294   -3.849983
    115          6           0        7.328149    0.549718   -2.491693
    116          6           0        7.001602   -1.963683   -5.191860
    117          6           0        6.876268    1.482324   -4.519941
    118          8           0        6.542520    1.821386   -5.654577
    119          6           0        7.310067    2.650437   -3.533172
    120          6           0        6.228243    3.695430   -3.546437
    121          8           0        5.094304    3.436881   -3.106067
    122          8           0        6.767731    4.884043   -3.872810
    123          6           0        5.735761    5.954833   -3.888411
    124          1           0       10.066917    2.488477    2.834126
    125          1           0        8.967718   -3.655193    3.076155
    126          1           0        7.403050   -3.671019   -3.005477
    127          1           0        8.822315    4.498970   -1.499815
    128          1           0        9.348722    4.421013    1.266753
    129          1           0       10.939319    3.588297   -1.124218
    130          1           0       11.303503    2.688090    0.362828
    131          1           0       11.503244    4.414223    0.377223
    132          1           0        6.988282    4.419259    0.907613
    133          1           0        6.245784    4.373968   -0.733065
    134          1           0        8.083596    6.547452   -0.655854
    135          1           0        7.434489    6.457663    0.942729
    136          1           0        9.941059    2.155598    4.911172
    137          1           0       10.520164    0.793843    5.810867
    138          1           0        8.835285    1.304370    6.070343
    139          1           0        9.846719   -0.999505    6.953561
    140          1           0        8.745432   -2.368372    7.553616
    141          1           0        8.104692   -0.819218    6.934756
    142          1           0        7.998992   -5.382719    1.470881
    143          1           0        8.817019   -5.294513   -1.389153
    144          1           0       10.010134   -6.421890    1.538210
    145          1           0       10.759382   -4.830322    1.161986
    146          1           0       10.384275   -5.890746   -0.099140
    147          1           0        7.015102   -6.808661   -0.476879
    148          1           0        6.594308   -5.962723   -1.954136
    149          1           0        5.760923   -5.613186    0.832513
    150          1           0        4.713555   -5.624815   -0.632998
    151          1           0        5.677602   -4.154610   -0.160309
    152          1           0        6.149282   -1.578819   -5.735857
    153          1           0        6.879101   -3.018234   -4.953795
    154          1           0        7.965539   -1.759042   -5.665377
    155          1           0        8.263110    3.043273   -3.889497
    156          1           0        5.776186    6.423142   -4.876714
    157          1           0        5.959497    6.598089   -3.016676
    158          1           0        4.696783    5.650315   -3.841013
 ---------------------------------------------------------------------

 SCF Done:  E(RCAM-B3LYP) =  -4069.81181186     A.U. after   19 cycles

 Excitation energies and oscillator strengths:

 Excited State   1:      Singlet-A      1.6704 eV  742.24 nm  f=0.0376  <S**2>=0.000
     309 -> 315        0.13958
     310 -> 316        0.10155
     311 -> 313        0.55582
     312 -> 314        0.40266
 This state for optimization and/or second-order correction.
 Total Energy, E(TD-HF/TD-DFT) =  -4069.75042528
 Copying the excited state density for this state as the 1-particle RhoCI density.

 Excited State   2:      Singlet-A      1.6851 eV  735.76 nm  f=0.7218  <S**2>=0.000
     309 -> 315       -0.10332
     310 -> 316        0.14327
     311 -> 313       -0.40216
     312 -> 314        0.55502

 Excited State   3:      Singlet-A      2.1858 eV  567.23 nm  f=0.0596  <S**2>=0.000
     309 -> 313        0.62835
     310 -> 314       -0.13517
     311 -> 315       -0.26673

 Excited State   4:      Singlet-A      2.1931 eV  565.34 nm  f=0.1337  <S**2>=0.000
     309 -> 313        0.13421
     310 -> 314        0.62640
     312 -> 316       -0.27233

 Excited State   5:      Singlet-A      2.7855 eV  445.11 nm  f=0.0000  <S**2>=0.000
     312 -> 313        0.70709

 The electronic state is 1-A.
 Alpha  occ. eigenvalues --  -46.87647 -46.87602 -19.26328 -19.26168 -19.19131
 Alpha  occ. eigenvalues --  -19.18895 -19.18654 -19.18648 -19.18039 -19.18014
 Alpha  occ. eigenvalues --  -14.42441 -14.42303 -14.41305 -14.41304 -14.39294
 Alpha  occ. eigenvalues --  -14.39252 -14.38545 -14.38441 -10.39060 -10.38954
 Alpha  occ. eigenvalues --  -10.35324 -10.35286 -10.34259 -10.34191 -10.31749
 Alpha  occ. eigenvalues --  -10.31577 -10.31264 -10.31258 -10.30967 -10.30760
 Alpha  occ. eigenvalues --  -10.30426 -10.30362 -10.30343 -10.30308 -10.30082
 Alpha  occ. eigenvalues --  -10.30060 -10.29843 -10.29782 -10.29484 -10.29378
 Alpha  occ. eigenvalues --  -10.29346 -10.29104 -10.28669 -10.28606 -10.28605
 Alpha  occ. eigenvalues --  -10.28397 -10.28350 -10.28217 -10.28091 -10.27977
 Alpha  occ. eigenvalues --  -10.27949 -10.27649 -10.27614 -10.27581 -10.27463
 Alpha  occ. eigenvalues --  -10.27433 -10.27431 -10.27409 -10.27398 -10.27368
 Alpha  occ. eigenvalues --  -10.27323 -10.27318 -10.27312 -10.27260 -10.27028
 Alpha  occ. eigenvalues --  -10.27013 -10.26634 -10.26551 -10.26336 -10.26227
 Alpha  occ. eigenvalues --  -10.26108 -10.26078 -10.26053 -10.25985 -10.25879
 Alpha  occ. eigenvalues --  -10.25876 -10.25814 -10.25721 -10.25353 -10.25316
 Alpha  occ. eigenvalues --  -10.24822 -10.24690 -10.24659 -10.24644 -10.24635
 Alpha  occ. eigenvalues --  -10.24546  -3.16389  -3.16352  -1.91271  -1.91234
 Alpha  occ. eigenvalues --   -1.90858  -1.90823  -1.90700  -1.90660  -1.16621
 Alpha  occ. eigenvalues --   -1.16515  -1.08623  -1.08499  -1.07055  -1.06917
 Alpha  occ. eigenvalues --   -1.06900  -1.06518  -1.04440  -1.04435  -1.03615
 Alpha  occ. eigenvalues --   -1.03607  -1.03087  -1.02983  -1.02266  -1.02056
 Alpha  occ. eigenvalues --   -0.91938  -0.91832  -0.89439  -0.89380  -0.89100
 Alpha  occ. eigenvalues --   -0.89046  -0.88166  -0.88150  -0.87746  -0.87733
 Alpha  occ. eigenvalues --   -0.87630  -0.87528  -0.87115  -0.87057  -0.84947
 Alpha  occ. eigenvalues --   -0.84838  -0.83823  -0.83802  -0.82867  -0.82808
 Alpha  occ. eigenvalues --   -0.82599  -0.82504  -0.81558  -0.81456  -0.80456
 Alpha  occ. eigenvalues --   -0.80395  -0.78646  -0.78578  -0.77092  -0.77077
 Alpha  occ. eigenvalues --   -0.76852  -0.76800  -0.75794  -0.75789  -0.74765
 Alpha  occ. eigenvalues --   -0.74754  -0.72647  -0.72633  -0.71535  -0.71532
 Alpha  occ. eigenvalues --   -0.69771  -0.69700  -0.68775  -0.68729  -0.67549
 Alpha  occ. eigenvalues --   -0.67497  -0.67142  -0.67069  -0.65222  -0.65145
 Alpha  occ. eigenvalues --   -0.64720  -0.64715  -0.64607  -0.64483  -0.64150
 Alpha  occ. eigenvalues --   -0.64131  -0.62242  -0.62170  -0.60290  -0.60280
 Alpha  occ. eigenvalues --   -0.59745  -0.59661  -0.58942  -0.58847  -0.58376
 Alpha  occ. eigenvalues --   -0.58364  -0.57516  -0.57453  -0.57184  -0.57169
 Alpha  occ. eigenvalues --   -0.56167  -0.56154  -0.55851  -0.55849  -0.55401
 Alpha  occ. eigenvalues --   -0.55372  -0.55208  -0.55201  -0.54444  -0.54394
 Alpha  occ. eigenvalues --   -0.53861  -0.53752  -0.53174  -0.53154  -0.53091
 Alpha  occ. eigenvalues --   -0.53074  -0.52855  -0.52777  -0.52605  -0.52599
 Alpha  occ. eigenvalues --   -0.52342  -0.52302  -0.51843  -0.51784  -0.51604
 Alpha  occ. eigenvalues --   -0.51469  -0.51155  -0.51060  -0.50408  -0.50405
 Alpha  occ. eigenvalues --   -0.49924  -0.49892  -0.49812  -0.49766  -0.49431
 Alpha  occ. eigenvalues --   -0.49368  -0.49153  -0.49073  -0.49059  -0.48960
 Alpha  occ. eigenvalues --   -0.48515  -0.48460  -0.48329  -0.48326  -0.48295
 Alpha  occ. eigenvalues --   -0.48280  -0.47551  -0.47542  -0.47153  -0.47065
 Alpha  occ. eigenvalues --   -0.46657  -0.46657  -0.46502  -0.46413  -0.46218
 Alpha  occ. eigenvalues --   -0.46217  -0.46039  -0.46029  -0.45784  -0.45694
 Alpha  occ. eigenvalues --   -0.45157  -0.45066  -0.44470  -0.44444  -0.44424
 Alpha  occ. eigenvalues --   -0.44357  -0.44079  -0.44023  -0.44002  -0.43950
 Alpha  occ. eigenvalues --   -0.43884  -0.43876  -0.43516  -0.43365  -0.43337
 Alpha  occ. eigenvalues --   -0.43244  -0.42895  -0.42889  -0.42857  -0.42572
 Alpha  occ. eigenvalues --   -0.42522  -0.42496  -0.41909  -0.41872  -0.41622
 Alpha  occ. eigenvalues --   -0.41566  -0.41406  -0.41391  -0.41002  -0.40940
 Alpha  occ. eigenvalues --   -0.40727  -0.40664  -0.40664  -0.40639  -0.40440
 Alpha  occ. eigenvalues --   -0.40435  -0.40169  -0.40084  -0.39365  -0.39304
 Alpha  occ. eigenvalues --   -0.38332  -0.38297  -0.37603  -0.37601  -0.37212
 Alpha  occ. eigenvalues --   -0.37181  -0.37146  -0.37118  -0.36738  -0.36587
 Alpha  occ. eigenvalues --   -0.36169  -0.36059  -0.34200  -0.34142  -0.33827
 Alpha  occ. eigenvalues --   -0.33640  -0.33122  -0.33042  -0.31208  -0.31185
 Alpha  occ. eigenvalues --   -0.30919  -0.30891  -0.29919  -0.29899  -0.29298
 Alpha  occ. eigenvalues --   -0.29269  -0.29178  -0.29160  -0.23982  -0.23935
 Alpha  occ. eigenvalues --   -0.21062  -0.20982
 Alpha virt. eigenvalues --   -0.08737  -0.08627  -0.01627  -0.01603   0.00030
 Alpha virt. eigenvalues --    0.00095   0.02254   0.02339   0.03302   0.03312
 Alpha virt. eigenvalues --    0.04782   0.04861   0.05197   0.05224   0.06230

 Mulliken charges:
               1
     1  Mg   0.839383
     2  C   -0.002835
     3  C   -0.093858
     4  C   -0.045843
     5  C   -0.064051
     6  N   -0.256775
     7  C   -0.052466
     8  C   -0.014092
     9  C   -0.087091
    10  C    0.046507
    11  C    0.104864
    12  C    0.053398
    13  C   -0.071721
    14  H    0.035963
    15  N   -0.433169
    16  C    0.168697
    17  C   -0.176871
    18  C   -0.003795
    19  C    0.148895
    20  C    0.110147
    21  C    0.012578
    22  O   -0.249780
    23  C    0.062275
    24  N   -0.341166
    25  C    0.041284
    26  C   -0.028132
    27  C   -0.023908
    28  C    0.074836
    29  C    0.076250
    30  C    0.035166
    31  C   -0.004489
    32  N   -0.310408
    33  C    0.080384
    34  C   -0.169863
    35  C    0.008180
    36  C    0.083032
    37  C    0.127345
    38  C    0.046007
    39  O   -0.188960
    40  C   -0.005340
    41  C    0.212727
    42  O   -0.256833
    43  O   -0.304868
    44  C    0.157824
    45  H   -0.017668
    46  H   -0.016926
    47  H   -0.041754
    48  H    0.000637
    49  H   -0.003897
    50  H    0.025288
    51  H    0.016377
    52  H    0.016494
    53  H    0.011846
    54  H    0.044292
    55  H    0.017486
    56  H    0.018126
    57  H    0.005830
    58  H    0.026621
    59  H    0.040432
    60  H    0.037103
    61  H    0.035690
    62  H    0.032443
    63  H    0.016576
    64  H    0.009189
    65  H    0.023057
    66  H    0.012482
    67  H    0.004533
    68  H    0.006086
    69  H    0.004535
    70  H    0.008785
    71  H    0.018078
    72  H    0.029358
    73  H    0.047337
    74  H    0.008987
    75  H    0.045712
    76  H    0.034886
    77  H    0.042515
    78  H    0.046433
    79  H    0.053603
    80  Mg   0.838382
    81  C   -0.016743
    82  C   -0.087680
    83  C   -0.045427
    84  C   -0.064875
    85  N   -0.254571
    86  C   -0.049805
    87  C   -0.015177
    88  C   -0.090534
    89  C    0.045869
    90  C    0.114406
    91  C    0.062468
    92  C   -0.077854
    93  H    0.034797
    94  N   -0.423519
    95  C    0.163167
    96  C   -0.174495
    97  C   -0.007623
    98  C    0.152235
    99  C    0.099359
   100  C    0.015787
   101  O   -0.253159
   102  C    0.061064
   103  N   -0.350091
   104  C    0.037548
   105  C   -0.019828
   106  C   -0.034779
   107  C    0.088923
   108  C    0.073696
   109  C    0.034733
   110  C   -0.007705
   111  N   -0.324074
   112  C    0.078459
   113  C   -0.163205
   114  C    0.002061
   115  C    0.096279
   116  C    0.131514
   117  C    0.042292
   118  O   -0.188450
   119  C    0.000910
   120  C    0.211080
   121  O   -0.250792
   122  O   -0.305664
   123  C    0.152185
   124  H   -0.019697
   125  H   -0.015552
   126  H   -0.040558
   127  H   -0.000896
   128  H   -0.004227
   129  H    0.022311
   130  H    0.014393
   131  H    0.016192
   132  H    0.014361
   133  H    0.037807
   134  H    0.020500
   135  H    0.019752
   136  H    0.008740
   137  H    0.026061
   138  H    0.040280
   139  H    0.038108
   140  H    0.036504
   141  H    0.034392
   142  H    0.014516
   143  H    0.012237
   144  H    0.025112
   145  H    0.011560
   146  H    0.005544
   147  H    0.006139
   148  H    0.003569
   149  H    0.010985
   150  H    0.018099
   151  H    0.030315
   152  H    0.045762
   153  H    0.008547
   154  H    0.046705
   155  H    0.034816
   156  H    0.043456
   157  H    0.049597
   158  H    0.053405
 Sum of Mulliken charges =  -0.00000

 Dipole moment (field-independent basis, Debye):
    X=              0.9381    Y=              3.1133    Z=             -0.9816  Tot=              3.3965
 Quadrupole moment (field-independent basis, Debye-Ang):
   XX=           -445.5887   YY=           -460.5466   ZZ=           -539.6513
   XY=             10.4079   XZ=             49.9629   YZ=             -3.8843

 Normal termination of Gaussian 16 at Sat Sep 11 22:57:16 2021.
