 Gaussian 16, Revision A.03,
 Gaussian 16:  ES64L-G16RevA.03 25-Dec-2016

 -----------------------------------
 #p cam-b3lyp/Def2SVP td=(nstates=5)
 -----------------------------------

 --------------------------------
 TDDFT excited states in gaussian
 --------------------------------
 Symbolic Z-matrix:
 Charge =  0 Multiplicity = 1

                         Standard orientation:
 ---------------------------------------------------------------------
 Center     Atomic      Atomic             Coordinates (Angstroms)
 Number     Number       Type             X           Y           Z
 ---------------------------------------------------------------------
      1         12           0        4.027778   -1.402111    0.516984
      2          6           0        4.934390    1.726845   -0.966223
      3          6           0        4.822672   -0.030487    3.538549
      4          6           0        3.670009   -4.281805    1.796041
      5          6           0        4.396613   -2.836241   -2.637837
      6          7           0        4.771436    0.604080    1.085154
      7          6           0        5.020686    1.732294    0.427753
      8          6           0        5.309138    2.942791    1.365232
      9          6           0        5.798756    2.148756    2.658206
     10          6           0        5.059961    0.841076    2.434419
     11          6           0        7.298280    1.869865    2.670388
     12          6           0        4.022565    3.784198    1.662713
     13          6           0        4.271104    5.156275    2.295948
     14          1           0        3.404076    6.265155    1.927171
     15          7           0        3.747906   -1.943550    2.396176
     16          6           0        4.120922   -1.254843    3.501539
     17          6           0        3.690485   -2.072695    4.655889
     18          6           0        3.207311   -3.380458    4.132062
     19          6           0        3.551272   -3.262697    2.738075
     20          6           0        3.715667   -1.578264    6.069626
     21          6           0        2.550792   -4.554844    4.786228
     22          8           0        2.423857   -5.680511    4.193491
     23          6           0        2.133978   -4.377300    6.189006
     24          7           0        4.243813   -3.332421   -0.247782
     25          6           0        3.971562   -4.406139    0.501880
     26          6           0        3.922381   -5.653976   -0.329036
     27          6           0        3.978585   -5.174133   -1.850990
     28          6           0        4.141681   -3.652632   -1.612858
     29          6           0        5.041667   -6.672749   -0.073474
     30          6           0        2.838968   -5.656826   -2.783030
     31          6           0        1.530634   -5.024703   -2.363764
     32          7           0        4.393687   -0.682558   -1.497812
     33          6           0        4.532263   -1.458174   -2.657937
     34          6           0        4.876963   -0.535931   -3.755534
     35          6           0        4.931592    0.718140   -3.150417
     36          6           0        4.665334    0.584056   -1.757787
     37          6           0        5.150871   -0.907650   -5.101355
     38          6           0        5.177197    2.136935   -3.351802
     39          8           0        5.358445    2.854392   -4.336636
     40          6           0        5.308846    2.830233   -1.924275
     41          6           0        4.454169    4.068215   -1.939689
     42          8           0        3.211265    3.986608   -2.016464
     43          8           0        5.207874    5.132709   -1.624532
     44          6           0        4.414285    6.390239   -1.593115
     45          1           0        5.262494    0.213441    4.507567
     46          1           0        3.444652   -5.280895    2.174816
     47          1           0        4.443812   -3.200381   -3.665761
     48          1           0        6.098126    3.609547    1.016866
     49          1           0        5.459938    2.622581    3.579299
     50          1           0        7.763336    2.150179    1.725365
     51          1           0        7.393412    0.796855    2.837990
     52          1           0        7.774659    2.350097    3.525501
     53          1           0        3.459694    3.308455    2.465773
     54          1           0        3.424518    3.907164    0.759085
     55          1           0        5.318770    5.447894    2.216808
     56          1           0        4.092820    5.074907    3.368233
     57          1           0        4.274448   -0.647450    6.158474
     58          1           0        4.293634   -2.298356    6.648530
     59          1           0        2.714195   -1.487362    6.490486
     60          1           0        3.004981   -4.124554    6.794003
     61          1           0        1.603755   -5.288752    6.462812
     62          1           0        1.459066   -3.523163    6.251407
     63          1           0        2.994878   -6.199672   -0.160569
     64          1           0        4.889156   -5.505253   -2.350884
     65          1           0        4.677958   -7.662782    0.202668
     66          1           0        5.696529   -6.267636    0.697454
     67          1           0        5.737549   -6.804613   -0.901591
     68          1           0        2.714269   -6.736092   -2.701906
     69          1           0        3.012732   -5.421039   -3.833012
     70          1           0        1.190411   -5.678570   -1.561556
     71          1           0        0.824175   -5.025846   -3.194502
     72          1           0        1.686417   -4.035153   -1.933638
     73          1           0        4.631350   -0.184055   -5.729429
     74          1           0        4.815701   -1.923901   -5.307507
     75          1           0        6.236595   -0.814243   -5.119664
     76          1           0        6.364088    3.062993   -1.784959
     77          1           0        4.895601    7.090671   -2.275730
     78          1           0        4.333513    6.679583   -0.545183
     79          1           0        3.413162    6.339311   -2.022646
     80         12           0       -4.791494    0.117681   -0.458913
     81          6           0       -2.044570    2.409481   -0.174104
     82          6           0       -6.473650    2.091569    1.756637
     83          6           0       -7.047635   -2.110096   -0.339425
     84          6           0       -2.530835   -2.219354   -1.713271
     85          7           0       -4.226466    1.983707    0.585560
     86          6           0       -3.179993    2.795454    0.568378
     87          6           0       -3.390499    4.132391    1.328536
     88          6           0       -4.549523    3.657639    2.333597
     89          6           0       -5.149797    2.528488    1.498527
     90          6           0       -4.018079    3.064126    3.627678
     91          6           0       -3.884612    5.284880    0.385331
     92          6           0       -3.814939    6.687609    0.992994
     93          1           0       -3.481340    7.808953    0.119052
     94          7           0       -6.674874    0.228954    0.156766
     95          6           0       -7.190753    1.106213    1.043084
     96          6           0       -8.614424    0.758493    1.171202
     97          6           0       -8.860250   -0.498658    0.413663
     98          6           0       -7.503234   -0.861181    0.057066
     99          6           0       -9.603768    1.630709    1.888044
    100          6           0      -10.108775   -1.256779    0.078055
    101          8           0      -10.067245   -2.450585   -0.386639
    102          6           0      -11.382760   -0.595876    0.396886
    103          7           0       -4.758020   -1.940158   -0.753097
    104          6           0       -5.888697   -2.665431   -0.694050
    105          6           0       -5.664754   -4.067639   -1.207904
    106          6           0       -4.201222   -4.060344   -1.852570
    107          6           0       -3.778864   -2.615933   -1.505161
    108          6           0       -5.755403   -5.180920   -0.164451
    109          6           0       -4.079602   -4.531463   -3.327673
    110          6           0       -4.764037   -3.542387   -4.243462
    111          7           0       -2.713830    0.126128   -1.051605
    112          6           0       -1.957377   -0.968340   -1.524906
    113          6           0       -0.566116   -0.498578   -1.686551
    114          6           0       -0.605281    0.840891   -1.270903
    115          6           0       -1.923360    1.176120   -0.858844
    116          6           0        0.534900   -1.291421   -2.116992
    117          6           0        0.170960    2.044454   -1.076983
    118          8           0        1.324681    2.385054   -1.335121
    119          6           0       -0.699067    3.077355   -0.238794
    120          6           0       -0.613425    4.416210   -0.918961
    121          8           0       -1.096870    4.581182   -2.052835
    122          8           0       -0.171925    5.331183   -0.036765
    123          6           0       -0.080692    6.677709   -0.661564
    124          1           0       -7.001131    2.512281    2.613178
    125          1           0       -7.811675   -2.886671   -0.420940
    126          1           0       -1.787000   -2.859712   -2.192160
    127          1           0       -2.529807    4.476393    1.889476
    128          1           0       -5.281631    4.445137    2.492415
    129          1           0       -2.944351    2.950821    3.607874
    130          1           0       -4.498516    2.099688    3.728092
    131          1           0       -4.354933    3.658985    4.481501
    132          1           0       -4.969625    5.193819    0.246801
    133          1           0       -3.354136    5.268145   -0.546836
    134          1           0       -3.201626    6.713081    1.901922
    135          1           0       -4.814055    6.967249    1.335908
    136          1           0       -9.101628    2.402505    2.484347
    137          1           0      -10.107954    1.000477    2.628629
    138          1           0      -10.353227    2.056596    1.217527
    139          1           0      -11.418924   -0.375655    1.461151
    140          1           0      -12.159864   -1.253648    0.002777
    141          1           0      -11.417648    0.366913   -0.125073
    142          1           0       -6.385971   -4.317724   -1.976288
    143          1           0       -3.514257   -4.727416   -1.311349
    144          1           0       -6.507031   -5.953336   -0.414478
    145          1           0       -5.975889   -4.732283    0.795054
    146          1           0       -4.821914   -5.704599    0.034409
    147          1           0       -4.592573   -5.486722   -3.463663
    148          1           0       -3.054086   -4.667230   -3.654588
    149          1           0       -5.813944   -3.846343   -4.194432
    150          1           0       -4.375772   -3.626172   -5.256504
    151          1           0       -4.696687   -2.523964   -3.843544
    152          1           0        1.094559   -0.690693   -2.821546
    153          1           0        0.201347   -2.224660   -2.565982
    154          1           0        1.043273   -1.453653   -1.162787
    155          1           0       -0.290815    3.104917    0.772220
    156          1           0        0.946060    7.027938   -0.517334
    157          1           0       -0.887065    7.277081   -0.198684
    158          1           0       -0.175088    6.737486   -1.739518
 ---------------------------------------------------------------------

 SCF Done:  E(RCAM-B3LYP) =  -4069.80556819     A.U. after   19 cycles

 Excitation energies and oscillator strengths:

 Excited State   1:      Singlet-A      1.6447 eV  753.84 nm  f=0.2769  <S**2>=0.000
     309 -> 315        0.12208
     310 -> 316       -0.10705
     311 -> 313        0.49680
     311 -> 314        0.11113
     312 -> 313        0.13355
     312 -> 314       -0.44253
 This state for optimization and/or second-order correction.
 Total Energy, E(TD-HF/TD-DFT) =  -4069.74512634
 Copying the excited state density for this state as the 1-particle RhoCI density.

 Excited State   2:      Singlet-A      1.6995 eV  729.52 nm  f=0.5073  <S**2>=0.000
     309 -> 315        0.11779
     310 -> 316        0.13191
     311 -> 313        0.45550
     312 -> 314        0.50975

 Excited State   3:      Singlet-A      2.1713 eV  571.00 nm  f=0.0043  <S**2>=0.000
     309 -> 313       -0.38075
     310 -> 314        0.51918
     311 -> 315        0.15714
     312 -> 316       -0.21167

 Excited State   4:      Singlet-A      2.1936 eV  565.20 nm  f=0.1613  <S**2>=0.000
     309 -> 313        0.51261
     310 -> 314        0.36797
     311 -> 315       -0.21557
     312 -> 316       -0.15724

 Excited State   5:      Singlet-A      2.2834 eV  542.98 nm  f=0.0010  <S**2>=0.000
     311 -> 313       -0.11329
     312 -> 313        0.68929

 The electronic state is 1-A.
 Alpha  occ. eigenvalues --  -46.87431 -46.87349 -19.26012 -19.25342 -19.18675
 Alpha  occ. eigenvalues --  -19.18508 -19.18468 -19.17589 -19.17556 -19.17381
 Alpha  occ. eigenvalues --  -14.42298 -14.41980 -14.41122 -14.41027 -14.39120
 Alpha  occ. eigenvalues --  -14.38967 -14.38348 -14.38065 -10.38663 -10.37755
 Alpha  occ. eigenvalues --  -10.35190 -10.35112 -10.33749 -10.33513 -10.31603
 Alpha  occ. eigenvalues --  -10.31214 -10.31074 -10.30883 -10.30815 -10.30366
 Alpha  occ. eigenvalues --  -10.30148 -10.30099 -10.30065 -10.30053 -10.29946
 Alpha  occ. eigenvalues --  -10.29889 -10.29648 -10.29508 -10.29238 -10.29167
 Alpha  occ. eigenvalues --  -10.29150 -10.28862 -10.28566 -10.28556 -10.28212
 Alpha  occ. eigenvalues --  -10.28144 -10.28137 -10.27995 -10.27803 -10.27702
 Alpha  occ. eigenvalues --  -10.27641 -10.27466 -10.27330 -10.27327 -10.27320
 Alpha  occ. eigenvalues --  -10.27296 -10.27286 -10.27248 -10.27229 -10.27221
 Alpha  occ. eigenvalues --  -10.27169 -10.27157 -10.27135 -10.26853 -10.26664
 Alpha  occ. eigenvalues --  -10.26537 -10.26404 -10.26250 -10.26198 -10.26152
 Alpha  occ. eigenvalues --  -10.26046 -10.25990 -10.25947 -10.25826 -10.25702
 Alpha  occ. eigenvalues --  -10.25685 -10.25647 -10.25473 -10.25225 -10.25188
 Alpha  occ. eigenvalues --  -10.24885 -10.24605 -10.24581 -10.24447 -10.24348
 Alpha  occ. eigenvalues --  -10.24324  -3.16181  -3.16073  -1.91064  -1.90958
 Alpha  occ. eigenvalues --   -1.90653  -1.90540  -1.90489  -1.90382  -1.16250
 Alpha  occ. eigenvalues --   -1.15644  -1.08013  -1.07961  -1.06880  -1.06764
 Alpha  occ. eigenvalues --   -1.06464  -1.05344  -1.04277  -1.04081  -1.03434
 Alpha  occ. eigenvalues --   -1.03330  -1.02799  -1.02772  -1.01941  -1.01868
 Alpha  occ. eigenvalues --   -0.91693  -0.91380  -0.89268  -0.89244  -0.88992
 Alpha  occ. eigenvalues --   -0.88683  -0.88008  -0.87987  -0.87571  -0.87476
 Alpha  occ. eigenvalues --   -0.87424  -0.87219  -0.86907  -0.86885  -0.84817
 Alpha  occ. eigenvalues --   -0.84513  -0.83715  -0.83664  -0.82735  -0.82657
 Alpha  occ. eigenvalues --   -0.82458  -0.82195  -0.81345  -0.81044  -0.80215
 Alpha  occ. eigenvalues --   -0.80102  -0.78416  -0.78379  -0.76976  -0.76876
 Alpha  occ. eigenvalues --   -0.76697  -0.76494  -0.75633  -0.75437  -0.74595
 Alpha  occ. eigenvalues --   -0.74562  -0.72483  -0.72346  -0.71361  -0.71234
 Alpha  occ. eigenvalues --   -0.69778  -0.69570  -0.68633  -0.68425  -0.67345
 Alpha  occ. eigenvalues --   -0.67192  -0.67016  -0.66737  -0.65068  -0.64799
 Alpha  occ. eigenvalues --   -0.64543  -0.64436  -0.64407  -0.64168  -0.63978
 Alpha  occ. eigenvalues --   -0.63915  -0.62000  -0.61689  -0.60115  -0.60072
 Alpha  occ. eigenvalues --   -0.59612  -0.59312  -0.58746  -0.58537  -0.58157
 Alpha  occ. eigenvalues --   -0.58022  -0.57215  -0.57037  -0.56981  -0.56687
 Alpha  occ. eigenvalues --   -0.55995  -0.55870  -0.55625  -0.55370  -0.55234
 Alpha  occ. eigenvalues --   -0.55144  -0.55013  -0.54965  -0.54242  -0.53998
 Alpha  occ. eigenvalues --   -0.53735  -0.53388  -0.53032  -0.52950  -0.52929
 Alpha  occ. eigenvalues --   -0.52790  -0.52659  -0.52500  -0.52487  -0.52401
 Alpha  occ. eigenvalues --   -0.52297  -0.52029  -0.51744  -0.51483  -0.51432
 Alpha  occ. eigenvalues --   -0.51133  -0.50882  -0.50735  -0.50291  -0.50270
 Alpha  occ. eigenvalues --   -0.49838  -0.49792  -0.49667  -0.49531  -0.49291
 Alpha  occ. eigenvalues --   -0.49170  -0.48982  -0.48931  -0.48666  -0.48647
 Alpha  occ. eigenvalues --   -0.48372  -0.48249  -0.48174  -0.48149  -0.47982
 Alpha  occ. eigenvalues --   -0.47582  -0.47308  -0.47204  -0.46914  -0.46821
 Alpha  occ. eigenvalues --   -0.46515  -0.46420  -0.46368  -0.46079  -0.46044
 Alpha  occ. eigenvalues --   -0.45952  -0.45895  -0.45579  -0.45520  -0.45283
 Alpha  occ. eigenvalues --   -0.44993  -0.44873  -0.44328  -0.44236  -0.44134
 Alpha  occ. eigenvalues --   -0.44060  -0.43906  -0.43857  -0.43822  -0.43698
 Alpha  occ. eigenvalues --   -0.43640  -0.43455  -0.43294  -0.43153  -0.42993
 Alpha  occ. eigenvalues --   -0.42944  -0.42682  -0.42616  -0.42565  -0.42413
 Alpha  occ. eigenvalues --   -0.42351  -0.41850  -0.41703  -0.41600  -0.41304
 Alpha  occ. eigenvalues --   -0.41243  -0.41147  -0.41067  -0.40723  -0.40689
 Alpha  occ. eigenvalues --   -0.40530  -0.40520  -0.40491  -0.40456  -0.40260
 Alpha  occ. eigenvalues --   -0.40181  -0.40075  -0.39735  -0.39344  -0.39240
 Alpha  occ. eigenvalues --   -0.38183  -0.38156  -0.37486  -0.37276  -0.37060
 Alpha  occ. eigenvalues --   -0.36989  -0.36957  -0.36758  -0.36421  -0.36103
 Alpha  occ. eigenvalues --   -0.35933  -0.35288  -0.34010  -0.33802  -0.33432
 Alpha  occ. eigenvalues --   -0.32919  -0.32841  -0.32221  -0.31068  -0.30996
 Alpha  occ. eigenvalues --   -0.30745  -0.30497  -0.29413  -0.29218  -0.29072
 Alpha  occ. eigenvalues --   -0.29023  -0.28913  -0.28774  -0.23802  -0.23562
 Alpha  occ. eigenvalues --   -0.20891  -0.20674
 Alpha virt. eigenvalues --   -0.08546  -0.08305  -0.01478  -0.01317   0.00198
 Alpha virt. eigenvalues --    0.00398   0.02389   0.02719   0.03382   0.03760
 Alpha virt. eigenvalues --    0.04876   0.05047   0.05574   0.06011   0.06311

 Mulliken charges:
               1
     1  Mg   0.813909
     2  C    0.021170
     3  C   -0.094197
     4  C   -0.046867
     5  C   -0.066961
     6  N   -0.255175
     7  C   -0.051213
     8  C   -0.016042
     9  C   -0.086864
    10  C    0.046574
    11  C    0.105275
    12  C    0.052338
    13  C   -0.069259
    14  H    0.031110
    15  N   -0.431742
    16  C    0.168040
    17  C   -0.178462
    18  C   -0.005207
    19  C    0.147962
    20  C    0.110555
    21  C    0.011254
    22  O   -0.251544
    23  C    0.062980
    24  N   -0.338142
    25  C    0.038496
    26  C   -0.027897
    27  C   -0.024467
    28  C    0.074039
    29  C    0.076899
    30  C    0.038914
    31  C   -0.013442
    32  N   -0.311603
    33  C    0.080911
    34  C   -0.174764
    35  C    0.006734
    36  C    0.094584
    37  C    0.127303
    38  C    0.055114
    39  O   -0.188383
    40  C   -0.011623
    41  C    0.201856
    42  O   -0.222372
    43  O   -0.308971
    44  C    0.158536
    45  H   -0.019184
    46  H   -0.018977
    47  H   -0.044987
    48  H   -0.000097
    49  H   -0.005881
    50  H    0.025165
    51  H    0.015680
    52  H    0.014938
    53  H    0.007505
    54  H    0.054890
    55  H    0.016492
    56  H    0.015224
    57  H    0.004951
    58  H    0.025577
    59  H    0.037478
    60  H    0.036903
    61  H    0.034219
    62  H    0.030579
    63  H    0.014384
    64  H    0.009323
    65  H    0.022001
    66  H    0.013078
    67  H    0.003972
    68  H    0.005403
    69  H    0.004383
    70  H    0.007855
    71  H    0.016102
    72  H    0.031449
    73  H    0.048151
    74  H    0.006974
    75  H    0.045347
    76  H    0.031700
    77  H    0.039885
    78  H    0.042886
    79  H    0.049851
    80  Mg   0.837193
    81  C   -0.017977
    82  C   -0.087956
    83  C   -0.045902
    84  C   -0.066721
    85  N   -0.253986
    86  C   -0.050538
    87  C   -0.014430
    88  C   -0.090328
    89  C    0.045015
    90  C    0.114762
    91  C    0.062774
    92  C   -0.077198
    93  H    0.034398
    94  N   -0.423325
    95  C    0.162273
    96  C   -0.175214
    97  C   -0.008350
    98  C    0.151820
    99  C    0.099643
   100  C    0.015168
   101  O   -0.253786
   102  C    0.061357
   103  N   -0.350194
   104  C    0.037491
   105  C   -0.019844
   106  C   -0.034421
   107  C    0.089087
   108  C    0.073580
   109  C    0.034455
   110  C   -0.007505
   111  N   -0.324464
   112  C    0.080769
   113  C   -0.170229
   114  C    0.006111
   115  C    0.098333
   116  C    0.123352
   117  C    0.036051
   118  O   -0.149404
   119  C   -0.003193
   120  C    0.224721
   121  O   -0.250492
   122  O   -0.308329
   123  C    0.155922
   124  H   -0.020705
   125  H   -0.016124
   126  H   -0.040200
   127  H   -0.001974
   128  H   -0.004916
   129  H    0.020947
   130  H    0.014352
   131  H    0.015035
   132  H    0.013868
   133  H    0.038683
   134  H    0.019435
   135  H    0.019155
   136  H    0.008029
   137  H    0.025343
   138  H    0.039166
   139  H    0.037865
   140  H    0.035815
   141  H    0.033658
   142  H    0.013870
   143  H    0.013510
   144  H    0.024480
   145  H    0.011603
   146  H    0.006381
   147  H    0.005753
   148  H    0.002798
   149  H    0.010842
   150  H    0.017191
   151  H    0.030678
   152  H    0.055513
   153  H    0.009891
   154  H    0.058534
   155  H    0.031335
   156  H    0.034299
   157  H    0.047027
   158  H    0.055801
 Sum of Mulliken charges =  -0.00000

 Dipole moment (field-independent basis, Debye):
    X=             -0.8085    Y=              1.9184    Z=              6.6447  Tot=              6.9632
 Quadrupole moment (field-independent basis, Debye-Ang):
   XX=           -501.3886   YY=           -489.2248   ZZ=           -500.6286
   XY=            -28.2858   XZ=              5.3465   YZ=             51.5259

 Normal termination of Gaussian 16 at Fri Sep 10 00:26:43 2021.
