 Gaussian 16, Revision A.03,
 Gaussian 16:  ES64L-G16RevA.03 25-Dec-2016

 -----------------------------------
 #p cam-b3lyp/Def2SVP td=(nstates=5)
 -----------------------------------

 --------------------------------
 TDDFT excited states in gaussian
 --------------------------------
 Symbolic Z-matrix:
 Charge =  0 Multiplicity = 1

                         Standard orientation:
 ---------------------------------------------------------------------
 Center     Atomic      Atomic             Coordinates (Angstroms)
 Number     Number       Type             X           Y           Z
 ---------------------------------------------------------------------
      1         12           0        5.139335   -0.570981    0.486343
      2          6           0        5.637587    2.407467   -1.435324
      3          6           0        6.158429    1.199947    3.219167
      4          6           0        5.143569   -3.292950    2.113454
      5          6           0        5.263421   -2.347740   -2.509218
      6          7           0        5.788009    1.531086    0.733693
      7          6           0        5.877133    2.585508   -0.070933
      8          6           0        6.175602    3.915293    0.684026
      9          6           0        6.863907    3.314039    1.990444
     10          6           0        6.205553    1.945715    2.003996
     11          6           0        8.372280    3.132063    1.855540
     12          6           0        4.870167    4.704988    1.036092
     13          6           0        5.083195    6.155887    1.477526
     14          1           0        4.099543    7.156636    1.092455
     15          7           0        5.110998   -0.899269    2.434233
     16          6           0        5.551199   -0.061106    3.403248
     17          6           0        5.314184   -0.759594    4.684895
     18          6           0        4.875911   -2.148173    4.372072
     19          6           0        5.053452   -2.177479    2.942737
     20          6           0        5.458498   -0.098466    6.021246
     21          6           0        4.386312   -3.273962    5.227072
     22          8           0        4.279705   -4.468315    4.783528
     23          6           0        4.115289   -2.955515    6.640642
     24          7           0        5.414198   -2.562003   -0.077498
     25          6           0        5.308393   -3.552780    0.814775
     26          6           0        5.261659   -4.891951    0.140702
     27          6           0        5.112567   -4.595677   -1.421266
     28          6           0        5.185886   -3.049434   -1.376221
     29          6           0        6.475958   -5.801378    0.374007
     30          6           0        3.916351   -5.256404   -2.151284
     31          6           0        2.618620   -4.660809   -1.653030
     32          7           0        5.224484   -0.077154   -1.625511
     33          6           0        5.291744   -0.976308   -2.699602
     34          6           0        5.442213   -0.172888   -3.926771
     35          6           0        5.468861    1.145699   -3.476811
     36          6           0        5.369402    1.163483   -2.056219
     37          6           0        5.592566   -0.685748   -5.245407
     38          6           0        5.582992    2.542541   -3.863675
     39          8           0        5.599414    3.146460   -4.937223
     40          6           0        5.819350    3.408964   -2.548657
     41          6           0        4.877356    4.580806   -2.601047
     42          8           0        3.643307    4.413734   -2.519961
     43          8           0        5.578939    5.720062   -2.498974
     44          6           0        4.701197    6.920677   -2.514610
     45          1           0        6.683256    1.585183    4.095576
     46          1           0        5.037520   -4.251389    2.625885
     47          1           0        5.223759   -2.828984   -3.488138
     48          1           0        6.868618    4.583010    0.171868
     49          1           0        6.594477    3.873077    2.886327
     50          1           0        8.707312    3.325204    0.836535
     51          1           0        8.566005    2.094892    2.129837
     52          1           0        8.902901    3.740031    2.588747
     53          1           0        4.437204    4.295112    1.948564
     54          1           0        4.168130    4.681331    0.201879
     55          1           0        6.090662    6.500240    1.242282
     56          1           0        5.031451    6.192908    2.565714
     57          1           0        5.951920    0.869099    5.938192
     58          1           0        6.149670   -0.706679    6.604399
     59          1           0        4.505834   -0.019929    6.545264
     60          1           0        5.026413   -2.578518    7.105696
     61          1           0        3.688889   -3.858603    7.075917
     62          1           0        3.388994   -2.143527    6.686679
     63          1           0        4.402320   -5.469888    0.478270
     64          1           0        5.984502   -4.927346   -1.985535
     65          1           0        6.220751   -6.771732    0.800608
     66          1           0        7.179788   -5.266886    1.011371
     67          1           0        7.083756   -5.988309   -0.510897
     68          1           0        3.883120   -6.323771   -1.935482
     69          1           0        3.954447   -5.138024   -3.234236
     70          1           0        2.419630   -5.233486   -0.747891
     71          1           0        1.826581   -4.805405   -2.388541
     72          1           0        2.746060   -3.619054   -1.358086
     73          1           0        4.953602   -0.076345   -5.884408
     74          1           0        5.314184   -1.738192   -5.295077
     75          1           0        6.659429   -0.528133   -5.402946
     76          1           0        6.862964    3.721685   -2.562683
     77          1           0        5.049747    7.562586   -3.323745
     78          1           0        4.715444    7.328131   -1.503579
     79          1           0        3.665353    6.756646   -2.813710
     80         12           0       -5.389496    0.404957    0.393316
     81          6           0       -4.859320   -1.592737   -2.540485
     82          6           0       -5.692845   -2.508789    2.140507
     83          6           0       -6.303499    2.119915    2.901482
     84          6           0       -6.174814    3.058694   -1.724856
     85          7           0       -5.270835   -1.713719   -0.230714
     86          6           0       -5.003687   -2.351595   -1.360353
     87          6           0       -4.805002   -3.883022   -1.202747
     88          6           0       -5.644618   -4.096543    0.149402
     89          6           0       -5.502942   -2.698750    0.748397
     90          6           0       -7.120468   -4.364288   -0.094558
     91          6           0       -3.297486   -4.273511   -1.010512
     92          6           0       -2.995829   -5.766348   -1.159491
     93          1           0       -1.726871   -6.163139   -1.763455
     94          7           0       -5.439798   -0.064836    2.320835
     95          6           0       -5.542625   -1.299928    2.854938
     96          6           0       -5.558131   -1.107572    4.313334
     97          6           0       -5.622108    0.352664    4.593219
     98          6           0       -5.816178    0.869623    3.253373
     99          6           0       -5.434057   -2.244701    5.285428
    100          6           0       -5.537166    1.150766    5.858924
    101          8           0       -5.855864    2.391714    5.895138
    102          6           0       -5.159488    0.414474    7.074135
    103          7           0       -6.335080    2.247816    0.572328
    104          6           0       -6.569433    2.790162    1.780160
    105          6           0       -7.004292    4.230965    1.656082
    106          6           0       -6.779274    4.616918    0.120515
    107          6           0       -6.317046    3.245910   -0.419905
    108          6           0       -8.452318    4.524861    2.047518
    109          6           0       -5.896859    5.861705   -0.170270
    110          6           0       -4.466291    5.585852    0.233191
    111          7           0       -5.328103    0.766190   -1.735960
    112          6           0       -5.726343    1.939139   -2.413960
    113          6           0       -5.608070    1.666928   -3.861136
    114          6           0       -5.167707    0.336352   -3.925585
    115          6           0       -5.041186   -0.190391   -2.611795
    116          6           0       -5.937425    2.573640   -4.907801
    117          6           0       -4.791303   -0.745740   -4.806536
    118          8           0       -4.622243   -0.859316   -6.019909
    119          6           0       -4.696184   -2.082881   -3.952498
    120          6           0       -3.407991   -2.772034   -4.310487
    121          8           0       -2.313732   -2.249334   -4.034799
    122          8           0       -3.677577   -4.025120   -4.719714
    123          6           0       -2.430253   -4.752743   -5.075482
    124          1           0       -6.029923   -3.355935    2.738507
    125          1           0       -6.528455    2.789862    3.734577
    126          1           0       -6.307158    3.866055   -2.448267
    127          1           0       -5.228017   -4.480535   -2.001373
    128          1           0       -5.175694   -4.836438    0.792856
    129          1           0       -7.384115   -4.249268   -1.135422
    130          1           0       -7.654239   -3.644971    0.512660
    131          1           0       -7.394236   -5.349208    0.294446
    132          1           0       -3.021952   -4.130291    0.042243
    133          1           0       -2.670416   -3.710182   -1.673887
    134          1           0       -3.828244   -6.310989   -1.621435
    135          1           0       -2.909734   -6.204204   -0.162047
    136          1           0       -5.569616   -3.214023    4.790017
    137          1           0       -6.282618   -2.170633    5.974147
    138          1           0       -4.507018   -2.207128    5.861501
    139          1           0       -5.874704   -0.385890    7.248390
    140          1           0       -5.065021    1.170271    7.856262
    141          1           0       -4.187673   -0.062962    6.906086
    142          1           0       -6.390329    4.874780    2.273862
    143          1           0       -7.728305    4.849962   -0.384333
    144          1           0       -8.543117    5.289914    2.841581
    145          1           0       -8.916941    3.598224    2.357359
    146          1           0       -9.096120    4.843947    1.229667
    147          1           0       -6.230524    6.711197    0.430716
    148          1           0       -5.918964    6.173676   -1.209100
    149          1           0       -4.468605    5.792812    1.307545
    150          1           0       -3.784553    6.249298   -0.295115
    151          1           0       -4.217760    4.526265    0.102152
    152          1           0       -5.145495    2.503084   -5.641534
    153          1           0       -6.045026    3.589852   -4.534310
    154          1           0       -6.891939    2.153835   -5.236353
    155          1           0       -5.567714   -2.691007   -4.197846
    156          1           0       -2.550912   -5.110339   -6.102735
    157          1           0       -2.296000   -5.518172   -4.288170
    158          1           0       -1.518374   -4.173127   -5.159036
 ---------------------------------------------------------------------

 SCF Done:  E(RCAM-B3LYP) =  -4069.81129013     A.U. after   19 cycles

 Excitation energies and oscillator strengths:

 Excited State   1:      Singlet-A      1.6564 eV  748.52 nm  f=0.0051  <S**2>=0.000
     309 -> 315        0.11368
     310 -> 316       -0.12465
     311 -> 313        0.50869
     312 -> 314        0.46197
 This state for optimization and/or second-order correction.
 Total Energy, E(TD-HF/TD-DFT) =  -4069.75041923
 Copying the excited state density for this state as the 1-particle RhoCI density.

 Excited State   2:      Singlet-A      1.6960 eV  731.03 nm  f=0.7174  <S**2>=0.000
     309 -> 315        0.13269
     310 -> 316        0.11999
     311 -> 313       -0.46037
     312 -> 314        0.50676

 Excited State   3:      Singlet-A      2.1827 eV  568.03 nm  f=0.0251  <S**2>=0.000
     309 -> 314        0.30018
     310 -> 313        0.56931
     311 -> 316        0.23937
     312 -> 315       -0.12561

 Excited State   4:      Singlet-A      2.1927 eV  565.43 nm  f=0.1593  <S**2>=0.000
     309 -> 314        0.56597
     310 -> 313       -0.29761
     311 -> 316       -0.13029
     312 -> 315       -0.24743

 Excited State   5:      Singlet-A      2.5707 eV  482.29 nm  f=0.0000  <S**2>=0.000
     312 -> 313        0.70709

 The electronic state is 1-A.
 Alpha  occ. eigenvalues --  -46.87615 -46.87521 -19.26259 -19.26085 -19.19033
 Alpha  occ. eigenvalues --  -19.18798 -19.18723 -19.18631 -19.17966 -19.17904
 Alpha  occ. eigenvalues --  -14.42365 -14.42275 -14.41282 -14.41224 -14.39234
 Alpha  occ. eigenvalues --  -14.39220 -14.38452 -14.38391 -10.38965 -10.38864
 Alpha  occ. eigenvalues --  -10.35362 -10.35312 -10.34185 -10.34082 -10.31722
 Alpha  occ. eigenvalues --  -10.31499 -10.31215 -10.31167 -10.30904 -10.30750
 Alpha  occ. eigenvalues --  -10.30376 -10.30329 -10.30260 -10.30214 -10.30062
 Alpha  occ. eigenvalues --  -10.30018 -10.29756 -10.29747 -10.29453 -10.29308
 Alpha  occ. eigenvalues --  -10.29265 -10.29091 -10.28606 -10.28585 -10.28578
 Alpha  occ. eigenvalues --  -10.28382 -10.28271 -10.28189 -10.28021 -10.27953
 Alpha  occ. eigenvalues --  -10.27862 -10.27612 -10.27554 -10.27536 -10.27422
 Alpha  occ. eigenvalues --  -10.27393 -10.27376 -10.27361 -10.27359 -10.27353
 Alpha  occ. eigenvalues --  -10.27339 -10.27333 -10.27260 -10.27227 -10.26965
 Alpha  occ. eigenvalues --  -10.26922 -10.26578 -10.26534 -10.26378 -10.26377
 Alpha  occ. eigenvalues --  -10.26085 -10.26066 -10.25995 -10.25919 -10.25843
 Alpha  occ. eigenvalues --  -10.25794 -10.25670 -10.25598 -10.25345 -10.25304
 Alpha  occ. eigenvalues --  -10.24729 -10.24641 -10.24628 -10.24560 -10.24557
 Alpha  occ. eigenvalues --  -10.24526  -3.16357  -3.16270  -1.91238  -1.91152
 Alpha  occ. eigenvalues --   -1.90826  -1.90741  -1.90668  -1.90578  -1.16545
 Alpha  occ. eigenvalues --   -1.16430  -1.08510  -1.08418  -1.07131  -1.06887
 Alpha  occ. eigenvalues --   -1.06821  -1.06424  -1.04406  -1.04363  -1.03593
 Alpha  occ. eigenvalues --   -1.03530  -1.03056  -1.02902  -1.02235  -1.01974
 Alpha  occ. eigenvalues --   -0.91853  -0.91789  -0.89366  -0.89360  -0.89032
 Alpha  occ. eigenvalues --   -0.89021  -0.88143  -0.88092  -0.87666  -0.87641
 Alpha  occ. eigenvalues --   -0.87553  -0.87504  -0.87138  -0.87012  -0.84883
 Alpha  occ. eigenvalues --   -0.84821  -0.83792  -0.83747  -0.82867  -0.82840
 Alpha  occ. eigenvalues --   -0.82545  -0.82496  -0.81487  -0.81404  -0.80430
 Alpha  occ. eigenvalues --   -0.80329  -0.78639  -0.78510  -0.77056  -0.77021
 Alpha  occ. eigenvalues --   -0.76787  -0.76770  -0.75752  -0.75725  -0.74755
 Alpha  occ. eigenvalues --   -0.74685  -0.72597  -0.72561  -0.71512  -0.71459
 Alpha  occ. eigenvalues --   -0.69763  -0.69620  -0.68714  -0.68711  -0.67479
 Alpha  occ. eigenvalues --   -0.67479  -0.67094  -0.67068  -0.65152  -0.65116
 Alpha  occ. eigenvalues --   -0.64680  -0.64643  -0.64538  -0.64457  -0.64115
 Alpha  occ. eigenvalues --   -0.64074  -0.62170  -0.62116  -0.60303  -0.60225
 Alpha  occ. eigenvalues --   -0.59672  -0.59634  -0.58863  -0.58818  -0.58334
 Alpha  occ. eigenvalues --   -0.58298  -0.57425  -0.57391  -0.57153  -0.57113
 Alpha  occ. eigenvalues --   -0.56141  -0.56076  -0.55800  -0.55786  -0.55375
 Alpha  occ. eigenvalues --   -0.55348  -0.55181  -0.55124  -0.54368  -0.54355
 Alpha  occ. eigenvalues --   -0.53796  -0.53729  -0.53155  -0.53111  -0.53065
 Alpha  occ. eigenvalues --   -0.53028  -0.52784  -0.52747  -0.52630  -0.52578
 Alpha  occ. eigenvalues --   -0.52292  -0.52258  -0.51721  -0.51695  -0.51550
 Alpha  occ. eigenvalues --   -0.51458  -0.51071  -0.51018  -0.50472  -0.50383
 Alpha  occ. eigenvalues --   -0.49896  -0.49867  -0.49792  -0.49746  -0.49384
 Alpha  occ. eigenvalues --   -0.49368  -0.49084  -0.49046  -0.48982  -0.48931
 Alpha  occ. eigenvalues --   -0.48438  -0.48416  -0.48340  -0.48290  -0.48256
 Alpha  occ. eigenvalues --   -0.48239  -0.47546  -0.47482  -0.47148  -0.47006
 Alpha  occ. eigenvalues --   -0.46629  -0.46580  -0.46441  -0.46394  -0.46192
 Alpha  occ. eigenvalues --   -0.46142  -0.45984  -0.45957  -0.45693  -0.45626
 Alpha  occ. eigenvalues --   -0.45088  -0.45061  -0.44408  -0.44397  -0.44360
 Alpha  occ. eigenvalues --   -0.44351  -0.44013  -0.43992  -0.43952  -0.43938
 Alpha  occ. eigenvalues --   -0.43849  -0.43834  -0.43446  -0.43311  -0.43268
 Alpha  occ. eigenvalues --   -0.43230  -0.42857  -0.42824  -0.42773  -0.42538
 Alpha  occ. eigenvalues --   -0.42478  -0.42424  -0.41844  -0.41831  -0.41537
 Alpha  occ. eigenvalues --   -0.41533  -0.41373  -0.41341  -0.40983  -0.40867
 Alpha  occ. eigenvalues --   -0.40735  -0.40699  -0.40631  -0.40585  -0.40423
 Alpha  occ. eigenvalues --   -0.40365  -0.40124  -0.40078  -0.39301  -0.39284
 Alpha  occ. eigenvalues --   -0.38327  -0.38229  -0.37583  -0.37546  -0.37168
 Alpha  occ. eigenvalues --   -0.37137  -0.37091  -0.37075  -0.36657  -0.36526
 Alpha  occ. eigenvalues --   -0.36092  -0.36018  -0.34116  -0.34106  -0.33731
 Alpha  occ. eigenvalues --   -0.33556  -0.33040  -0.33006  -0.31253  -0.31189
 Alpha  occ. eigenvalues --   -0.30867  -0.30844  -0.29822  -0.29808  -0.29288
 Alpha  occ. eigenvalues --   -0.29201  -0.29124  -0.29063  -0.23903  -0.23900
 Alpha  occ. eigenvalues --   -0.20982  -0.20952
 Alpha virt. eigenvalues --   -0.08659  -0.08603  -0.01587  -0.01555   0.00084
 Alpha virt. eigenvalues --    0.00084   0.02348   0.02389   0.03292   0.03486
 Alpha virt. eigenvalues --    0.04780   0.04887   0.05284   0.05308   0.05992

 Mulliken charges:
               1
     1  Mg   0.840156
     2  C   -0.002670
     3  C   -0.094163
     4  C   -0.046263
     5  C   -0.062981
     6  N   -0.256683
     7  C   -0.052245
     8  C   -0.014078
     9  C   -0.086985
    10  C    0.046143
    11  C    0.104931
    12  C    0.053496
    13  C   -0.071597
    14  H    0.035930
    15  N   -0.432859
    16  C    0.168054
    17  C   -0.177582
    18  C   -0.004712
    19  C    0.148527
    20  C    0.110286
    21  C    0.011494
    22  O   -0.250871
    23  C    0.062821
    24  N   -0.341193
    25  C    0.041170
    26  C   -0.027859
    27  C   -0.023920
    28  C    0.075148
    29  C    0.076394
    30  C    0.034957
    31  C   -0.004306
    32  N   -0.311030
    33  C    0.082001
    34  C   -0.167397
    35  C    0.008728
    36  C    0.084327
    37  C    0.127006
    38  C    0.047253
    39  O   -0.187733
    40  C   -0.005818
    41  C    0.212780
    42  O   -0.255769
    43  O   -0.305087
    44  C    0.157755
    45  H   -0.018103
    46  H   -0.017871
    47  H   -0.041241
    48  H    0.000795
    49  H   -0.004248
    50  H    0.025319
    51  H    0.016252
    52  H    0.016263
    53  H    0.011337
    54  H    0.044652
    55  H    0.017600
    56  H    0.017811
    57  H    0.005844
    58  H    0.026171
    59  H    0.038753
    60  H    0.037536
    61  H    0.034184
    62  H    0.030818
    63  H    0.015529
    64  H    0.009138
    65  H    0.022258
    66  H    0.012529
    67  H    0.004482
    68  H    0.004550
    69  H    0.004808
    70  H    0.006501
    71  H    0.018510
    72  H    0.032381
    73  H    0.049727
    74  H    0.009423
    75  H    0.045289
    76  H    0.034749
    77  H    0.042650
    78  H    0.045996
    79  H    0.053935
    80  Mg   0.838746
    81  C   -0.016606
    82  C   -0.087609
    83  C   -0.045681
    84  C   -0.064551
    85  N   -0.254496
    86  C   -0.049717
    87  C   -0.015256
    88  C   -0.090562
    89  C    0.045644
    90  C    0.114440
    91  C    0.062348
    92  C   -0.077597
    93  H    0.033426
    94  N   -0.423315
    95  C    0.162721
    96  C   -0.174904
    97  C   -0.008313
    98  C    0.152032
    99  C    0.099499
   100  C    0.015077
   101  O   -0.253794
   102  C    0.061458
   103  N   -0.350129
   104  C    0.037481
   105  C   -0.019646
   106  C   -0.034915
   107  C    0.089218
   108  C    0.073844
   109  C    0.034711
   110  C   -0.007612
   111  N   -0.324443
   112  C    0.079330
   113  C   -0.161761
   114  C    0.002542
   115  C    0.097182
   116  C    0.131202
   117  C    0.043406
   118  O   -0.187455
   119  C    0.000445
   120  C    0.211151
   121  O   -0.249717
   122  O   -0.305696
   123  C    0.152196
   124  H   -0.019954
   125  H   -0.016113
   126  H   -0.040127
   127  H   -0.000960
   128  H   -0.004229
   129  H    0.022258
   130  H    0.014329
   131  H    0.016005
   132  H    0.014791
   133  H    0.037978
   134  H    0.020517
   135  H    0.020279
   136  H    0.008940
   137  H    0.025622
   138  H    0.039331
   139  H    0.038336
   140  H    0.035464
   141  H    0.033256
   142  H    0.014039
   143  H    0.012173
   144  H    0.024615
   145  H    0.011456
   146  H    0.005467
   147  H    0.005528
   148  H    0.004001
   149  H    0.009863
   150  H    0.018901
   151  H    0.031289
   152  H    0.047482
   153  H    0.008827
   154  H    0.046415
   155  H    0.034665
   156  H    0.043726
   157  H    0.048641
   158  H    0.052988
 Sum of Mulliken charges =  -0.00000

 Dipole moment (field-independent basis, Debye):
    X=              0.4649    Y=             -1.9127    Z=              6.6293  Tot=              6.9153
 Quadrupole moment (field-independent basis, Debye-Ang):
   XX=           -480.0140   YY=           -464.9800   ZZ=           -535.8957
   XY=             15.9746   XZ=             15.5346   YZ=             16.9880

 Normal termination of Gaussian 16 at Fri Sep 10 14:38:34 2021.
