 Gaussian 16, Revision A.03,
 Gaussian 16:  ES64L-G16RevA.03 25-Dec-2016

 -----------------------------------
 #p cam-b3lyp/Def2SVP td=(nstates=5)
 -----------------------------------

 --------------------------------
 TDDFT excited states in gaussian
 --------------------------------
 Symbolic Z-matrix:
 Charge =  0 Multiplicity = 1

                         Standard orientation:
 ---------------------------------------------------------------------
 Center     Atomic      Atomic             Coordinates (Angstroms)
 Number     Number       Type             X           Y           Z
 ---------------------------------------------------------------------
      1         12           0        6.179495    1.016476    0.601000
      2          6           0        6.697223   -2.293110   -0.660274
      3          6           0        7.179156    2.174790   -2.448927
      4          6           0        6.166947    3.940457    1.828515
      5          6           0        6.325070   -0.341664    3.807232
      6          7           0        6.829082   -0.025766   -1.240851
      7          6           0        6.926098   -1.298168   -1.613348
      8          6           0        7.220362   -1.476350   -3.132898
      9          6           0        7.897365   -0.062855   -3.425639
     10          6           0        7.237029    0.754445   -2.329327
     11          6           0        9.406514   -0.052663   -3.204582
     12          6           0        5.913248   -1.670455   -3.972843
     13          6           0        6.124749   -2.173539   -5.403762
     14          1           0        5.145596   -3.084043   -5.977860
     15          7           0        6.135127    2.779528   -0.289242
     16          6           0        6.568727    3.066197   -1.540281
     17          6           0        6.320503    4.510667   -1.736676
     18          6           0        5.882823    5.078743   -0.431372
     19          6           0        6.071747    3.946357    0.438908
     20          6           0        6.455043    5.195954   -3.061829
     21          6           0        5.384843    6.431110   -0.029811
     22          8           0        5.280132    6.781183    1.195366
     23          6           0        5.102967    7.378714   -1.123262
     24          7           0        6.456099    1.744723    2.537693
     25          6           0        6.341790    3.049855    2.807037
     26          6           0        6.298593    3.300569    4.285284
     27          6           0        6.162407    1.865990    4.973173
     28          6           0        6.237505    0.986156    3.700961
     29          6           0        7.509727    4.036392    4.874971
     30          6           0        4.971153    1.661110    5.942377
     31          6           0        3.670305    1.699853    5.172058
     32          7           0        6.282213   -0.976339    1.454921
     33          6           0        6.356814   -1.307785    2.815528
     34          6           0        6.518204   -2.771218    2.895436
     35          6           0        6.543079   -3.190353    1.566695
     36          6           0        6.432289   -2.057610    0.710594
     37          6           0        6.678386   -3.527996    4.089615
     38          6           0        6.662235   -4.329141    0.670692
     39          8           0        6.688078   -5.551568    0.820684
     40          6           0        6.889270   -3.782067   -0.807480
     41          6           0        5.949350   -4.525786   -1.716733
     42          8           0        4.714461   -4.370404   -1.625780
     43          8           0        6.651672   -5.113864   -2.697269
     44          6           0        5.775746   -5.844576   -3.651716
     45          1           0        7.697491    2.656000   -3.280616
     46          1           0        6.055476    4.920530    2.296991
     47          1           0        6.292570   -0.844989    4.775251
     48          1           0        7.918376   -2.279596   -3.369535
     49          1           0        7.621554    0.325239   -4.405962
     50          1           0        9.749951   -0.985336   -2.757265
     51          1           0        9.596603    0.784491   -2.532620
     52          1           0        9.932097    0.181230   -4.130776
     53          1           0        5.472436   -0.695800   -4.182107
     54          1           0        5.217873   -2.333323   -3.456718
     55          1           0        7.134541   -2.559806   -5.545278
     56          1           0        6.064357   -1.319540   -6.078475
     57          1           0        6.950452    4.559063   -3.793597
     58          1           0        7.140686    6.031148   -2.920218
     59          1           0        5.498328    5.564473   -3.432267
     60          1           0        6.010864    7.536349   -1.705862
     61          1           0        4.671849    8.261514   -0.652463
     62          1           0        4.377452    6.929153   -1.801843
     63          1           0        5.435782    3.908784    4.553719
     64          1           0        7.038365    1.614533    5.571621
     65          1           0        7.249772    4.953325    5.404463
     66          1           0        8.209177    4.237917    4.064139
     67          1           0        8.124321    3.439004    5.547888
     68          1           0        4.934718    2.467409    6.674156
     69          1           0        5.018070    0.719104    6.488887
     70          1           0        3.463290    2.766813    5.097402
     71          1           0        2.883973    1.187512    5.727395
     72          1           0        3.796825    1.320726    4.157789
     73          1           0        6.045397   -4.408491    3.979963
     74          1           0        6.398952   -2.946109    4.967639
     75          1           0        7.746692   -3.740554    4.052205
     76          1           0        7.933396   -3.971171   -1.054793
     77          1           0        6.131645   -6.874179   -3.690269
     78          1           0        5.782473   -5.271832   -4.579252
     79          1           0        4.742102   -5.995723   -3.338551
     80         12           0       -6.985361    0.096695   -0.277974
     81          6           0       -4.402984   -2.361244    0.132991
     82          6           0       -4.548347    2.277903   -1.246435
     83          6           0       -9.163827    2.402785   -0.217535
     84          6           0       -8.998036   -1.877315    1.770957
     85          7           0       -4.795438   -0.130339   -0.489975
     86          6           0       -3.933291   -1.128053   -0.365082
     87          6           0       -2.502034   -0.808864   -0.874186
     88          6           0       -2.546564    0.789931   -0.730166
     89          6           0       -4.052555    1.005631   -0.864846
     90          6           0       -2.114144    1.282975    0.640699
     91          6           0       -2.287010   -1.245456   -2.365889
     92          6           0       -0.829282   -1.247960   -2.831481
     93          1           0       -0.402641   -2.275036   -3.777820
     94          7           0       -6.978487    1.892343   -1.123071
     95          6           0       -5.899040    2.624303   -1.469934
     96          6           0       -6.426385    3.876325   -2.034312
     97          6           0       -7.901885    3.893117   -1.841060
     98          6           0       -8.073177    2.713795   -1.016473
     99          6           0       -5.562427    4.873699   -2.750014
    100          6           0       -8.978810    4.824524   -2.308933
    101          8           0      -10.164687    4.780135   -1.824628
    102          6           0       -8.580159    5.851101   -3.282949
    103          7           0       -8.738790    0.351765    0.809584
    104          6           0       -9.529286    1.420227    0.606069
    105          6           0      -10.862087    1.251988    1.295823
    106          6           0      -10.893398   -0.263265    1.806306
    107          6           0       -9.474454   -0.702303    1.382961
    108          6           0      -11.125125    2.190866    2.472970
    109          6           0      -12.100465   -1.132085    1.358172
    110          6           0      -12.040047   -1.369236   -0.133639
    111          7           0       -6.840593   -1.861701    0.622999
    112          6           0       -7.786769   -2.484895    1.465894
    113          6           0       -7.192731   -3.758959    1.920115
    114          6           0       -5.922939   -3.777932    1.323667
    115          6           0       -5.730744   -2.589532    0.568501
    116          6           0       -7.799851   -4.689358    2.809998
    117          6           0       -4.697299   -4.528144    1.169779
    118          8           0       -4.315823   -5.647812    1.508256
    119          6           0       -3.609562   -3.586117    0.494639
    120          6           0       -2.958875   -4.354575   -0.622762
    121          8           0       -3.615824   -4.694106   -1.622638
    122          8           0       -1.627574   -4.372160   -0.428569
    123          6           0       -0.936915   -5.113610   -1.517176
    124          1           0       -3.841412    3.102290   -1.343974
    125          1           0       -9.990778    3.115931   -0.250099
    126          1           0       -9.600186   -2.594805    2.332473
    127          1           0       -1.702535   -1.214839   -0.266115
    128          1           0       -2.017408    1.274925   -1.546338
    129          1           0       -1.960688    0.467764    1.332099
    130          1           0       -2.911720    1.927390    0.986602
    131          1           0       -1.229650    1.920037    0.550449
    132          1           0       -2.694398   -0.470633   -3.028014
    133          1           0       -2.726367   -2.206816   -2.548608
    134          1           0       -0.127906   -1.184965   -1.990617
    135          1           0       -0.645824   -0.334583   -3.402525
    136          1           0       -4.496364    4.670620   -2.589823
    137          1           0       -5.729240    5.844013   -2.269868
    138          1           0       -5.806697    4.957817   -3.811115
    139          1           0       -7.789465    6.464671   -2.857743
    140          1           0       -9.503375    6.361615   -3.563860
    141          1           0       -8.154349    5.353362   -4.161341
    142          1           0      -11.678997    1.405850    0.601498
    143          1           0      -10.926320   -0.322769    2.904125
    144          1           0      -12.045593    2.793038    2.353756
    145          1           0      -10.263557    2.833567    2.596115
    146          1           0      -11.191909    1.705241    3.445034
    147          1           0      -13.038388   -0.605520    1.550991
    148          1           0      -12.157265   -2.088195    1.867702
    149          1           0      -12.492473   -0.462488   -0.546189
    150          1           0      -12.612387   -2.254222   -0.404335
    151          1           0      -11.002150   -1.408594   -0.484180
    152          1           0       -7.621442   -5.674444    2.399788
    153          1           0       -8.863673   -4.492734    2.925740
    154          1           0       -7.241153   -4.476775    3.725387
    155          1           0       -2.894433   -3.304499    1.268489
    156          1           0       -0.339955   -5.897543   -1.040975
    157          1           0       -0.390539   -4.348337   -2.099904
    158          1           0       -1.550425   -5.696693   -2.193993
 ---------------------------------------------------------------------

 SCF Done:  E(RCAM-B3LYP) =  -4069.81189981     A.U. after   19 cycles

 Excitation energies and oscillator strengths:

 Excited State   1:      Singlet-A      1.6636 eV  745.27 nm  f=0.0047  <S**2>=0.000
     309 -> 315       -0.11412
     310 -> 316        0.12691
     311 -> 313       -0.45696
     312 -> 314        0.51265
 This state for optimization and/or second-order correction.
 Total Energy, E(TD-HF/TD-DFT) =  -4069.75076328
 Copying the excited state density for this state as the 1-particle RhoCI density.

 Excited State   2:      Singlet-A      1.6899 eV  733.67 nm  f=0.7320  <S**2>=0.000
     309 -> 315        0.13298
     310 -> 316        0.11761
     311 -> 313        0.51131
     312 -> 314        0.45588

 Excited State   3:      Singlet-A      2.1845 eV  567.56 nm  f=0.0961  <S**2>=0.000
     310 -> 314        0.63715
     312 -> 316       -0.26946

 Excited State   4:      Singlet-A      2.1930 eV  565.37 nm  f=0.1045  <S**2>=0.000
     309 -> 313        0.63499
     311 -> 315       -0.27600

 Excited State   5:      Singlet-A      2.5688 eV  482.65 nm  f=0.0000  <S**2>=0.000
     312 -> 313        0.70679

 The electronic state is 1-A.
 Alpha  occ. eigenvalues --  -46.88036 -46.87493 -19.26510 -19.25848 -19.19269
 Alpha  occ. eigenvalues --  -19.19061 -19.18770 -19.18584 -19.18367 -19.17823
 Alpha  occ. eigenvalues --  -14.42680 -14.42320 -14.41676 -14.41195 -14.39642
 Alpha  occ. eigenvalues --  -14.39188 -14.38816 -14.38428 -10.39322 -10.38698
 Alpha  occ. eigenvalues --  -10.35695 -10.35265 -10.34589 -10.33991 -10.31897
 Alpha  occ. eigenvalues --  -10.31622 -10.31145 -10.31116 -10.31095 -10.30830
 Alpha  occ. eigenvalues --  -10.30790 -10.30733 -10.30433 -10.30230 -10.30182
 Alpha  occ. eigenvalues --  -10.30134 -10.29998 -10.29853 -10.29731 -10.29484
 Alpha  occ. eigenvalues --  -10.29285 -10.29236 -10.28974 -10.28765 -10.28596
 Alpha  occ. eigenvalues --  -10.28457 -10.28329 -10.28287 -10.28224 -10.28009
 Alpha  occ. eigenvalues --  -10.27950 -10.27922 -10.27833 -10.27815 -10.27720
 Alpha  occ. eigenvalues --  -10.27699 -10.27648 -10.27631 -10.27500 -10.27393
 Alpha  occ. eigenvalues --  -10.27372 -10.27353 -10.27306 -10.27290 -10.27248
 Alpha  occ. eigenvalues --  -10.26957 -10.26762 -10.26677 -10.26421 -10.26407
 Alpha  occ. eigenvalues --  -10.26375 -10.26320 -10.26236 -10.26028 -10.25990
 Alpha  occ. eigenvalues --  -10.25810 -10.25778 -10.25697 -10.25611 -10.25284
 Alpha  occ. eigenvalues --  -10.25047 -10.25012 -10.24907 -10.24696 -10.24624
 Alpha  occ. eigenvalues --  -10.24525  -3.16780  -3.16243  -1.91662  -1.91248
 Alpha  occ. eigenvalues --   -1.91125  -1.91090  -1.90714  -1.90551  -1.16862
 Alpha  occ. eigenvalues --   -1.16168  -1.08823  -1.08412  -1.07464  -1.06885
 Alpha  occ. eigenvalues --   -1.06840  -1.06543  -1.04810  -1.04313  -1.03987
 Alpha  occ. eigenvalues --   -1.03493  -1.03462  -1.02876  -1.02637  -1.01943
 Alpha  occ. eigenvalues --   -0.92194  -0.91778  -0.89733  -0.89408  -0.89338
 Alpha  occ. eigenvalues --   -0.88923  -0.88496  -0.88075  -0.88067  -0.87896
 Alpha  occ. eigenvalues --   -0.87624  -0.87511  -0.87498  -0.86980  -0.85206
 Alpha  occ. eigenvalues --   -0.84778  -0.84143  -0.83720  -0.83207  -0.82873
 Alpha  occ. eigenvalues --   -0.82801  -0.82434  -0.81803  -0.81276  -0.80821
 Alpha  occ. eigenvalues --   -0.80177  -0.79022  -0.78481  -0.77433  -0.77149
 Alpha  occ. eigenvalues --   -0.76954  -0.76637  -0.76137  -0.75572  -0.75103
 Alpha  occ. eigenvalues --   -0.74617  -0.72987  -0.72529  -0.71885  -0.71385
 Alpha  occ. eigenvalues --   -0.70114  -0.69622  -0.69095  -0.68611  -0.67864
 Alpha  occ. eigenvalues --   -0.67455  -0.67409  -0.66971  -0.65510  -0.65075
 Alpha  occ. eigenvalues --   -0.65031  -0.64841  -0.64576  -0.64483  -0.64392
 Alpha  occ. eigenvalues --   -0.64033  -0.62519  -0.61932  -0.60672  -0.60193
 Alpha  occ. eigenvalues --   -0.60024  -0.59585  -0.59205  -0.58801  -0.58723
 Alpha  occ. eigenvalues --   -0.58221  -0.57803  -0.57527  -0.57279  -0.57045
 Alpha  occ. eigenvalues --   -0.56525  -0.56202  -0.56027  -0.55744  -0.55551
 Alpha  occ. eigenvalues --   -0.55549  -0.55221  -0.55021  -0.54739  -0.54214
 Alpha  occ. eigenvalues --   -0.54118  -0.53681  -0.53524  -0.53447  -0.53142
 Alpha  occ. eigenvalues --   -0.53043  -0.52992  -0.52919  -0.52645  -0.52642
 Alpha  occ. eigenvalues --   -0.52499  -0.52256  -0.52097  -0.51844  -0.51711
 Alpha  occ. eigenvalues --   -0.51426  -0.51406  -0.50974  -0.50818  -0.50350
 Alpha  occ. eigenvalues --   -0.50241  -0.50148  -0.49812  -0.49740  -0.49720
 Alpha  occ. eigenvalues --   -0.49433  -0.49303  -0.49302  -0.48992  -0.48874
 Alpha  occ. eigenvalues --   -0.48803  -0.48686  -0.48657  -0.48309  -0.48224
 Alpha  occ. eigenvalues --   -0.48142  -0.47917  -0.47516  -0.47385  -0.47011
 Alpha  occ. eigenvalues --   -0.46932  -0.46779  -0.46578  -0.46524  -0.46371
 Alpha  occ. eigenvalues --   -0.46326  -0.46095  -0.46020  -0.45867  -0.45548
 Alpha  occ. eigenvalues --   -0.45408  -0.45047  -0.44787  -0.44731  -0.44365
 Alpha  occ. eigenvalues --   -0.44304  -0.44279  -0.44274  -0.44236  -0.43932
 Alpha  occ. eigenvalues --   -0.43895  -0.43723  -0.43708  -0.43604  -0.43259
 Alpha  occ. eigenvalues --   -0.43240  -0.43140  -0.42921  -0.42870  -0.42716
 Alpha  occ. eigenvalues --   -0.42498  -0.42405  -0.42223  -0.41918  -0.41778
 Alpha  occ. eigenvalues --   -0.41755  -0.41460  -0.41354  -0.41239  -0.41092
 Alpha  occ. eigenvalues --   -0.41063  -0.40798  -0.40779  -0.40556  -0.40500
 Alpha  occ. eigenvalues --   -0.40471  -0.40316  -0.39960  -0.39651  -0.39293
 Alpha  occ. eigenvalues --   -0.38679  -0.38191  -0.37979  -0.37535  -0.37493
 Alpha  occ. eigenvalues --   -0.37404  -0.37099  -0.36973  -0.36940  -0.36427
 Alpha  occ. eigenvalues --   -0.36415  -0.35957  -0.34511  -0.34075  -0.34018
 Alpha  occ. eigenvalues --   -0.33519  -0.33413  -0.32990  -0.31589  -0.31261
 Alpha  occ. eigenvalues --   -0.31142  -0.30791  -0.30226  -0.29718  -0.29683
 Alpha  occ. eigenvalues --   -0.29538  -0.29170  -0.29037  -0.24309  -0.23859
 Alpha  occ. eigenvalues --   -0.21351  -0.20949
 Alpha virt. eigenvalues --   -0.09000  -0.08624  -0.01980  -0.01520  -0.00292
 Alpha virt. eigenvalues --    0.00133   0.01989   0.02398   0.02758   0.03381
 Alpha virt. eigenvalues --    0.04493   0.04861   0.04937   0.05535   0.05947

 Mulliken charges:
               1
     1  Mg   0.836631
     2  C   -0.003530
     3  C   -0.094355
     4  C   -0.046075
     5  C   -0.063652
     6  N   -0.256863
     7  C   -0.052514
     8  C   -0.013874
     9  C   -0.086884
    10  C    0.045881
    11  C    0.104695
    12  C    0.053546
    13  C   -0.071923
    14  H    0.036025
    15  N   -0.433164
    16  C    0.167720
    17  C   -0.177545
    18  C   -0.004464
    19  C    0.148090
    20  C    0.110143
    21  C    0.011450
    22  O   -0.249513
    23  C    0.062882
    24  N   -0.341054
    25  C    0.041091
    26  C   -0.028180
    27  C   -0.024157
    28  C    0.074689
    29  C    0.076020
    30  C    0.035071
    31  C   -0.004560
    32  N   -0.310657
    33  C    0.080353
    34  C   -0.168953
    35  C    0.008826
    36  C    0.082751
    37  C    0.127135
    38  C    0.046337
    39  O   -0.187323
    40  C   -0.005383
    41  C    0.213432
    42  O   -0.258648
    43  O   -0.304327
    44  C    0.157908
    45  H   -0.017284
    46  H   -0.016694
    47  H   -0.040692
    48  H    0.001445
    49  H   -0.004045
    50  H    0.025774
    51  H    0.016630
    52  H    0.017074
    53  H    0.010430
    54  H    0.043197
    55  H    0.018600
    56  H    0.018108
    57  H    0.006116
    58  H    0.027290
    59  H    0.038533
    60  H    0.037987
    61  H    0.035666
    62  H    0.030068
    63  H    0.016328
    64  H    0.010077
    65  H    0.023467
    66  H    0.012704
    67  H    0.005233
    68  H    0.006893
    69  H    0.005550
    70  H    0.008370
    71  H    0.018793
    72  H    0.027827
    73  H    0.048670
    74  H    0.009634
    75  H    0.046478
    76  H    0.035770
    77  H    0.044012
    78  H    0.046606
    79  H    0.052285
    80  Mg   0.837369
    81  C   -0.016749
    82  C   -0.087944
    83  C   -0.045836
    84  C   -0.065402
    85  N   -0.254508
    86  C   -0.049878
    87  C   -0.015072
    88  C   -0.090441
    89  C    0.045771
    90  C    0.114488
    91  C    0.062854
    92  C   -0.077938
    93  H    0.035660
    94  N   -0.423409
    95  C    0.162697
    96  C   -0.174886
    97  C   -0.008193
    98  C    0.152005
    99  C    0.099550
   100  C    0.015293
   101  O   -0.253601
   102  C    0.061328
   103  N   -0.350142
   104  C    0.037374
   105  C   -0.019703
   106  C   -0.034797
   107  C    0.089105
   108  C    0.073799
   109  C    0.034831
   110  C   -0.007616
   111  N   -0.324182
   112  C    0.078688
   113  C   -0.163433
   114  C    0.002571
   115  C    0.096058
   116  C    0.131530
   117  C    0.042084
   118  O   -0.186774
   119  C    0.001494
   120  C    0.211145
   121  O   -0.252562
   122  O   -0.304431
   123  C    0.152205
   124  H   -0.020047
   125  H   -0.016045
   126  H   -0.040784
   127  H    0.001740
   128  H   -0.005038
   129  H    0.022972
   130  H    0.013922
   131  H    0.016103
   132  H    0.012325
   133  H    0.037714
   134  H    0.024768
   135  H    0.016751
   136  H    0.008282
   137  H    0.025760
   138  H    0.038993
   139  H    0.038031
   140  H    0.035929
   141  H    0.033558
   142  H    0.014087
   143  H    0.012188
   144  H    0.024763
   145  H    0.011608
   146  H    0.005392
   147  H    0.005934
   148  H    0.003533
   149  H    0.010743
   150  H    0.017684
   151  H    0.030325
   152  H    0.046113
   153  H    0.008138
   154  H    0.046898
   155  H    0.036046
   156  H    0.047835
   157  H    0.052957
   158  H    0.050448
 Sum of Mulliken charges =  -0.00000

 Dipole moment (field-independent basis, Debye):
    X=              4.5241    Y=              6.4624    Z=             -3.1133  Tot=              8.4807
 Quadrupole moment (field-independent basis, Debye-Ang):
   XX=           -494.0075   YY=           -561.0251   ZZ=           -465.1163
   XY=             15.7292   XZ=            -38.0589   YZ=             -8.4986

 Normal termination of Gaussian 16 at Sat Sep 11 12:10:05 2021.
