 Gaussian 16, Revision A.03,
 Gaussian 16:  ES64L-G16RevA.03 25-Dec-2016

 -----------------------------------
 #p cam-b3lyp/Def2SVP td=(nstates=5)
 -----------------------------------

 --------------------------------
 TDDFT excited states in gaussian
 --------------------------------
 Symbolic Z-matrix:
 Charge =  0 Multiplicity = 1

                         Standard orientation:
 ---------------------------------------------------------------------
 Center     Atomic      Atomic             Coordinates (Angstroms)
 Number     Number       Type             X           Y           Z
 ---------------------------------------------------------------------
      1         12           0        6.736178    0.482498    1.030557
      2          6           0        7.253700   -2.422606   -0.995464
      3          6           0        8.001108    2.323869   -1.548662
      4          6           0        6.713573    2.999409    2.959615
      5          6           0        6.594763   -1.645903    3.786563
      6          7           0        7.495440   -0.091056   -0.968244
      7          6           0        7.584055   -1.231456   -1.645596
      8          6           0        7.989335   -1.034317   -3.136991
      9          6           0        8.727484    0.373458   -3.013286
     10          6           0        8.008491    0.918201   -1.791718
     11          6           0       10.214757    0.255766   -2.696003
     12          6           0        6.745814   -0.947852   -4.084571
     13          6           0        7.052383   -1.083149   -5.578915
     14          1           0        6.094493   -1.771737   -6.430762
     15          7           0        6.811586    2.413159    0.618596
     16          6           0        7.348466    2.985204   -0.485854
     17          6           0        7.157997    4.442616   -0.323516
     18          6           0        6.637582    4.683174    1.051036
     19          6           0        6.726015    3.360202    1.614334
     20          6           0        7.414074    5.432841   -1.417879
     21          6           0        6.149436    5.912598    1.749865
     22          8           0        5.960734    5.946836    3.013903
     23          6           0        5.980232    7.117701    0.917916
     24          7           0        6.883568    0.684602    3.103010
     25          6           0        6.786619    1.883482    3.688050
     26          6           0        6.636835    1.754922    5.174985
     27          6           0        6.406588    0.201361    5.463411
     28          6           0        6.554086   -0.331609    4.016878
     29          6           0        7.819664    2.259718    6.012903
     30          6           0        5.138723   -0.184501    6.265937
     31          6           0        3.902811    0.109145    5.445333
     32          7           0        6.715079   -1.663839    1.352797
     33          6           0        6.674930   -2.330973    2.585678
     34          6           0        6.787294   -3.773195    2.300304
     35          6           0        6.902419   -3.844257    0.913386
     36          6           0        6.890771   -2.528234    0.369108
     37          6           0        6.832969   -4.813491    3.269908
     38          6           0        7.057329   -4.724507   -0.233358
     39          8           0        7.036170   -5.945034   -0.398765
     40          6           0        7.413389   -3.833659   -1.504357
     41          6           0        6.525266   -4.278367   -2.634304
     42          8           0        5.292051   -4.092406   -2.589955
     43          8           0        7.283803   -4.632774   -3.682902
     44          6           0        6.463318   -5.056553   -4.848822
     45          1           0        8.595726    2.974114   -2.193295
     46          1           0        6.594698    3.833752    3.654006
     47          1           0        6.473178   -2.375022    4.589717
     48          1           0        8.679998   -1.784144   -3.523216
     49          1           0        8.539422    1.008975   -3.878429
     50          1           0       10.495567   -0.774831   -2.479353
     51          1           0       10.376595    0.886302   -1.821517
     52          1           0       10.816734    0.690478   -3.494392
     53          1           0        6.350818    0.067897   -4.067437
     54          1           0        5.993836   -1.685637   -3.802565
     55          1           0        8.058488   -1.468796   -5.746064
     56          1           0        7.068915   -0.084685   -6.015946
     57          1           0        7.945809    4.978340   -2.252883
     58          1           0        8.110620    6.171709   -1.022143
     59          1           0        6.499829    5.927964   -1.745509
     60          1           0        6.934526    7.373848    0.457199
     61          1           0        5.539803    7.872648    1.568245
     62          1           0        5.296505    6.888902    0.099920
     63          1           0        5.773844    2.316070    5.531053
     64          1           0        7.226156   -0.234303    6.035407
     65          1           0        7.546279    3.024707    6.740061
     66          1           0        8.585087    2.625776    5.329222
     67          1           0        8.363010    1.483360    6.550918
     68          1           0        5.069302    0.411898    7.175021
     69          1           0        5.116103   -1.235040    6.555950
     70          1           0        3.733109    1.169026    5.631571
     71          1           0        3.061515   -0.488725    5.797445
     72          1           0        4.096146   -0.007418    4.378787
     73          1           0        6.185124   -5.606708    2.896984
     74          1           0        6.503608   -4.459319    4.246477
     75          1           0        7.894384   -5.060296    3.251423
     76          1           0        8.467570   -4.003694   -1.720953
     77          1           0        6.791207   -6.058852   -5.124720
     78          1           0        6.558102   -4.269329   -5.596953
     79          1           0        5.404666   -5.232478   -4.654795
     80         12           0       -6.347969    0.444875   -0.918454
     81          6           0       -8.515444   -1.695438    0.978953
     82          6           0       -8.671090    2.909002   -0.511190
     83          6           0       -4.682147    2.215429   -2.957471
     84          6           0       -4.790696   -2.431208   -2.122089
     85          7           0       -8.300375    0.480701    0.120348
     86          6           0       -8.992670   -0.373610    0.858741
     87          6           0      -10.226179    0.243977    1.570510
     88          6           0      -10.477502    1.484890    0.582663
     89          6           0       -9.056956    1.666330    0.051813
     90          6           0      -11.385543    1.147662   -0.588277
     91          6           0       -9.896475    0.726607    3.026665
     92          6           0      -11.118359    1.054833    3.887491
     93          1           0      -11.064851    0.754009    5.315473
     94          7           0       -6.370736    2.404041   -1.234270
     95          6           0       -7.388865    3.255745   -0.990777
     96          6           0       -6.913460    4.582292   -1.413187
     97          6           0       -5.592512    4.417250   -2.078449
     98          6           0       -5.504934    2.971861   -2.135643
     99          6           0       -7.656145    5.849501   -1.103318
    100          6           0       -4.581946    5.398027   -2.591305
    101          8           0       -3.613519    5.033578   -3.347720
    102          6           0       -4.812572    6.811407   -2.258673
    103          7           0       -5.081299   -0.036106   -2.495326
    104          6           0       -4.442759    0.924146   -3.186768
    105          6           0       -3.381153    0.335297   -4.084908
    106          6           0       -3.275051   -1.205919   -3.671389
    107          6           0       -4.405898   -1.264534   -2.621071
    108          6           0       -3.646097    0.441975   -5.586516
    109          6           0       -1.868966   -1.732714   -3.273809
    110          6           0       -1.425241   -1.092359   -1.978263
    111          7           0       -6.459502   -1.672962   -0.505691
    112          6           0       -5.737361   -2.705453   -1.143316
    113          6           0       -6.237646   -3.985474   -0.601393
    114          6           0       -7.240081   -3.606770    0.304254
    115          6           0       -7.370237   -2.191672    0.310372
    116          6           0       -5.800345   -5.282235   -0.992915
    117          6           0       -8.225050   -4.082897    1.248630
    118          8           0       -8.514028   -5.180638    1.723187
    119          6           0       -9.181573   -2.873419    1.634134
    120          6           0       -9.325178   -2.853777    3.131295
    121          8           0       -8.345710   -2.607612    3.857010
    122          8           0      -10.631176   -2.912864    3.449507
    123          6           0      -10.825388   -2.885046    4.923728
    124          1           0       -9.431735    3.679962   -0.637350
    125          1           0       -4.007352    2.784247   -3.601342
    126          1           0       -4.289081   -3.367946   -2.374213
    127          1           0      -11.101770   -0.393519    1.596912
    128          1           0      -10.795422    2.367990    1.130774
    129          1           0      -11.617651    0.093757   -0.627618
    130          1           0      -10.845212    1.449466   -1.475972
    131          1           0      -12.285862    1.768020   -0.557981
    132          1           0       -9.429072    1.718518    2.977911
    133          1           0       -9.278387    0.011757    3.534200
    134          1           0      -12.047121    0.670754    3.448382
    135          1           0      -11.254829    2.138947    3.897306
    136          1           0       -8.674056    5.643101   -0.750241
    137          1           0       -7.799633    6.376389   -2.052887
    138          1           0       -7.110449    6.500438   -0.416915
    139          1           0       -5.781439    7.119712   -2.644291
    140          1           0       -3.938856    7.346648   -2.635514
    141          1           0       -4.861606    6.910769   -1.168567
    142          1           0       -2.423273    0.811450   -3.915095
    143          1           0       -3.576065   -1.870328   -4.494664
    144          1           0       -2.839451    0.962861   -6.136132
    145          1           0       -4.592102    0.946629   -5.731201
    146          1           0       -3.810094   -0.506547   -6.095051
    147          1           0       -1.131151   -1.449675   -4.028576
    148          1           0       -1.825523   -2.811730   -3.169711
    149          1           0       -1.013634   -0.132899   -2.305515
    150          1           0       -0.666982   -1.701215   -1.490030
    151          1           0       -2.283469   -0.879133   -1.330476
    152          1           0       -5.687173   -5.859893   -0.085161
    153          1           0       -4.869275   -5.235302   -1.553881
    154          1           0       -6.641704   -5.591004   -1.619050
    155          1           0      -10.136376   -3.038413    1.133422
    156          1           0      -11.411381   -3.771468    5.185557
    157          1           0      -11.275534   -1.899562    5.147208
    158          1           0       -9.949215   -3.018954    5.547294
 ---------------------------------------------------------------------

 SCF Done:  E(RCAM-B3LYP) =  -4069.81200221     A.U. after   19 cycles

 Excitation energies and oscillator strengths:

 Excited State   1:      Singlet-A      1.6648 eV  744.74 nm  f=0.0104  <S**2>=0.000
     309 -> 315       -0.10850
     310 -> 316        0.13247
     311 -> 313       -0.43346
     312 -> 314        0.53253
 This state for optimization and/or second-order correction.
 Total Energy, E(TD-HF/TD-DFT) =  -4069.75082201
 Copying the excited state density for this state as the 1-particle RhoCI density.

 Excited State   2:      Singlet-A      1.6890 eV  734.05 nm  f=0.7333  <S**2>=0.000
     309 -> 315        0.13810
     310 -> 316        0.11170
     311 -> 313        0.53135
     312 -> 314        0.43257

 Excited State   3:      Singlet-A      2.1848 eV  567.49 nm  f=0.0749  <S**2>=0.000
     309 -> 313        0.12857
     310 -> 314        0.62990
     312 -> 316       -0.26673

 Excited State   4:      Singlet-A      2.1934 eV  565.27 nm  f=0.1211  <S**2>=0.000
     309 -> 313        0.62773
     310 -> 314       -0.12739
     311 -> 315       -0.27318

 Excited State   5:      Singlet-A      2.6988 eV  459.41 nm  f=0.0000  <S**2>=0.000
     312 -> 313        0.70698

 The electronic state is 1-A.
 Alpha  occ. eigenvalues --  -46.87721 -46.87541 -19.26283 -19.26263 -19.19068
 Alpha  occ. eigenvalues --  -19.19020 -19.18727 -19.18637 -19.18111 -19.17944
 Alpha  occ. eigenvalues --  -14.42384 -14.42379 -14.41371 -14.41231 -14.39325
 Alpha  occ. eigenvalues --  -14.39238 -14.38513 -14.38479 -10.39074 -10.38996
 Alpha  occ. eigenvalues --  -10.35360 -10.35318 -10.34334 -10.34121 -10.31694
 Alpha  occ. eigenvalues --  -10.31679 -10.31339 -10.31193 -10.30923 -10.30843
 Alpha  occ. eigenvalues --  -10.30497 -10.30430 -10.30276 -10.30238 -10.30120
 Alpha  occ. eigenvalues --  -10.30007 -10.29842 -10.29760 -10.29553 -10.29323
 Alpha  occ. eigenvalues --  -10.29284 -10.29173 -10.28705 -10.28629 -10.28582
 Alpha  occ. eigenvalues --  -10.28528 -10.28297 -10.28294 -10.28064 -10.28048
 Alpha  occ. eigenvalues --  -10.27887 -10.27716 -10.27654 -10.27557 -10.27504
 Alpha  occ. eigenvalues --  -10.27403 -10.27389 -10.27382 -10.27371 -10.27359
 Alpha  occ. eigenvalues --  -10.27356 -10.27337 -10.27327 -10.27223 -10.27115
 Alpha  occ. eigenvalues --  -10.26949 -10.26682 -10.26609 -10.26365 -10.26309
 Alpha  occ. eigenvalues --  -10.26181 -10.26063 -10.25942 -10.25936 -10.25842
 Alpha  occ. eigenvalues --  -10.25791 -10.25757 -10.25692 -10.25352 -10.25286
 Alpha  occ. eigenvalues --  -10.24760 -10.24759 -10.24710 -10.24572 -10.24549
 Alpha  occ. eigenvalues --  -10.24398  -3.16463  -3.16291  -1.91345  -1.91173
 Alpha  occ. eigenvalues --   -1.90932  -1.90774  -1.90761  -1.90599  -1.16631
 Alpha  occ. eigenvalues --   -1.16555  -1.08574  -1.08551  -1.07128  -1.06892
 Alpha  occ. eigenvalues --   -1.06852  -1.06640  -1.04512  -1.04384  -1.03683
 Alpha  occ. eigenvalues --   -1.03544  -1.03157  -1.02914  -1.02335  -1.01991
 Alpha  occ. eigenvalues --   -0.91909  -0.91875  -0.89431  -0.89333  -0.89137
 Alpha  occ. eigenvalues --   -0.89052  -0.88199  -0.88054  -0.87793  -0.87666
 Alpha  occ. eigenvalues --   -0.87604  -0.87568  -0.87188  -0.87025  -0.84927
 Alpha  occ. eigenvalues --   -0.84899  -0.83847  -0.83698  -0.82876  -0.82828
 Alpha  occ. eigenvalues --   -0.82588  -0.82548  -0.81543  -0.81487  -0.80535
 Alpha  occ. eigenvalues --   -0.80335  -0.78715  -0.78526  -0.77145  -0.77026
 Alpha  occ. eigenvalues --   -0.76881  -0.76773  -0.75870  -0.75734  -0.74820
 Alpha  occ. eigenvalues --   -0.74665  -0.72697  -0.72573  -0.71604  -0.71468
 Alpha  occ. eigenvalues --   -0.69805  -0.69547  -0.68812  -0.68722  -0.67571
 Alpha  occ. eigenvalues --   -0.67491  -0.67165  -0.67110  -0.65232  -0.65168
 Alpha  occ. eigenvalues --   -0.64791  -0.64645  -0.64558  -0.64538  -0.64184
 Alpha  occ. eigenvalues --   -0.64038  -0.62259  -0.62165  -0.60357  -0.60229
 Alpha  occ. eigenvalues --   -0.59745  -0.59694  -0.58917  -0.58871  -0.58435
 Alpha  occ. eigenvalues --   -0.58304  -0.57540  -0.57448  -0.57234  -0.57107
 Alpha  occ. eigenvalues --   -0.56239  -0.56088  -0.55949  -0.55787  -0.55447
 Alpha  occ. eigenvalues --   -0.55357  -0.55270  -0.55103  -0.54466  -0.54338
 Alpha  occ. eigenvalues --   -0.53845  -0.53817  -0.53222  -0.53159  -0.53111
 Alpha  occ. eigenvalues --   -0.53037  -0.52862  -0.52791  -0.52680  -0.52586
 Alpha  occ. eigenvalues --   -0.52334  -0.52161  -0.51838  -0.51744  -0.51567
 Alpha  occ. eigenvalues --   -0.51560  -0.51129  -0.51069  -0.50479  -0.50384
 Alpha  occ. eigenvalues --   -0.49941  -0.49877  -0.49840  -0.49708  -0.49451
 Alpha  occ. eigenvalues --   -0.49394  -0.49150  -0.49102  -0.49040  -0.48997
 Alpha  occ. eigenvalues --   -0.48540  -0.48455  -0.48385  -0.48370  -0.48254
 Alpha  occ. eigenvalues --   -0.48239  -0.47625  -0.47482  -0.47224  -0.47012
 Alpha  occ. eigenvalues --   -0.46722  -0.46577  -0.46504  -0.46453  -0.46285
 Alpha  occ. eigenvalues --   -0.46141  -0.46094  -0.45959  -0.45768  -0.45704
 Alpha  occ. eigenvalues --   -0.45118  -0.45069  -0.44519  -0.44431  -0.44414
 Alpha  occ. eigenvalues --   -0.44353  -0.44066  -0.44026  -0.44025  -0.43953
 Alpha  occ. eigenvalues --   -0.43920  -0.43847  -0.43446  -0.43430  -0.43319
 Alpha  occ. eigenvalues --   -0.43276  -0.42958  -0.42826  -0.42783  -0.42672
 Alpha  occ. eigenvalues --   -0.42568  -0.42390  -0.41931  -0.41794  -0.41637
 Alpha  occ. eigenvalues --   -0.41552  -0.41477  -0.41334  -0.41074  -0.40879
 Alpha  occ. eigenvalues --   -0.40804  -0.40744  -0.40638  -0.40578  -0.40487
 Alpha  occ. eigenvalues --   -0.40321  -0.40194  -0.40143  -0.39334  -0.39201
 Alpha  occ. eigenvalues --   -0.38387  -0.38199  -0.37705  -0.37556  -0.37238
 Alpha  occ. eigenvalues --   -0.37208  -0.37121  -0.37090  -0.36684  -0.36664
 Alpha  occ. eigenvalues --   -0.36137  -0.36083  -0.34213  -0.34133  -0.33764
 Alpha  occ. eigenvalues --   -0.33758  -0.33116  -0.33056  -0.31258  -0.31196
 Alpha  occ. eigenvalues --   -0.30964  -0.30858  -0.29973  -0.29847  -0.29369
 Alpha  occ. eigenvalues --   -0.29247  -0.29220  -0.29095  -0.24008  -0.23917
 Alpha  occ. eigenvalues --   -0.21051  -0.20998
 Alpha virt. eigenvalues --   -0.08697  -0.08678  -0.01672  -0.01565   0.00019
 Alpha virt. eigenvalues --    0.00066   0.02270   0.02325   0.03207   0.03361
 Alpha virt. eigenvalues --    0.04778   0.04837   0.05112   0.05260   0.06208

 Mulliken charges:
               1
     1  Mg   0.838874
     2  C   -0.003362
     3  C   -0.094072
     4  C   -0.045709
     5  C   -0.063739
     6  N   -0.256790
     7  C   -0.052658
     8  C   -0.013999
     9  C   -0.087013
    10  C    0.046283
    11  C    0.104813
    12  C    0.053482
    13  C   -0.071577
    14  H    0.035156
    15  N   -0.433173
    16  C    0.168561
    17  C   -0.176939
    18  C   -0.003791
    19  C    0.148813
    20  C    0.110114
    21  C    0.012561
    22  O   -0.249671
    23  C    0.062277
    24  N   -0.341181
    25  C    0.041319
    26  C   -0.028167
    27  C   -0.024009
    28  C    0.074860
    29  C    0.076207
    30  C    0.035067
    31  C   -0.004597
    32  N   -0.310405
    33  C    0.080304
    34  C   -0.169596
    35  C    0.008224
    36  C    0.082825
    37  C    0.127306
    38  C    0.045873
    39  O   -0.188691
    40  C   -0.005290
    41  C    0.213055
    42  O   -0.258022
    43  O   -0.304563
    44  C    0.157894
    45  H   -0.017654
    46  H   -0.016788
    47  H   -0.041250
    48  H    0.000811
    49  H   -0.004017
    50  H    0.025411
    51  H    0.016536
    52  H    0.016595
    53  H    0.011431
    54  H    0.043360
    55  H    0.018010
    56  H    0.018245
    57  H    0.005790
    58  H    0.026668
    59  H    0.040271
    60  H    0.037144
    61  H    0.035510
    62  H    0.032323
    63  H    0.016731
    64  H    0.009381
    65  H    0.023169
    66  H    0.012386
    67  H    0.004722
    68  H    0.006358
    69  H    0.004941
    70  H    0.008761
    71  H    0.019063
    72  H    0.028825
    73  H    0.047617
    74  H    0.009450
    75  H    0.045885
    76  H    0.035139
    77  H    0.043052
    78  H    0.046390
    79  H    0.052874
    80  Mg   0.837946
    81  C   -0.017043
    82  C   -0.088024
    83  C   -0.045577
    84  C   -0.064591
    85  N   -0.254557
    86  C   -0.049833
    87  C   -0.015071
    88  C   -0.090475
    89  C    0.045678
    90  C    0.114465
    91  C    0.062564
    92  C   -0.077765
    93  H    0.034685
    94  N   -0.423382
    95  C    0.162809
    96  C   -0.174894
    97  C   -0.008085
    98  C    0.152119
    99  C    0.099451
   100  C    0.015399
   101  O   -0.253906
   102  C    0.061343
   103  N   -0.350221
   104  C    0.037644
   105  C   -0.019552
   106  C   -0.035299
   107  C    0.089290
   108  C    0.073985
   109  C    0.034801
   110  C   -0.008387
   111  N   -0.324218
   112  C    0.078757
   113  C   -0.162551
   114  C    0.002144
   115  C    0.096448
   116  C    0.131253
   117  C    0.042517
   118  O   -0.187845
   119  C    0.000881
   120  C    0.211243
   121  O   -0.250954
   122  O   -0.305687
   123  C    0.152081
   124  H   -0.020065
   125  H   -0.016074
   126  H   -0.039290
   127  H   -0.000807
   128  H   -0.004545
   129  H    0.022349
   130  H    0.014360
   131  H    0.015977
   132  H    0.013941
   133  H    0.037717
   134  H    0.020670
   135  H    0.019469
   136  H    0.008593
   137  H    0.025673
   138  H    0.039521
   139  H    0.038098
   140  H    0.035496
   141  H    0.034052
   142  H    0.014263
   143  H    0.012241
   144  H    0.024291
   145  H    0.011107
   146  H    0.005581
   147  H    0.006787
   148  H    0.005655
   149  H    0.009604
   150  H    0.022715
   151  H    0.028646
   152  H    0.046420
   153  H    0.009832
   154  H    0.046636
   155  H    0.034807
   156  H    0.043786
   157  H    0.049358
   158  H    0.053552
 Sum of Mulliken charges =  -0.00000

 Dipole moment (field-independent basis, Debye):
    X=              0.0261    Y=              6.9433    Z=             -2.9588  Tot=              7.5475
 Quadrupole moment (field-independent basis, Debye-Ang):
   XX=           -434.4269   YY=           -539.9645   ZZ=           -479.8402
   XY=            -23.0850   XZ=            -19.5944   YZ=              2.6355

 Normal termination of Gaussian 16 at Sat Sep 11 04:59:46 2021.
