 Gaussian 16, Revision A.03,
 Gaussian 16:  ES64L-G16RevA.03 25-Dec-2016

 -----------------------------------
 #p cam-b3lyp/Def2SVP td=(nstates=5)
 -----------------------------------

 --------------------------------
 TDDFT excited states in gaussian
 --------------------------------
 Symbolic Z-matrix:
 Charge =  0 Multiplicity = 1

                         Standard orientation:
 ---------------------------------------------------------------------
 Center     Atomic      Atomic             Coordinates (Angstroms)
 Number     Number       Type             X           Y           Z
 ---------------------------------------------------------------------
      1         12           0        4.903971   -1.260149    0.474989
      2          6           0        5.587450    1.964178   -0.921000
      3          6           0        5.676173    0.061184    3.524718
      4          6           0        4.748792   -4.195552    1.664925
      5          6           0        5.294137   -2.567985   -2.731722
      6          7           0        5.535648    0.768957    1.094954
      7          6           0        5.702068    1.930673    0.470541
      8          6           0        5.935585    3.126256    1.441842
      9          6           0        6.499295    2.323215    2.698565
     10          6           0        5.837049    0.980310    2.445664
     11          6           0        8.012953    2.136896    2.673507
     12          6           0        4.606582    3.877017    1.790895
     13          6           0        4.784134    5.240995    2.464241
     14          1           0        3.843735    6.305558    2.148483
     15          7           0        4.696524   -1.877168    2.340224
     16          6           0        5.049683   -1.202247    3.460513
     17          6           0        4.693827   -2.081273    4.595132
     18          6           0        4.280472   -3.399004    4.037624
     19          6           0        4.587714   -3.216104    2.642085
     20          6           0        4.718083   -1.631358    6.023676
     21          6           0        3.710371   -4.631743    4.664898
     22          8           0        3.640001   -5.743703    4.037867
     23          6           0        3.312621   -4.524810    6.080314
     24          7           0        5.221310   -3.148252   -0.356876
     25          6           0        5.030525   -4.259946    0.361957
     26          6           0        5.040263   -5.481437   -0.508562
     27          6           0        5.035645   -4.950971   -2.014662
     28          6           0        5.110658   -3.430645   -1.729614
     29          6           0        6.224568   -6.436990   -0.307686
     30          6           0        3.908509   -5.473056   -2.940627
     31          6           0        2.573056   -4.936282   -2.476366
     32          7           0        5.183622   -0.455843   -1.521491
     33          6           0        5.345156   -1.184240   -2.708933
     34          6           0        5.610268   -0.208153   -3.781798
     35          6           0        5.600918    1.027060   -3.136813
     36          6           0        5.372183    0.832702   -1.744621
     37          6           0        5.878413   -0.519398   -5.144024
     38          6           0        5.755435    2.463958   -3.295893
     39          8           0        5.872239    3.222111   -4.259767
     40          6           0        5.874110    3.118376   -1.849007
     41          6           0        4.945482    4.301275   -1.807632
     42          8           0        3.708534    4.145806   -1.863798
     43          8           0        5.639309    5.399595   -1.471719
     44          6           0        4.771421    6.604268   -1.384044
     45          1           0        6.120270    0.300834    4.492854
     46          1           0        4.592589   -5.218138    2.014720
     47          1           0        5.342156   -2.895714   -3.771790
     48          1           0        6.675123    3.851029    1.100943
     49          1           0        6.151371    2.745810    3.640948
     50          1           0        8.440426    2.475159    1.729703
     51          1           0        8.176709    1.066995    2.803851
     52          1           0        8.476782    2.618148    3.534922
     53          1           0        4.090462    3.342281    2.588227
     54          1           0        3.983593    3.991567    0.903151
     55          1           0        5.810232    5.598905    2.375175
     56          1           0        4.633354    5.114809    3.536408
     57          1           0        5.220852   -0.671209    6.132684
     58          1           0        5.350686   -2.332528    6.567627
     59          1           0        3.721854   -1.615670    6.465958
     60          1           0        4.178940   -4.238270    6.676917
     61          1           0        2.844674   -5.475398    6.333804
     62          1           0        2.588374   -3.716242    6.183437
     63          1           0        4.151402   -6.088253   -0.340853
     64          1           0        5.954158   -5.209386   -2.542136
     65          1           0        5.927623   -7.455797   -0.057564
     66          1           0        6.869344   -6.017019    0.463792
     67          1           0        6.909911   -6.499420   -1.152567
     68          1           0        3.851482   -6.559981   -2.892794
     69          1           0        4.045834   -5.193808   -3.985334
     70          1           0        2.289955   -5.634984   -1.689918
     71          1           0        1.850947   -4.954528   -3.293334
     72          1           0        2.677141   -3.953174   -2.016854
     73          1           0        5.302905    0.190424   -5.738088
     74          1           0        5.601571   -1.547293   -5.377248
     75          1           0        6.955820   -0.358813   -5.179545
     76          1           0        6.915871    3.411100   -1.721854
     77          1           0        5.194960    7.354310   -2.052090
     78          1           0        4.694868    6.854679   -0.325820
     79          1           0        3.766588    6.505483   -1.796224
     80         12           0       -5.582251   -0.080238   -0.418477
     81          6           0       -3.015030    2.421878   -0.251530
     82          6           0       -7.233880    1.666345    2.001475
     83          6           0       -7.634448   -2.491816   -0.218034
     84          6           0       -3.249100   -2.174041   -1.940995
     85          7           0       -5.087102    1.788405    0.656357
     86          6           0       -4.114282    2.684973    0.592191
     87          6           0       -4.369881    3.971877    1.421722
     88          6           0       -5.402023    3.366529    2.492764
     89          6           0       -5.974706    2.221358    1.660121
     90          6           0       -4.721843    2.774158    3.715788
     91          6           0       -5.029747    5.111622    0.568749
     92          6           0       -5.024614    6.492877    1.227425
     93          1           0       -4.854068    7.668424    0.378017
     94          7           0       -7.412665   -0.148805    0.345360
     95          6           0       -7.924417    0.650299    1.304954
     96          6           0       -9.300441    0.180340    1.528288
     97          6           0       -9.504418   -1.065374    0.740055
     98          6           0       -8.155778   -1.300222    0.264540
     99          6           0      -10.295835    0.940797    2.355527
    100          6           0      -10.710741   -1.912962    0.470704
    101          8           0      -10.610721   -3.081914   -0.045429
    102          6           0      -12.003984   -1.372675    0.914673
    103          7           0       -5.406836   -2.116341   -0.800336
    104          6           0       -6.466895   -2.935328   -0.684325
    105          6           0       -6.172822   -4.294821   -1.272291
    106          6           0       -4.771415   -4.142268   -2.027517
    107          6           0       -4.440241   -2.680785   -1.653646
    108          6           0       -6.088986   -5.447996   -0.272515
    109          6           0       -4.731573   -4.549071   -3.526046
    110          6           0       -5.565139   -3.588948   -4.343809
    111          7           0       -3.566614    0.123012   -1.169454
    112          6           0       -2.765044   -0.886873   -1.745372
    113          6           0       -1.433757   -0.296918   -1.994477
    114          6           0       -1.547128    1.019031   -1.521279
    115          6           0       -2.850407    1.227986   -0.994678
    116          6           0       -0.310722   -0.979123   -2.541754
    117          6           0       -0.857339    2.275701   -1.337812
    118          8           0        0.240580    2.720580   -1.670050
    119          6           0       -1.737361    3.201868   -0.392210
    120          6           0       -1.815060    4.566430   -1.020274
    121          8           0       -2.400101    4.730387   -2.105382
    122          8           0       -1.379058    5.483348   -0.137356
    123          6           0       -1.447361    6.854042   -0.710381
    124          1           0       -7.722753    2.010858    2.913178
    125          1           0       -8.337480   -3.326229   -0.272584
    126          1           0       -2.497118   -2.732556   -2.502482
    127          1           0       -3.497303    4.366627    1.928227
    128          1           0       -6.180040    4.083887    2.740670
    129          1           0       -3.647568    2.751866    3.608137
    130          1           0       -5.113287    1.769940    3.812607
    131          1           0       -5.035592    3.308150    4.617307
    132          1           0       -6.111523    4.935034    0.510990
    133          1           0       -4.576568    5.172322   -0.401591
    134          1           0       -4.344045    6.537397    2.086374
    135          1           0       -6.012098    6.675620    1.658128
    136          1           0       -9.811088    1.730322    2.942954
    137          1           0      -10.686202    0.244782    3.105883
    138          1           0      -11.128812    1.325940    1.763515
    139          1           0      -11.971830   -1.194060    1.986828
    140          1           0      -12.754783   -2.078811    0.554727
    141          1           0      -12.158353   -0.398325    0.437779
    142          1           0       -6.931140   -4.577024   -1.992297
    143          1           0       -3.991505   -4.768246   -1.569554
    144          1           0       -6.793600   -6.271261   -0.495711
    145          1           0       -6.266812   -5.053618    0.719140
    146          1           0       -5.103323   -5.898438   -0.168672
    147          1           0       -5.175156   -5.538492   -3.661792
    148          1           0       -3.728161   -4.586887   -3.936813
    149          1           0       -6.579733   -3.981239   -4.226383
    150          1           0       -5.254346   -3.604057   -5.386510
    151          1           0       -5.548073   -2.583262   -3.907986
    152          1           0        0.140030   -0.309108   -3.261758
    153          1           0       -0.603084   -1.920518   -3.002265
    154          1           0        0.284370   -1.131895   -1.637430
    155          1           0       -1.252453    3.227716    0.584403
    156          1           0       -0.443906    7.283642   -0.631576
    157          1           0       -2.259461    7.367083   -0.161719
    158          1           0       -1.632892    6.943809   -1.774322
 ---------------------------------------------------------------------

 SCF Done:  E(RCAM-B3LYP) =  -4069.80784118     A.U. after   19 cycles

 Excitation energies and oscillator strengths:

 Excited State   1:      Singlet-A      1.6589 eV  747.38 nm  f=0.2328  <S**2>=0.000
     309 -> 316        0.10769
     311 -> 313        0.50932
     312 -> 314       -0.46067
 This state for optimization and/or second-order correction.
 Total Energy, E(TD-HF/TD-DFT) =  -4069.74687681
 Copying the excited state density for this state as the 1-particle RhoCI density.

 Excited State   2:      Singlet-A      1.6951 eV  731.43 nm  f=0.5383  <S**2>=0.000
     310 -> 315        0.10728
     311 -> 313        0.45934
     312 -> 314        0.50764

 Excited State   3:      Singlet-A      2.1820 eV  568.21 nm  f=0.0007  <S**2>=0.000
     309 -> 313        0.46014
     310 -> 314       -0.44989
     311 -> 315       -0.11049
     311 -> 316       -0.15888
     312 -> 315        0.15497
     312 -> 316       -0.10792

 Excited State   4:      Singlet-A      2.1947 eV  564.94 nm  f=0.1748  <S**2>=0.000
     309 -> 313        0.44630
     310 -> 314        0.45604
     311 -> 315       -0.10366
     311 -> 316       -0.16565
     312 -> 315       -0.17100
     312 -> 316        0.10712

 Excited State   5:      Singlet-A      2.4805 eV  499.84 nm  f=0.0000  <S**2>=0.000
     312 -> 313        0.70564

 The electronic state is 1-A.
 Alpha  occ. eigenvalues --  -46.87495 -46.87432 -19.26036 -19.25631 -19.18804
 Alpha  occ. eigenvalues --  -19.18589 -19.18507 -19.18163 -19.17743 -19.17469
 Alpha  occ. eigenvalues --  -14.42289 -14.42142 -14.41172 -14.41130 -14.39120
 Alpha  occ. eigenvalues --  -14.39111 -14.38348 -14.38251 -10.38750 -10.38275
 Alpha  occ. eigenvalues --  -10.35229 -10.35190 -10.33951 -10.33664 -10.31531
 Alpha  occ. eigenvalues --  -10.31179 -10.31068 -10.31066 -10.30817 -10.30580
 Alpha  occ. eigenvalues --  -10.30237 -10.30204 -10.30144 -10.30094 -10.29986
 Alpha  occ. eigenvalues --  -10.29952 -10.29650 -10.29641 -10.29322 -10.29229
 Alpha  occ. eigenvalues --  -10.29143 -10.28987 -10.28553 -10.28535 -10.28396
 Alpha  occ. eigenvalues --  -10.28218 -10.28150 -10.28021 -10.27980 -10.27802
 Alpha  occ. eigenvalues --  -10.27718 -10.27476 -10.27457 -10.27437 -10.27361
 Alpha  occ. eigenvalues --  -10.27338 -10.27289 -10.27286 -10.27281 -10.27263
 Alpha  occ. eigenvalues --  -10.27248 -10.27218 -10.27184 -10.27055 -10.26689
 Alpha  occ. eigenvalues --  -10.26669 -10.26532 -10.26273 -10.26250 -10.26243
 Alpha  occ. eigenvalues --  -10.26144 -10.25989 -10.25960 -10.25918 -10.25759
 Alpha  occ. eigenvalues --  -10.25716 -10.25569 -10.25552 -10.25284 -10.25216
 Alpha  occ. eigenvalues --  -10.24745 -10.24587 -10.24579 -10.24503 -10.24489
 Alpha  occ. eigenvalues --  -10.24452  -3.16236  -3.16183  -1.91118  -1.91065
 Alpha  occ. eigenvalues --   -1.90704  -1.90654  -1.90546  -1.90490  -1.16316
 Alpha  occ. eigenvalues --   -1.15955  -1.08172  -1.08074  -1.06997  -1.06764
 Alpha  occ. eigenvalues --   -1.06579  -1.05827  -1.04274  -1.04261  -1.03477
 Alpha  occ. eigenvalues --   -1.03433  -1.02930  -1.02803  -1.02106  -1.01870
 Alpha  occ. eigenvalues --   -0.91706  -0.91596  -0.89312  -0.89277  -0.88980
 Alpha  occ. eigenvalues --   -0.88855  -0.88078  -0.88017  -0.87557  -0.87524
 Alpha  occ. eigenvalues --   -0.87468  -0.87371  -0.87016  -0.86903  -0.84810
 Alpha  occ. eigenvalues --   -0.84663  -0.83754  -0.83674  -0.82759  -0.82736
 Alpha  occ. eigenvalues --   -0.82454  -0.82334  -0.81337  -0.81183  -0.80251
 Alpha  occ. eigenvalues --   -0.80205  -0.78518  -0.78400  -0.76969  -0.76949
 Alpha  occ. eigenvalues --   -0.76693  -0.76618  -0.75619  -0.75576  -0.74661
 Alpha  occ. eigenvalues --   -0.74591  -0.72486  -0.72461  -0.71376  -0.71362
 Alpha  occ. eigenvalues --   -0.69778  -0.69576  -0.68625  -0.68566  -0.67348
 Alpha  occ. eigenvalues --   -0.67334  -0.67009  -0.66896  -0.65060  -0.64950
 Alpha  occ. eigenvalues --   -0.64543  -0.64541  -0.64427  -0.64293  -0.64031
 Alpha  occ. eigenvalues --   -0.63986  -0.62010  -0.61845  -0.60192  -0.60116
 Alpha  occ. eigenvalues --   -0.59596  -0.59479  -0.58751  -0.58680  -0.58178
 Alpha  occ. eigenvalues --   -0.58165  -0.57219  -0.57180  -0.56986  -0.56923
 Alpha  occ. eigenvalues --   -0.56010  -0.55962  -0.55633  -0.55512  -0.55243
 Alpha  occ. eigenvalues --   -0.55223  -0.55056  -0.55007  -0.54241  -0.54129
 Alpha  occ. eigenvalues --   -0.53729  -0.53552  -0.53033  -0.53002  -0.52918
 Alpha  occ. eigenvalues --   -0.52906  -0.52662  -0.52551  -0.52501  -0.52481
 Alpha  occ. eigenvalues --   -0.52211  -0.52187  -0.51611  -0.51582  -0.51461
 Alpha  occ. eigenvalues --   -0.51284  -0.50897  -0.50874  -0.50367  -0.50289
 Alpha  occ. eigenvalues --   -0.49866  -0.49791  -0.49660  -0.49657  -0.49284
 Alpha  occ. eigenvalues --   -0.49202  -0.48971  -0.48864  -0.48812  -0.48778
 Alpha  occ. eigenvalues --   -0.48308  -0.48283  -0.48163  -0.48153  -0.48107
 Alpha  occ. eigenvalues --   -0.47969  -0.47408  -0.47353  -0.47006  -0.46904
 Alpha  occ. eigenvalues --   -0.46531  -0.46495  -0.46365  -0.46219  -0.46085
 Alpha  occ. eigenvalues --   -0.46040  -0.45849  -0.45800  -0.45546  -0.45442
 Alpha  occ. eigenvalues --   -0.44998  -0.44980  -0.44314  -0.44284  -0.44210
 Alpha  occ. eigenvalues --   -0.44204  -0.43920  -0.43893  -0.43859  -0.43792
 Alpha  occ. eigenvalues --   -0.43653  -0.43635  -0.43316  -0.43153  -0.43124
 Alpha  occ. eigenvalues --   -0.43097  -0.42722  -0.42680  -0.42600  -0.42520
 Alpha  occ. eigenvalues --   -0.42354  -0.42099  -0.41763  -0.41757  -0.41366
 Alpha  occ. eigenvalues --   -0.41327  -0.41267  -0.41226  -0.40848  -0.40755
 Alpha  occ. eigenvalues --   -0.40622  -0.40589  -0.40535  -0.40520  -0.40321
 Alpha  occ. eigenvalues --   -0.40284  -0.40065  -0.39889  -0.39339  -0.39248
 Alpha  occ. eigenvalues --   -0.38262  -0.38162  -0.37478  -0.37419  -0.37082
 Alpha  occ. eigenvalues --   -0.37061  -0.36986  -0.36922  -0.36477  -0.36263
 Alpha  occ. eigenvalues --   -0.35975  -0.35650  -0.34011  -0.33971  -0.33528
 Alpha  occ. eigenvalues --   -0.33089  -0.32932  -0.32735  -0.31118  -0.31069
 Alpha  occ. eigenvalues --   -0.30744  -0.30704  -0.29592  -0.29366  -0.29161
 Alpha  occ. eigenvalues --   -0.29081  -0.28977  -0.28902  -0.23804  -0.23759
 Alpha  occ. eigenvalues --   -0.20884  -0.20831
 Alpha virt. eigenvalues --   -0.08538  -0.08468  -0.01469  -0.01465   0.00209
 Alpha virt. eigenvalues --    0.00235   0.02480   0.02558   0.03213   0.03457
 Alpha virt. eigenvalues --    0.04920   0.05017   0.05528   0.05805   0.06328

 Mulliken charges:
               1
     1  Mg   0.837315
     2  C    0.003576
     3  C   -0.094283
     4  C   -0.046818
     5  C   -0.065221
     6  N   -0.256296
     7  C   -0.051797
     8  C   -0.014597
     9  C   -0.086948
    10  C    0.046249
    11  C    0.105081
    12  C    0.052833
    13  C   -0.070422
    14  H    0.034618
    15  N   -0.432977
    16  C    0.167876
    17  C   -0.177876
    18  C   -0.004886
    19  C    0.148302
    20  C    0.110467
    21  C    0.011533
    22  O   -0.250891
    23  C    0.062817
    24  N   -0.340968
    25  C    0.040496
    26  C   -0.027861
    27  C   -0.024008
    28  C    0.074813
    29  C    0.076429
    30  C    0.035615
    31  C   -0.005239
    32  N   -0.311782
    33  C    0.081516
    34  C   -0.169756
    35  C    0.008982
    36  C    0.087600
    37  C    0.126802
    38  C    0.051314
    39  O   -0.187500
    40  C   -0.007266
    41  C    0.207580
    42  O   -0.240139
    43  O   -0.307251
    44  C    0.158543
    45  H   -0.018513
    46  H   -0.018085
    47  H   -0.042735
    48  H    0.000593
    49  H   -0.005011
    50  H    0.025306
    51  H    0.015930
    52  H    0.015628
    53  H    0.009864
    54  H    0.051926
    55  H    0.016862
    56  H    0.016076
    57  H    0.005334
    58  H    0.025967
    59  H    0.038212
    60  H    0.037089
    61  H    0.034662
    62  H    0.030879
    63  H    0.015219
    64  H    0.009346
    65  H    0.022405
    66  H    0.012787
    67  H    0.004286
    68  H    0.005844
    69  H    0.004743
    70  H    0.008332
    71  H    0.015083
    72  H    0.029516
    73  H    0.048989
    74  H    0.007869
    75  H    0.045464
    76  H    0.033368
    77  H    0.040570
    78  H    0.043753
    79  H    0.055138
    80  Mg   0.836968
    81  C   -0.016718
    82  C   -0.088014
    83  C   -0.045833
    84  C   -0.065433
    85  N   -0.254113
    86  C   -0.050341
    87  C   -0.014619
    88  C   -0.090355
    89  C    0.045092
    90  C    0.114672
    91  C    0.062715
    92  C   -0.077325
    93  H    0.034548
    94  N   -0.423306
    95  C    0.162256
    96  C   -0.175264
    97  C   -0.008357
    98  C    0.151718
    99  C    0.099646
   100  C    0.015141
   101  O   -0.253865
   102  C    0.061371
   103  N   -0.350176
   104  C    0.037188
   105  C   -0.019636
   106  C   -0.034827
   107  C    0.089377
   108  C    0.073725
   109  C    0.034880
   110  C   -0.007546
   111  N   -0.324428
   112  C    0.079191
   113  C   -0.166031
   114  C    0.004885
   115  C    0.096083
   116  C    0.131741
   117  C    0.037820
   118  O   -0.168306
   119  C    0.000499
   120  C    0.215112
   121  O   -0.251163
   122  O   -0.306296
   123  C    0.153377
   124  H   -0.020653
   125  H   -0.016178
   126  H   -0.040881
   127  H   -0.001457
   128  H   -0.004905
   129  H    0.021454
   130  H    0.014276
   131  H    0.015116
   132  H    0.013841
   133  H    0.038285
   134  H    0.019813
   135  H    0.019132
   136  H    0.008068
   137  H    0.025316
   138  H    0.039131
   139  H    0.037871
   140  H    0.035791
   141  H    0.033662
   142  H    0.013955
   143  H    0.012531
   144  H    0.024585
   145  H    0.011522
   146  H    0.005763
   147  H    0.005777
   148  H    0.002989
   149  H    0.010785
   150  H    0.017508
   151  H    0.030578
   152  H    0.050946
   153  H    0.007547
   154  H    0.046239
   155  H    0.033590
   156  H    0.041469
   157  H    0.047766
   158  H    0.054437
 Sum of Mulliken charges =  -0.00000

 Dipole moment (field-independent basis, Debye):
    X=             -0.4276    Y=              1.2327    Z=              7.1863  Tot=              7.3037
 Quadrupole moment (field-independent basis, Debye-Ang):
   XX=           -492.2449   YY=           -494.7360   ZZ=           -495.6846
   XY=            -28.2263   XZ=              2.4849   YZ=             54.7646

 Normal termination of Gaussian 16 at Fri Sep 10 19:57:32 2021.
