 Gaussian 16, Revision A.03,
 Gaussian 16:  ES64L-G16RevA.03 25-Dec-2016

 -----------------------------------
 #p cam-b3lyp/Def2SVP td=(nstates=5)
 -----------------------------------

 --------------------------------
 TDDFT excited states in gaussian
 --------------------------------
 Symbolic Z-matrix:
 Charge =  0 Multiplicity = 1

                         Standard orientation:
 ---------------------------------------------------------------------
 Center     Atomic      Atomic             Coordinates (Angstroms)
 Number     Number       Type             X           Y           Z
 ---------------------------------------------------------------------
      1         12           0        4.181206   -0.081834   -0.040556
      2          6           0        3.828870    3.112800   -1.616114
      3          6           0        4.928389    1.587445    2.840119
      4          6           0        4.940036   -2.875836    1.253411
      5          6           0        4.525866   -1.450588   -3.226993
      6          7           0        4.326390    2.077055    0.427170
      7          6           0        4.108871    3.199779   -0.250582
      8          6           0        4.131852    4.475489    0.643515
      9          6           0        5.028183    3.926542    1.842367
     10          6           0        4.716414    2.445388    1.720283
     11          6           0        6.524254    4.132830    1.628545
     12          6           0        2.702308    4.881829    1.136490
     13          6           0        2.592969    6.286365    1.737054
     14          1           0        1.376349    7.051907    1.510934
     15          7           0        4.360564   -0.609507    1.854765
     16          6           0        4.651931    0.204296    2.897894
     17          6           0        4.673040   -0.661308    4.096629
     18          6           0        4.557786   -2.074136    3.639762
     19          6           0        4.642316   -1.909254    2.211110
     20          6           0        4.744044   -0.128822    5.494901
     21          6           0        4.407513   -3.368549    4.374639
     22          8           0        4.558847   -4.499576    3.798053
     23          6           0        4.162605   -3.275781    5.825314
     24          7           0        4.883673   -1.875401   -0.845100
     25          6           0        5.075688   -2.950016   -0.072237
     26          6           0        5.304236   -4.181909   -0.896946
     27          6           0        4.986059   -3.768808   -2.406205
     28          6           0        4.692459   -2.264831   -2.182328
     29          6           0        6.712625   -4.787278   -0.819622
     30          6           0        3.935672   -4.620838   -3.161952
     31          6           0        2.569407   -4.415092   -2.547065
     32          7           0        4.006705    0.636482   -2.081295
     33          6           0        4.214661   -0.101437   -3.255562
     34          6           0        4.088335    0.838536   -4.384527
     35          6           0        3.830400    2.069185   -3.783846
     36          6           0        3.823699    1.913139   -2.368256
     37          6           0        4.268804    0.518959   -5.759203
     38          6           0        3.583320    3.484349   -4.007719
     39          8           0        3.384680    4.183194   -5.002531
     40          6           0        3.693301    4.239442   -2.610018
     41          6           0        2.498364    5.145215   -2.487498
     42          8           0        1.347563    4.674884   -2.378814
     43          8           0        2.914132    6.403922   -2.279324
     44          6           0        1.777048    7.349242   -2.119440
     45          1           0        5.403327    1.994885    3.734752
     46          1           0        5.099016   -3.879505    1.653177
     47          1           0        4.537136   -1.821610   -4.253477
     48          1           0        4.610824    5.341871    0.187016
     49          1           0        4.693395    4.305949    2.807607
     50          1           0        6.735642    4.507545    0.627133
     51          1           0        6.976715    3.151277    1.771112
     52          1           0        6.942385    4.771448    2.407076
     53          1           0        2.440507    4.285450    2.010476
     54          1           0        1.972462    4.775400    0.333170
     55          1           0        3.471855    6.888569    1.505064
     56          1           0        2.605959    6.195349    2.823216
     57          1           0        4.986671    0.933028    5.507242
     58          1           0        5.596996   -0.607943    5.975135
     59          1           0        3.836812   -0.340214    6.061095
     60          1           0        4.986659   -2.739010    6.295803
     61          1           0        3.992881   -4.296062    6.167468
     62          1           0        3.268760   -2.674719    5.994769
     63          1           0        4.631197   -4.983955   -0.596668
     64          1           0        5.872582   -3.816932   -3.039005
     65          1           0        6.724219   -5.829785   -0.500638
     66          1           0        7.309742   -4.167243   -0.151567
     67          1           0        7.287571   -4.726602   -1.743296
     68          1           0        4.171507   -5.680681   -3.072176
     69          1           0        3.872854   -4.383865   -4.224096
     70          1           0        2.572564   -5.110649   -1.708601
     71          1           0        1.787621   -4.670411   -3.263189
     72          1           0        2.464719   -3.410537   -2.136706
     73          1           0        3.462470    1.017807   -6.296740
     74          1           0        4.245973   -0.558406   -5.921582
     75          1           0        5.254783    0.947444   -5.938375
     76          1           0        4.629361    4.796760   -2.627622
     77          1           0        1.908712    8.137932   -2.860295
     78          1           0        1.760814    7.639557   -1.068793
     79          1           0        0.792467    6.970010   -2.395345
     80         12           0       -3.656666   -1.286496    0.291191
     81          6           0       -6.303126    1.132951    0.144265
     82          6           0       -1.525005    1.303468    0.909860
     83          6           0       -1.246355   -3.326552   -0.018740
     84          6           0       -5.748819   -3.474569   -1.435353
     85          7           0       -3.990497    0.891847    0.479918
     86          6           0       -5.047746    1.689577    0.466156
     87          6           0       -4.755444    3.152285    0.895816
     88          6           0       -3.188856    3.197299    0.545583
     89          6           0       -2.864220    1.711519    0.686020
     90          6           0       -2.904345    3.614989   -0.887573
     91          6           0       -5.008868    3.387691    2.426290
     92          6           0       -5.042204    4.856564    2.854158
     93          1           0       -5.963441    5.251434    3.916172
     94          7           0       -1.771096   -1.147796    0.894485
     95          6           0       -1.069244   -0.016922    1.117688
     96          6           0        0.275429   -0.451948    1.526071
     97          6           0        0.359088   -1.929220    1.366709
     98          6           0       -0.903618   -2.195128    0.707185
     99          6           0        1.300872    0.491009    2.085268
    100          6           0        1.408250   -2.934455    1.734066
    101          8           0        1.375826   -4.135415    1.287436
    102          6           0        2.524850   -2.445996    2.556327
    103          7           0       -3.435026   -3.054968   -0.779215
    104          6           0       -2.302097   -3.774603   -0.698432
    105          6           0       -2.474394   -5.135828   -1.329110
    106          6           0       -4.037841   -5.272013   -1.636750
    107          6           0       -4.506251   -3.868805   -1.192928
    108          6           0       -1.680350   -5.379839   -2.612212
    109          6           0       -4.764825   -6.513479   -1.051136
    110          6           0       -4.811212   -6.420606    0.457050
    111          7           0       -5.719958   -1.285197   -0.349806
    112          6           0       -6.386330   -2.292165   -1.081951
    113          6           0       -7.742784   -1.788462   -1.379841
    114          6           0       -7.763866   -0.503993   -0.815756
    115          6           0       -6.502428   -0.218870   -0.226714
    116          6           0       -8.740375   -2.476639   -2.126398
    117          6           0       -8.562902    0.679661   -0.593929
    118          8           0       -9.738404    0.983949   -0.792279
    119          6           0       -7.611398    1.841372   -0.072930
    120          6           0       -8.268604    2.480322    1.119685
    121          8           0       -8.434970    1.836042    2.170329
    122          8           0       -8.393955    3.801575    0.898484
    123          6           0       -9.030636    4.481084    2.058115
    124          1           0       -0.740580    2.060299    0.882571
    125          1           0       -0.484842   -4.108752   -0.060215
    126          1           0       -6.493717   -4.135045   -1.884320
    127          1           0       -5.285349    3.907214    0.327425
    128          1           0       -2.636725    3.779217    1.278992
    129          1           0       -3.809757    3.698649   -1.470131
    130          1           0       -2.261414    2.846253   -1.295896
    131          1           0       -2.317318    4.537761   -0.901810
    132          1           0       -4.131365    3.047369    2.991024
    133          1           0       -5.909438    2.898529    2.743028
    134          1           0       -5.131825    5.533874    1.996151
    135          1           0       -4.076116    5.111086    3.296772
    136          1           0        1.012839    1.537787    1.928145
    137          1           0        2.209773    0.366600    1.486690
    138          1           0        1.535977    0.285303    3.131729
    139          1           0        3.028100   -1.634273    2.036424
    140          1           0        3.123798   -3.328429    2.789680
    141          1           0        2.118811   -2.022996    3.481968
    142          1           0       -2.181811   -5.920248   -0.641945
    143          1           0       -4.236042   -5.342587   -2.716371
    144          1           0       -1.011677   -6.259159   -2.551142
    145          1           0       -1.113792   -4.486246   -2.838158
    146          1           0       -2.281987   -5.505303   -3.510819
    147          1           0       -4.210078   -7.424407   -1.289083
    148          1           0       -5.773169   -6.642212   -1.430150
    149          1           0       -3.832475   -6.805903    0.758238
    150          1           0       -5.616578   -7.035237    0.854098
    151          1           0       -4.869690   -5.376399    0.785447
    152          1           0       -9.673626   -2.343706   -1.595490
    153          1           0       -8.494410   -3.530154   -2.241984
    154          1           0       -8.682655   -1.935228   -3.074464
    155          1           0       -7.476871    2.547340   -0.893352
    156          1           0       -9.905016    5.015824    1.674438
    157          1           0       -8.232229    5.089381    2.523171
    158          1           0       -9.482347    3.855782    2.819300
 ---------------------------------------------------------------------

 SCF Done:  E(RCAM-B3LYP) =  -4069.71135091     A.U. after   18 cycles

 Excitation energies and oscillator strengths:

 Excited State   1:      Singlet-A      1.5031 eV  824.87 nm  f=0.2962  <S**2>=0.000
     309 -> 315       -0.13823
     311 -> 313        0.65556
     312 -> 313       -0.10488
     312 -> 314       -0.18001
 This state for optimization and/or second-order correction.
 Total Energy, E(TD-HF/TD-DFT) =  -4069.65611365
 Copying the excited state density for this state as the 1-particle RhoCI density.

 Excited State   2:      Singlet-A      1.6681 eV  743.26 nm  f=0.4756  <S**2>=0.000
     310 -> 316        0.14157
     311 -> 313        0.18834
     312 -> 314        0.65479

 Excited State   3:      Singlet-A      2.0206 eV  613.59 nm  f=0.0037  <S**2>=0.000
     309 -> 313        0.11548
     312 -> 313        0.68200

 Excited State   4:      Singlet-A      2.1500 eV  576.67 nm  f=0.0378  <S**2>=0.000
     309 -> 313        0.52462
     311 -> 314       -0.32564
     311 -> 315        0.28199
     312 -> 313       -0.13103

 Excited State   5:      Singlet-A      2.1720 eV  570.83 nm  f=0.0476  <S**2>=0.000
     309 -> 313        0.13216
     310 -> 314        0.59559
     311 -> 314        0.21823
     312 -> 316       -0.21663
     312 -> 317       -0.12670

 The electronic state is 1-A.
 Alpha  occ. eigenvalues --  -46.88532 -46.87235 -19.26726 -19.26076 -19.20358
 Alpha  occ. eigenvalues --  -19.19502 -19.18872 -19.18283 -19.17775 -19.17687
 Alpha  occ. eigenvalues --  -14.42976 -14.42043 -14.41584 -14.40969 -14.40195
 Alpha  occ. eigenvalues --  -14.38892 -14.38795 -14.38197 -10.39533 -10.38793
 Alpha  occ. eigenvalues --  -10.36687 -10.34538 -10.34012 -10.33866 -10.32135
 Alpha  occ. eigenvalues --  -10.32126 -10.32111 -10.31834 -10.31533 -10.31174
 Alpha  occ. eigenvalues --  -10.30975 -10.30840 -10.30605 -10.30581 -10.30268
 Alpha  occ. eigenvalues --  -10.29950 -10.29941 -10.29747 -10.29520 -10.29284
 Alpha  occ. eigenvalues --  -10.29279 -10.29182 -10.29016 -10.28925 -10.28829
 Alpha  occ. eigenvalues --  -10.28693 -10.28509 -10.28458 -10.28423 -10.28374
 Alpha  occ. eigenvalues --  -10.28251 -10.27990 -10.27769 -10.27738 -10.27599
 Alpha  occ. eigenvalues --  -10.27538 -10.27454 -10.27450 -10.27437 -10.27426
 Alpha  occ. eigenvalues --  -10.27423 -10.27229 -10.27224 -10.27154 -10.27097
 Alpha  occ. eigenvalues --  -10.27065 -10.26978 -10.26732 -10.26685 -10.26368
 Alpha  occ. eigenvalues --  -10.26014 -10.25891 -10.25850 -10.25836 -10.25555
 Alpha  occ. eigenvalues --  -10.25522 -10.25513 -10.25196 -10.25052 -10.24920
 Alpha  occ. eigenvalues --  -10.24896 -10.24492 -10.24474 -10.24281 -10.23962
 Alpha  occ. eigenvalues --  -10.23201  -3.17263  -3.15985  -1.92150  -1.91721
 Alpha  occ. eigenvalues --   -1.91579  -1.90868  -1.90457  -1.90293  -1.17077
 Alpha  occ. eigenvalues --   -1.16366  -1.08985  -1.08776  -1.08304  -1.07092
 Alpha  occ. eigenvalues --   -1.06656  -1.06196  -1.05835  -1.04749  -1.04038
 Alpha  occ. eigenvalues --   -1.03688  -1.03223  -1.02703  -1.02632  -1.01704
 Alpha  occ. eigenvalues --   -0.92294  -0.91584  -0.90202  -0.89723  -0.89145
 Alpha  occ. eigenvalues --   -0.89015  -0.88688  -0.88634  -0.88135  -0.87946
 Alpha  occ. eigenvalues --   -0.87894  -0.87416  -0.87259  -0.86659  -0.85929
 Alpha  occ. eigenvalues --   -0.84505  -0.84147  -0.83779  -0.83575  -0.83226
 Alpha  occ. eigenvalues --   -0.82565  -0.82293  -0.81720  -0.81276  -0.80936
 Alpha  occ. eigenvalues --   -0.80113  -0.79617  -0.78272  -0.77622  -0.77234
 Alpha  occ. eigenvalues --   -0.76801  -0.76516  -0.76437  -0.75389  -0.75131
 Alpha  occ. eigenvalues --   -0.74485  -0.73206  -0.72299  -0.72161  -0.71153
 Alpha  occ. eigenvalues --   -0.70075  -0.69535  -0.69445  -0.68567  -0.68381
 Alpha  occ. eigenvalues --   -0.67928  -0.67218  -0.66845  -0.65790  -0.65396
 Alpha  occ. eigenvalues --   -0.65238  -0.64851  -0.64413  -0.64383  -0.64256
 Alpha  occ. eigenvalues --   -0.63854  -0.62743  -0.61949  -0.61768  -0.60808
 Alpha  occ. eigenvalues --   -0.60361  -0.59488  -0.59350  -0.59017  -0.58610
 Alpha  occ. eigenvalues --   -0.58045  -0.57910  -0.57701  -0.57524  -0.57189
 Alpha  occ. eigenvalues --   -0.57038  -0.56453  -0.56225  -0.55990  -0.55737
 Alpha  occ. eigenvalues --   -0.55502  -0.55424  -0.54949  -0.54698  -0.54604
 Alpha  occ. eigenvalues --   -0.54246  -0.54112  -0.53953  -0.53699  -0.53644
 Alpha  occ. eigenvalues --   -0.53284  -0.53193  -0.52783  -0.52698  -0.52509
 Alpha  occ. eigenvalues --   -0.52420  -0.52209  -0.52108  -0.51939  -0.51852
 Alpha  occ. eigenvalues --   -0.51580  -0.51478  -0.51283  -0.50880  -0.50605
 Alpha  occ. eigenvalues --   -0.50443  -0.50295  -0.50145  -0.49694  -0.49654
 Alpha  occ. eigenvalues --   -0.49594  -0.49405  -0.49162  -0.49016  -0.48881
 Alpha  occ. eigenvalues --   -0.48737  -0.48646  -0.48586  -0.48203  -0.48071
 Alpha  occ. eigenvalues --   -0.47907  -0.47880  -0.47525  -0.47106  -0.47023
 Alpha  occ. eigenvalues --   -0.46965  -0.46780  -0.46374  -0.46352  -0.46166
 Alpha  occ. eigenvalues --   -0.46124  -0.46023  -0.45805  -0.45633  -0.45474
 Alpha  occ. eigenvalues --   -0.45425  -0.45064  -0.44785  -0.44766  -0.44587
 Alpha  occ. eigenvalues --   -0.44432  -0.44332  -0.44201  -0.44160  -0.43927
 Alpha  occ. eigenvalues --   -0.43758  -0.43697  -0.43643  -0.43495  -0.43346
 Alpha  occ. eigenvalues --   -0.43191  -0.43038  -0.42962  -0.42774  -0.42607
 Alpha  occ. eigenvalues --   -0.42471  -0.42212  -0.42179  -0.41945  -0.41818
 Alpha  occ. eigenvalues --   -0.41631  -0.41614  -0.41256  -0.41205  -0.41066
 Alpha  occ. eigenvalues --   -0.40907  -0.40583  -0.40570  -0.40380  -0.40267
 Alpha  occ. eigenvalues --   -0.40090  -0.39940  -0.39384  -0.39155  -0.38918
 Alpha  occ. eigenvalues --   -0.38637  -0.38453  -0.38007  -0.37972  -0.37283
 Alpha  occ. eigenvalues --   -0.37095  -0.37057  -0.36880  -0.36751  -0.36475
 Alpha  occ. eigenvalues --   -0.36033  -0.35841  -0.34557  -0.34102  -0.33850
 Alpha  occ. eigenvalues --   -0.33549  -0.33145  -0.32744  -0.32419  -0.31398
 Alpha  occ. eigenvalues --   -0.30756  -0.30534  -0.30178  -0.29679  -0.29594
 Alpha  occ. eigenvalues --   -0.29429  -0.28874  -0.28772  -0.24631  -0.23614
 Alpha  occ. eigenvalues --   -0.20943  -0.20698
 Alpha virt. eigenvalues --   -0.09210  -0.08391  -0.02830  -0.01262  -0.01009
 Alpha virt. eigenvalues --    0.00618   0.01958   0.02636   0.03230   0.03701
 Alpha virt. eigenvalues --    0.04037   0.04601   0.05097   0.05452   0.05510

 Mulliken charges:
               1
     1  Mg   0.766460
     2  C    0.000962
     3  C   -0.098390
     4  C   -0.015524
     5  C   -0.062356
     6  N   -0.251865
     7  C   -0.060685
     8  C   -0.010653
     9  C   -0.086108
    10  C    0.041223
    11  C    0.104326
    12  C    0.044871
    13  C   -0.070330
    14  H    0.034732
    15  N   -0.472036
    16  C    0.172630
    17  C   -0.150766
    18  C   -0.038097
    19  C    0.106242
    20  C    0.112672
    21  C    0.011810
    22  O   -0.235152
    23  C    0.087834
    24  N   -0.342645
    25  C    0.041043
    26  C   -0.029261
    27  C   -0.024084
    28  C    0.082580
    29  C    0.076942
    30  C    0.036107
    31  C   -0.011321
    32  N   -0.302568
    33  C    0.078589
    34  C   -0.170927
    35  C    0.008910
    36  C    0.079091
    37  C    0.127277
    38  C    0.045532
    39  O   -0.189288
    40  C   -0.007582
    41  C    0.213826
    42  O   -0.260230
    43  O   -0.303942
    44  C    0.157102
    45  H   -0.017928
    46  H   -0.012600
    47  H   -0.042227
    48  H    0.001894
    49  H   -0.004683
    50  H    0.027504
    51  H    0.018122
    52  H    0.017686
    53  H    0.012555
    54  H    0.042082
    55  H    0.020288
    56  H    0.018039
    57  H    0.008609
    58  H    0.031231
    59  H    0.039367
    60  H    0.038679
    61  H    0.042902
    62  H    0.027048
    63  H    0.029365
    64  H    0.008523
    65  H    0.024999
    66  H    0.011292
    67  H    0.005250
    68  H    0.004737
    69  H    0.001448
    70  H    0.022570
    71  H    0.015064
    72  H    0.032369
    73  H    0.046921
    74  H    0.009485
    75  H    0.045103
    76  H    0.035735
    77  H    0.044840
    78  H    0.045668
    79  H    0.052498
    80  Mg   0.837761
    81  C   -0.017261
    82  C   -0.091487
    83  C   -0.046898
    84  C   -0.065194
    85  N   -0.254906
    86  C   -0.048894
    87  C   -0.015292
    88  C   -0.090152
    89  C    0.044979
    90  C    0.114245
    91  C    0.063059
    92  C   -0.076454
    93  H    0.032387
    94  N   -0.424384
    95  C    0.168762
    96  C   -0.209188
    97  C    0.010581
    98  C    0.149715
    99  C    0.159156
   100  C    0.056877
   101  O   -0.256192
   102  C    0.022284
   103  N   -0.349585
   104  C    0.037244
   105  C   -0.019544
   106  C   -0.034725
   107  C    0.088622
   108  C    0.070790
   109  C    0.035062
   110  C   -0.007477
   111  N   -0.323835
   112  C    0.077964
   113  C   -0.163852
   114  C    0.001969
   115  C    0.095938
   116  C    0.131602
   117  C    0.041770
   118  O   -0.189365
   119  C    0.001181
   120  C    0.211070
   121  O   -0.251850
   122  O   -0.305321
   123  C    0.152460
   124  H   -0.010729
   125  H   -0.013975
   126  H   -0.041630
   127  H   -0.001066
   128  H   -0.007115
   129  H    0.019191
   130  H    0.024530
   131  H    0.021508
   132  H    0.012296
   133  H    0.036684
   134  H    0.020963
   135  H    0.017853
   136  H    0.005419
   137  H    0.036182
   138  H    0.031083
   139  H    0.054821
   140  H    0.053563
   141  H    0.019269
   142  H    0.013878
   143  H    0.011699
   144  H    0.023505
   145  H    0.016116
   146  H    0.004423
   147  H    0.005045
   148  H    0.003175
   149  H    0.010713
   150  H    0.017004
   151  H    0.030589
   152  H    0.044991
   153  H    0.007637
   154  H    0.046684
   155  H    0.035476
   156  H    0.043282
   157  H    0.049069
   158  H    0.052857
 Sum of Mulliken charges =  -0.00000

 Dipole moment (field-independent basis, Debye):
    X=              7.1482    Y=              2.2040    Z=              4.5699  Tot=              8.7657
 Quadrupole moment (field-independent basis, Debye-Ang):
   XX=           -551.2839   YY=           -479.7602   ZZ=           -499.7230
   XY=             12.4272   XZ=             21.7070   YZ=             50.2594

 Normal termination of Gaussian 16 at Thu Sep  9 10:21:57 2021.
