 Gaussian 16, Revision A.03,
 Gaussian 16:  ES64L-G16RevA.03 25-Dec-2016

 -----------------------------------
 #p cam-b3lyp/Def2SVP td=(nstates=5)
 -----------------------------------

 --------------------------------
 TDDFT excited states in gaussian
 --------------------------------
 Symbolic Z-matrix:
 Charge =  0 Multiplicity = 1

                         Standard orientation:
 ---------------------------------------------------------------------
 Center     Atomic      Atomic             Coordinates (Angstroms)
 Number     Number       Type             X           Y           Z
 ---------------------------------------------------------------------
      1         12           0       -3.769513    0.388668   -1.081444
      2          6           0       -4.210225   -2.780324    0.523385
      3          6           0       -5.501299    1.774993    1.511255
      4          6           0       -3.788780    3.117935   -2.696173
      5          6           0       -3.098372   -1.359292   -4.020809
      6          7           0       -4.686689   -0.494328    0.729565
      7          6           0       -4.733162   -1.713453    1.257529
      8          6           0       -5.322689   -1.740209    2.699443
      9          6           0       -6.183447   -0.399290    2.644398
     10          6           0       -5.390997    0.354971    1.591289
     11          6           0       -7.605149   -0.608472    2.133019
     12          6           0       -4.209929   -1.661979    3.798250
     13          6           0       -4.667931   -2.008844    5.217853
     14          1           0       -3.746609   -2.710057    6.099224
     15          7           0       -4.089899    2.238662   -0.466852
     16          6           0       -4.804407    2.618824    0.619537
     17          6           0       -4.748252    4.096231    0.647726
     18          6           0       -4.103339    4.551246   -0.615264
     19          6           0       -3.990468    3.306038   -1.330873
     20          6           0       -5.227290    4.915894    1.806357
     21          6           0       -3.668807    5.896570   -1.104567
     22          8           0       -3.342899    6.104429   -2.323235
     23          6           0       -3.720078    6.999066   -0.127370
     24          7           0       -3.701627    0.833070   -3.119956
     25          6           0       -3.663396    2.099246   -3.549284
     26          6           0       -3.333934    2.170485   -5.010899
     27          6           0       -2.913429    0.691566   -5.441861
     28          6           0       -3.167781   -0.028192   -4.094448
     29          6           0       -4.460148    2.668320   -5.927313
     30          6           0       -1.529921    0.522886   -6.118524
     31          6           0       -0.431704    0.820978   -5.122452
     32          7           0       -3.490680   -1.690458   -1.638701
     33          6           0       -3.242706   -2.192813   -2.924322
     34          6           0       -3.237160   -3.663564   -2.819778
     35          6           0       -3.500456   -3.916553   -1.474967
     36          6           0       -3.686339   -2.682677   -0.788460
     37          6           0       -3.065259   -4.575077   -3.898679
     38          6           0       -3.692382   -4.942873   -0.463193
     39          8           0       -3.564203   -6.167733   -0.435250
     40          6           0       -4.279945   -4.252288    0.845887
     41          6           0       -3.484192   -4.753290    2.020230
     42          8           0       -2.279699   -4.454265    2.151171
     43          8           0       -4.315803   -5.301458    2.919384
     44          6           0       -3.593119   -5.792271    4.123122
     45          1           0       -6.228929    2.284493    2.146002
     46          1           0       -3.678888    4.039415   -3.271705
     47          1           0       -2.812126   -1.969111   -4.879668
     48          1           0       -5.971496   -2.590713    2.909483
     49          1           0       -6.161047    0.137870    3.592385
     50          1           0       -7.751770   -1.624983    1.768150
     51          1           0       -7.731254    0.109022    1.321975
     52          1           0       -8.335195   -0.331750    2.894093
     53          1           0       -3.922494   -0.620901    3.945215
     54          1           0       -3.358772   -2.289093    3.530695
     55          1           0       -5.641271   -2.500271    5.213728
     56          1           0       -4.836755   -1.077959    5.759288
     57          1           0       -5.800283    4.315558    2.511922
     58          1           0       -5.947127    5.633314    1.412845
     59          1           0       -4.411986    5.445789    2.299126
     60          1           0       -4.741665    7.109976    0.236784
     61          1           0       -3.289212    7.865216   -0.628358
     62          1           0       -3.113315    6.732048    0.738361
     63          1           0       -2.498767    2.846113   -5.191032
     64          1           0       -3.613671    0.259250   -6.157010
     65          1           0       -4.186703    3.539086   -6.523718
     66          1           0       -5.331653    2.876920   -5.307429
     67          1           0       -4.856104    1.919670   -6.612994
     68          1           0       -1.420058    1.231527   -6.938709
     69          1           0       -1.366334   -0.477206   -6.520152
     70          1           0       -0.352335    1.906657   -5.165277
     71          1           0        0.501206    0.348801   -5.432193
     72          1           0       -0.731355    0.555916   -4.108334
     73          1           0       -2.385359   -5.347704   -3.539856
     74          1           0       -2.665886   -4.074290   -4.780335
     75          1           0       -4.090773   -4.915726   -4.040574
     76          1           0       -5.328642   -4.541067    0.908848
     77          1           0       -3.844894   -6.846273    4.241118
     78          1           0       -3.852655   -5.115802    4.937638
     79          1           0       -2.506849   -5.847790    4.043921
     80         12           0        3.864192    0.909423    1.057878
     81          6           0        4.475271   -1.789512   -1.227163
     82          6           0        2.516020   -1.392934    3.183016
     83          6           0        2.906331    3.312565    2.894952
     84          6           0        4.191289    3.086710   -1.643628
     85          7           0        3.588637   -1.278571    0.887517
     86          6           0        3.915588   -2.204908   -0.000931
     87          6           0        3.700549   -3.664200    0.482584
     88          6           0        2.578806   -3.385303    1.597386
     89          6           0        2.931452   -1.939950    1.942738
     90          6           0        1.162824   -3.412893    1.046422
     91          6           0        4.997247   -4.281745    1.114409
     92          6           0        4.951234   -5.796743    1.325151
     93          1           0        6.180982   -6.562641    1.141873
     94          7           0        3.312875    0.927981    2.964252
     95          6           0        2.807588   -0.101792    3.675257
     96          6           0        2.544813    0.429512    5.021665
     97          6           0        2.781975    1.898533    5.000776
     98          6           0        2.994105    2.111178    3.583076
     99          6           0        2.190069   -0.447155    6.187442
    100          6           0        2.800489    2.941615    6.076804
    101          8           0        2.791999    4.193373    5.801374
    102          6           0        2.734523    2.455158    7.462625
    103          7           0        3.378142    2.889216    0.649843
    104          6           0        3.043314    3.736757    1.638523
    105          6           0        3.005513    5.163315    1.144665
    106          6           0        3.623037    5.123938   -0.330015
    107          6           0        3.838039    3.601285   -0.473765
    108          6           0        1.623836    5.815537    1.100307
    109          6           0        4.821181    6.069931   -0.616771
    110          6           0        6.030019    5.626401    0.175299
    111          7           0        4.440452    0.737608   -1.017329
    112          6           0        4.484324    1.770956   -1.978767
    113          6           0        4.822951    1.146404   -3.274024
    114          6           0        4.930844   -0.220871   -2.978396
    115          6           0        4.657502   -0.435945   -1.600520
    116          6           0        4.942064    1.825688   -4.519219
    117          6           0        5.203368   -1.532437   -3.520809
    118          8           0        5.581424   -1.960403   -4.610609
    119          6           0        4.796453   -2.621914   -2.437360
    120          6           0        5.923781   -3.611685   -2.327835
    121          8           0        7.033177   -3.260122   -1.889360
    122          8           0        5.446552   -4.849640   -2.551635
    123          6           0        6.525308   -5.867639   -2.443075
    124          1           0        1.869717   -1.992927    3.824246
    125          1           0        2.687133    4.191104    3.506176
    126          1           0        4.407884    3.709840   -2.513957
    127          1           0        3.315549   -4.340437   -0.271248
    128          1           0        2.714098   -4.028133    2.463314
    129          1           0        1.150947   -3.498780   -0.029979
    130          1           0        0.708247   -2.481137    1.356651
    131          1           0        0.585390   -4.205774    1.530405
    132          1           0        5.080681   -3.949446    2.157175
    133          1           0        5.863027   -4.023481    0.536177
    134          1           0        4.122593   -6.263865    0.779168
    135          1           0        4.725054   -5.994241    2.375791
    136          1           0        1.926297   -1.461208    5.862574
    137          1           0        1.263734   -0.049716    6.616174
    138          1           0        2.962342   -0.454137    6.959582
    139          1           0        1.826443    1.872470    7.597975
    140          1           0        2.849541    3.341678    8.089312
    141          1           0        3.574676    1.773046    7.634338
    142          1           0        3.619463    5.803964    1.765751
    143          1           0        2.881179    5.409696   -1.090169
    144          1           0        1.562905    6.749475    1.690317
    145          1           0        0.895459    5.096282    1.450556
    146          1           0        1.255727    6.050174    0.102993
    147          1           0        4.589324    7.085503   -0.286604
    148          1           0        5.085879    6.125416   -1.667417
    149          1           0        5.860938    6.078181    1.157333
    150          1           0        6.944662    6.001400   -0.279485
    151          1           0        6.035134    4.538453    0.309431
    152          1           0        5.824629    1.431884   -5.005532
    153          1           0        5.011153    2.902506   -4.379672
    154          1           0        4.000917    1.532604   -4.992085
    155          1           0        3.871517   -3.090670   -2.775491
    156          1           0        6.531643   -6.427931   -3.383133
    157          1           0        6.307792   -6.436077   -1.519324
    158          1           0        7.548079   -5.511660   -2.402149
 ---------------------------------------------------------------------

 SCF Done:  E(RCAM-B3LYP) =  -4069.81508075     A.U. after   18 cycles

 Excitation energies and oscillator strengths:

 Excited State   1:      Singlet-A      1.6573 eV  748.13 nm  f=0.2009  <S**2>=0.000
     309 -> 315       -0.10286
     310 -> 316        0.13267
     311 -> 313       -0.41677
     312 -> 314        0.54593
 This state for optimization and/or second-order correction.
 Total Energy, E(TD-HF/TD-DFT) =  -4069.75417763
 Copying the excited state density for this state as the 1-particle RhoCI density.

 Excited State   2:      Singlet-A      1.6821 eV  737.06 nm  f=0.4530  <S**2>=0.000
     309 -> 315        0.14034
     310 -> 316        0.10400
     311 -> 313        0.54431
     312 -> 314        0.41558

 Excited State   3:      Singlet-A      2.1800 eV  568.74 nm  f=0.0811  <S**2>=0.000
     309 -> 313       -0.21054
     310 -> 314        0.60901
     312 -> 316       -0.25001

 Excited State   4:      Singlet-A      2.1905 eV  566.01 nm  f=0.0003  <S**2>=0.000
     312 -> 313        0.70634

 Excited State   5:      Singlet-A      2.1951 eV  564.82 nm  f=0.1113  <S**2>=0.000
     309 -> 313        0.60468
     310 -> 314        0.20714
     311 -> 315       -0.26429

 The electronic state is 1-A.
 Alpha  occ. eigenvalues --  -46.87988 -46.87311 -19.26917 -19.25999 -19.19810
 Alpha  occ. eigenvalues --  -19.18989 -19.18823 -19.18533 -19.18477 -19.17764
 Alpha  occ. eigenvalues --  -14.42656 -14.42059 -14.41629 -14.41026 -14.39591
 Alpha  occ. eigenvalues --  -14.39019 -14.38795 -14.38265 -10.39769 -10.38749
 Alpha  occ. eigenvalues --  -10.35617 -10.35217 -10.34712 -10.33932 -10.32289
 Alpha  occ. eigenvalues --  -10.31635 -10.31419 -10.31143 -10.30813 -10.30783
 Alpha  occ. eigenvalues --  -10.30706 -10.30582 -10.30348 -10.30104 -10.30102
 Alpha  occ. eigenvalues --  -10.30012 -10.29831 -10.29823 -10.29603 -10.29425
 Alpha  occ. eigenvalues --  -10.29114 -10.29107 -10.29049 -10.28957 -10.28592
 Alpha  occ. eigenvalues --  -10.28369 -10.28115 -10.28056 -10.28032 -10.27997
 Alpha  occ. eigenvalues --  -10.27920 -10.27776 -10.27685 -10.27649 -10.27599
 Alpha  occ. eigenvalues --  -10.27584 -10.27560 -10.27546 -10.27255 -10.27232
 Alpha  occ. eigenvalues --  -10.27217 -10.27202 -10.27191 -10.27160 -10.27106
 Alpha  occ. eigenvalues --  -10.27096 -10.26702 -10.26535 -10.26455 -10.26305
 Alpha  occ. eigenvalues --  -10.26192 -10.26179 -10.26141 -10.26004 -10.25914
 Alpha  occ. eigenvalues --  -10.25638 -10.25604 -10.25534 -10.25256 -10.25061
 Alpha  occ. eigenvalues --  -10.24979 -10.24675 -10.24560 -10.24526 -10.24386
 Alpha  occ. eigenvalues --  -10.24379  -3.16730  -3.16062  -1.91611  -1.91198
 Alpha  occ. eigenvalues --   -1.91041  -1.90944  -1.90531  -1.90370  -1.17276
 Alpha  occ. eigenvalues --   -1.16295  -1.08967  -1.08372  -1.07389  -1.07352
 Alpha  occ. eigenvalues --   -1.06794  -1.06608  -1.04798  -1.04069  -1.03948
 Alpha  occ. eigenvalues --   -1.03428  -1.03299  -1.02717  -1.02607  -1.01771
 Alpha  occ. eigenvalues --   -0.92242  -0.91622  -0.89668  -0.89456  -0.89201
 Alpha  occ. eigenvalues --   -0.88422  -0.88416  -0.88068  -0.87945  -0.87885
 Alpha  occ. eigenvalues --   -0.87492  -0.87440  -0.87264  -0.86873  -0.85249
 Alpha  occ. eigenvalues --   -0.84439  -0.84087  -0.83628  -0.83114  -0.82911
 Alpha  occ. eigenvalues --   -0.82730  -0.82145  -0.81946  -0.81230  -0.80859
 Alpha  occ. eigenvalues --   -0.80089  -0.78975  -0.78342  -0.77422  -0.77221
 Alpha  occ. eigenvalues --   -0.76787  -0.76395  -0.76203  -0.75222  -0.75068
 Alpha  occ. eigenvalues --   -0.74484  -0.72967  -0.72340  -0.71890  -0.71117
 Alpha  occ. eigenvalues --   -0.69995  -0.69483  -0.69125  -0.68305  -0.67875
 Alpha  occ. eigenvalues --   -0.67491  -0.67289  -0.66755  -0.65570  -0.65136
 Alpha  occ. eigenvalues --   -0.64863  -0.64769  -0.64422  -0.64406  -0.64209
 Alpha  occ. eigenvalues --   -0.63892  -0.62690  -0.61939  -0.60606  -0.60079
 Alpha  occ. eigenvalues --   -0.60051  -0.59222  -0.59213  -0.58751  -0.58631
 Alpha  occ. eigenvalues --   -0.58081  -0.57997  -0.57506  -0.57217  -0.56955
 Alpha  occ. eigenvalues --   -0.56596  -0.56364  -0.55870  -0.55761  -0.55602
 Alpha  occ. eigenvalues --   -0.55519  -0.55123  -0.54959  -0.54836  -0.54189
 Alpha  occ. eigenvalues --   -0.54181  -0.53513  -0.53490  -0.53312  -0.53197
 Alpha  occ. eigenvalues --   -0.52951  -0.52923  -0.52779  -0.52551  -0.52518
 Alpha  occ. eigenvalues --   -0.52190  -0.52145  -0.52095  -0.51886  -0.51622
 Alpha  occ. eigenvalues --   -0.51442  -0.51182  -0.50829  -0.50705  -0.50245
 Alpha  occ. eigenvalues --   -0.50184  -0.50083  -0.49780  -0.49683  -0.49530
 Alpha  occ. eigenvalues --   -0.49481  -0.49362  -0.49039  -0.48917  -0.48823
 Alpha  occ. eigenvalues --   -0.48708  -0.48611  -0.48441  -0.48128  -0.48102
 Alpha  occ. eigenvalues --   -0.47972  -0.47919  -0.47501  -0.47170  -0.47001
 Alpha  occ. eigenvalues --   -0.46848  -0.46806  -0.46593  -0.46377  -0.46317
 Alpha  occ. eigenvalues --   -0.46136  -0.45994  -0.45889  -0.45790  -0.45406
 Alpha  occ. eigenvalues --   -0.45356  -0.44929  -0.44870  -0.44707  -0.44402
 Alpha  occ. eigenvalues --   -0.44291  -0.44241  -0.44194  -0.44077  -0.43846
 Alpha  occ. eigenvalues --   -0.43812  -0.43611  -0.43607  -0.43449  -0.43270
 Alpha  occ. eigenvalues --   -0.43194  -0.43168  -0.42876  -0.42786  -0.42590
 Alpha  occ. eigenvalues --   -0.42497  -0.42277  -0.42199  -0.41944  -0.41785
 Alpha  occ. eigenvalues --   -0.41624  -0.41360  -0.41294  -0.41104  -0.41024
 Alpha  occ. eigenvalues --   -0.40971  -0.40710  -0.40545  -0.40535  -0.40426
 Alpha  occ. eigenvalues --   -0.40249  -0.39878  -0.39680  -0.39517  -0.39161
 Alpha  occ. eigenvalues --   -0.38626  -0.38073  -0.38023  -0.37545  -0.37485
 Alpha  occ. eigenvalues --   -0.37252  -0.37178  -0.36902  -0.36689  -0.36456
 Alpha  occ. eigenvalues --   -0.36441  -0.35848  -0.34540  -0.34398  -0.33883
 Alpha  occ. eigenvalues --   -0.33525  -0.33407  -0.32829  -0.31521  -0.31256
 Alpha  occ. eigenvalues --   -0.31088  -0.30595  -0.30348  -0.29663  -0.29645
 Alpha  occ. eigenvalues --   -0.29533  -0.29050  -0.28910  -0.24291  -0.23678
 Alpha  occ. eigenvalues --   -0.21321  -0.20755
 Alpha virt. eigenvalues --   -0.08974  -0.08469  -0.01938  -0.01350  -0.00264
 Alpha virt. eigenvalues --    0.00294   0.01952   0.02374   0.02612   0.03665
 Alpha virt. eigenvalues --    0.04463   0.04469   0.05254   0.05513   0.05812

 Mulliken charges:
               1
     1  Mg   0.839457
     2  C   -0.004993
     3  C   -0.093737
     4  C   -0.045389
     5  C   -0.062899
     6  N   -0.256960
     7  C   -0.052802
     8  C   -0.014209
     9  C   -0.087178
    10  C    0.046510
    11  C    0.104652
    12  C    0.053506
    13  C   -0.071314
    14  H    0.032450
    15  N   -0.433354
    16  C    0.169270
    17  C   -0.176209
    18  C   -0.003492
    19  C    0.149091
    20  C    0.109829
    21  C    0.011985
    22  O   -0.249697
    23  C    0.061754
    24  N   -0.341135
    25  C    0.041872
    26  C   -0.028358
    27  C   -0.024007
    28  C    0.074809
    29  C    0.076063
    30  C    0.034774
    31  C   -0.006566
    32  N   -0.310278
    33  C    0.079943
    34  C   -0.170221
    35  C    0.007434
    36  C    0.082650
    37  C    0.127490
    38  C    0.044364
    39  O   -0.189579
    40  C   -0.005448
    41  C    0.217342
    42  O   -0.259532
    43  O   -0.302513
    44  C    0.157930
    45  H   -0.017168
    46  H   -0.016466
    47  H   -0.040232
    48  H    0.000717
    49  H   -0.003731
    50  H    0.025493
    51  H    0.017115
    52  H    0.017158
    53  H    0.012510
    54  H    0.040394
    55  H    0.019023
    56  H    0.019244
    57  H    0.006095
    58  H    0.027173
    59  H    0.041640
    60  H    0.037866
    61  H    0.035557
    62  H    0.033080
    63  H    0.016711
    64  H    0.009919
    65  H    0.023545
    66  H    0.012396
    67  H    0.005338
    68  H    0.006750
    69  H    0.006311
    70  H    0.007482
    71  H    0.022471
    72  H    0.029294
    73  H    0.046694
    74  H    0.010855
    75  H    0.046297
    76  H    0.036316
    77  H    0.044731
    78  H    0.047586
    79  H    0.050084
    80  Mg   0.835978
    81  C   -0.017111
    82  C   -0.087453
    83  C   -0.047233
    84  C   -0.065392
    85  N   -0.255646
    86  C   -0.047819
    87  C   -0.015395
    88  C   -0.090938
    89  C    0.045702
    90  C    0.115870
    91  C    0.062325
    92  C   -0.077067
    93  H    0.031563
    94  N   -0.423563
    95  C    0.163003
    96  C   -0.174818
    97  C   -0.009353
    98  C    0.152593
    99  C    0.099835
   100  C    0.014447
   101  O   -0.254850
   102  C    0.061623
   103  N   -0.350532
   104  C    0.037708
   105  C   -0.019650
   106  C   -0.035132
   107  C    0.088873
   108  C    0.072463
   109  C    0.035020
   110  C   -0.007492
   111  N   -0.324017
   112  C    0.078208
   113  C   -0.164096
   114  C    0.001407
   115  C    0.096204
   116  C    0.131735
   117  C    0.040950
   118  O   -0.189662
   119  C    0.001704
   120  C    0.211327
   121  O   -0.251641
   122  O   -0.305005
   123  C    0.152421
   124  H   -0.014733
   125  H   -0.017738
   126  H   -0.041323
   127  H    0.000882
   128  H   -0.006264
   129  H    0.018326
   130  H    0.012399
   131  H    0.034420
   132  H    0.012478
   133  H    0.035669
   134  H    0.023589
   135  H    0.019237
   136  H    0.010084
   137  H    0.023717
   138  H    0.038719
   139  H    0.036979
   140  H    0.035060
   141  H    0.034178
   142  H    0.013488
   143  H    0.013937
   144  H    0.022482
   145  H    0.009615
   146  H    0.008933
   147  H    0.005437
   148  H    0.003552
   149  H    0.010226
   150  H    0.017263
   151  H    0.030575
   152  H    0.045185
   153  H    0.008251
   154  H    0.045006
   155  H    0.035567
   156  H    0.042969
   157  H    0.050529
   158  H    0.052667
 Sum of Mulliken charges =  -0.00000

 Dipole moment (field-independent basis, Debye):
    X=             -6.3213    Y=              1.1364    Z=              4.8927  Tot=              8.0740
 Quadrupole moment (field-independent basis, Debye-Ang):
   XX=           -517.4032   YY=           -517.5671   ZZ=           -484.4027
   XY=             -9.5498   XZ=             -3.1613   YZ=            -21.3573

 Normal termination of Gaussian 16 at Thu Sep  9 10:18:27 2021.
