 Gaussian 16, Revision A.03,
 Gaussian 16:  ES64L-G16RevA.03 25-Dec-2016

 -----------------------------------
 #p cam-b3lyp/Def2SVP td=(nstates=5)
 -----------------------------------

 --------------------------------
 TDDFT excited states in gaussian
 --------------------------------
 Symbolic Z-matrix:
 Charge =  0 Multiplicity = 1

                         Standard orientation:
 ---------------------------------------------------------------------
 Center     Atomic      Atomic             Coordinates (Angstroms)
 Number     Number       Type             X           Y           Z
 ---------------------------------------------------------------------
      1         12           0        3.223817   -2.179899   -0.009077
      2          6           0        5.258036    0.589821   -1.010484
      3          6           0        4.644617   -1.914218    3.081847
      4          6           0        1.782502   -4.895848    0.767360
      5          6           0        2.833014   -2.925576   -3.390925
      6          7           0        4.745094   -0.795649    0.809589
      7          6           0        5.402189    0.259755    0.338931
      8          6           0        6.200888    1.028784    1.433485
      9          6           0        6.382700   -0.152293    2.488947
     10          6           0        5.166001   -0.987401    2.130952
     11          6           0        7.637451   -0.988161    2.257806
     12          6           0        5.383554    2.218551    2.040240
     13          6           0        6.197865    3.213575    2.872214
     14          1           0        5.841954    4.623637    2.823212
     15          7           0        2.833211   -2.962097    1.762489
     16          6           0        3.504119   -2.729508    2.916209
     17          6           0        2.830710   -3.543929    3.950579
     18          6           0        1.833536   -4.413714    3.267051
     19          6           0        2.132029   -4.140737    1.884385
     20          6           0        3.119191   -3.416624    5.414930
     21          6           0        0.785995   -5.351284    3.778666
     22          8           0        0.184814   -6.181733    3.014788
     23          6           0        0.541733   -5.333379    5.232302
     24          7           0        2.599921   -3.827138   -1.129342
     25          6           0        1.948228   -4.844738   -0.555957
     26          6           0        1.357405   -5.763349   -1.584073
     27          6           0        1.535103   -5.026505   -2.989504
     28          6           0        2.314422   -3.779013   -2.505050
     29          6           0        1.974982   -7.166407   -1.661768
     30          6           0        0.256711   -4.813785   -3.838552
     31          6           0       -0.660196   -3.829285   -3.147799
     32          7           0        3.759304   -1.242371   -1.891984
     33          6           0        3.517163   -1.740015   -3.180546
     34          6           0        4.157460   -0.811025   -4.129791
     35          6           0        4.745553    0.159863   -3.321479
     36          6           0        4.511226   -0.157672   -1.953065
     37          6           0        4.194861   -0.959512   -5.544353
     38          6           0        5.538365    1.378301   -3.294741
     39          8           0        5.951269    2.163139   -4.149746
     40          6           0        6.005589    1.639272   -1.794934
     41          6           0        5.729558    3.083739   -1.477711
     42          8           0        4.559114    3.510905   -1.407315
     43          8           0        6.864946    3.675530   -1.076186
     44          6           0        6.654722    5.103607   -0.717638
     45          1           0        5.189108   -2.076430    4.014133
     46          1           0        1.187162   -5.784688    0.986385
     47          1           0        2.681125   -3.047785   -4.464912
     48          1           0        7.176357    1.394137    1.111923
     49          1           0        6.308422    0.204706    3.515960
     50          1           0        8.132976   -0.713809    1.326620
     51          1           0        7.294760   -2.022249    2.216365
     52          1           0        8.306375   -0.928372    3.116726
     53          1           0        4.712764    1.837954    2.810466
     54          1           0        4.847149    2.756733    1.257964
     55          1           0        7.268694    3.084146    2.712584
     56          1           0        6.050728    2.978268    3.926339
     57          1           0        4.012063   -2.819763    5.596815
     58          1           0        3.379327   -4.411491    5.775870
     59          1           0        2.261808   -3.036516    5.970576
     60          1           0        1.466611   -5.576778    5.755663
     61          1           0       -0.300755   -6.002418    5.403915
     62          1           0        0.276853   -4.319402    5.533367
     63          1           0        0.296741   -5.927504   -1.398405
     64          1           0        2.208139   -5.569260   -3.653667
     65          1           0        1.252477   -7.971111   -1.523412
     66          1           0        2.772294   -7.225136   -0.921406
     67          1           0        2.518466   -7.376237   -2.582645
     68          1           0       -0.292970   -5.749237   -3.937173
     69          1           0        0.463635   -4.443265   -4.842618
     70          1           0       -1.200490   -4.455837   -2.439035
     71          1           0       -1.342736   -3.375809   -3.867319
     72          1           0       -0.095520   -3.096793   -2.570666
     73          1           0        3.987234    0.026379   -5.960141
     74          1           0        3.465837   -1.694530   -5.884757
     75          1           0        5.222426   -1.294392   -5.685140
     76          1           0        7.069262    1.406961   -1.753046
     77          1           0        7.348106    5.691098   -1.319558
     78          1           0        6.746428    5.167577    0.366752
     79          1           0        5.701318    5.540424   -1.016888
     80         12           0       -3.373455    2.229262    0.386775
     81          6           0       -5.185036   -0.787635   -0.317165
     82          6           0       -2.481369    2.284649   -2.904986
     83          6           0       -1.407777    4.626579    1.062339
     84          6           0       -3.449921    1.325428    3.751734
     85          7           0       -3.836577    0.869129   -1.294832
     86          6           0       -4.585471   -0.211340   -1.456397
     87          6           0       -4.763680   -0.655485   -2.933057
     88          6           0       -3.439027    0.013395   -3.546883
     89          6           0       -3.252786    1.150929   -2.544874
     90          6           0       -2.219692   -0.890709   -3.475172
     91          6           0       -6.061792   -0.060747   -3.583601
     92          6           0       -6.461743   -0.695805   -4.917204
     93          1           0       -7.882774   -0.845264   -5.218543
     94          7           0       -2.528966    3.572507   -0.805323
     95          6           0       -2.261874    3.438834   -2.121408
     96          6           0       -1.619871    4.697342   -2.531489
     97          6           0       -1.380601    5.520091   -1.314709
     98          6           0       -1.752373    4.575482   -0.280493
     99          6           0       -1.367627    5.051665   -3.968242
    100          6           0       -0.885398    6.920406   -1.114474
    101          8           0       -0.528741    7.349967    0.039262
    102          6           0       -0.741995    7.744261   -2.323689
    103          7           0       -2.363520    2.779212    2.118808
    104          6           0       -1.615135    3.895612    2.157780
    105          6           0       -1.213019    4.233607    3.573564
    106          6           0       -2.052500    3.242691    4.506804
    107          6           0       -2.758767    2.406420    3.417203
    108          6           0        0.275214    4.095040    3.893495
    109          6           0       -2.920692    3.890700    5.619913
    110          6           0       -4.054570    4.674657    4.999336
    111          7           0       -4.318326    0.680627    1.560234
    112          6           0       -4.196168    0.470057    2.951209
    113          6           0       -4.929742   -0.772096    3.269578
    114          6           0       -5.412243   -1.213867    2.028396
    115          6           0       -4.990880   -0.321678    1.005680
    116          6           0       -5.037918   -1.367338    4.558021
    117          6           0       -6.173251   -2.237830    1.349380
    118          8           0       -6.846592   -3.202451    1.709743
    119          6           0       -5.953548   -2.075992   -0.216486
    120          6           0       -7.299955   -2.142651   -0.883771
    121          8           0       -8.149869   -1.257469   -0.682017
    122          8           0       -7.283721   -3.116016   -1.812565
    123          6           0       -8.593873   -3.213644   -2.509548
    124          1           0       -1.958698    2.273890   -3.861854
    125          1           0       -0.821676    5.497109    1.365918
    126          1           0       -3.603128    1.029152    4.791653
    127          1           0       -4.746128   -1.727268   -3.090328
    128          1           0       -3.621261    0.408601   -4.542856
    129          1           0       -2.418692   -1.791790   -2.914282
    130          1           0       -1.448233   -0.306314   -2.991031
    131          1           0       -1.848981   -1.104201   -4.481813
    132          1           0       -5.857440    0.964653   -3.917582
    133          1           0       -6.886597   -0.107407   -2.899385
    134          1           0       -5.928676   -1.636315   -5.102177
    135          1           0       -6.134465   -0.038585   -5.726507
    136          1           0       -1.497059    4.182946   -4.625486
    137          1           0       -0.304515    5.301241   -4.054127
    138          1           0       -1.959451    5.906923   -4.301308
    139          1           0       -0.055501    7.257961   -3.012675
    140          1           0       -0.462717    8.738170   -1.968704
    141          1           0       -1.712567    7.794799   -2.829711
    142          1           0       -1.478083    5.255043    3.817485
    143          1           0       -1.398946    2.551530    5.059075
    144          1           0        0.727489    5.028214    4.279124
    145          1           0        0.787345    3.765535    2.999242
    146          1           0        0.523455    3.309102    4.604753
    147          1           0       -2.327246    4.605742    6.194974
    148          1           0       -3.328801    3.172026    6.322724
    149          1           0       -3.587072    5.633193    4.754903
    150          1           0       -4.867109    4.802100    5.711779
    151          1           0       -4.380322    4.217206    4.057919
    152          1           0       -6.068811   -1.674657    4.673460
    153          1           0       -4.738420   -0.675131    5.342192
    154          1           0       -4.332416   -2.195531    4.450106
    155          1           0       -5.295788   -2.883543   -0.540189
    156          1           0       -8.936603   -4.247416   -2.402232
    157          1           0       -8.413450   -2.846929   -3.537516
    158          1           0       -9.429095   -2.668799   -2.085295
 ---------------------------------------------------------------------

 SCF Done:  E(RCAM-B3LYP) =  -4069.80969545     A.U. after   19 cycles

 Excitation energies and oscillator strengths:

 Excited State   1:      Singlet-A      1.6416 eV  755.28 nm  f=0.0403  <S**2>=0.000
     309 -> 315        0.11453
     310 -> 316        0.11910
     311 -> 313       -0.47505
     312 -> 314        0.49739
 This state for optimization and/or second-order correction.
 Total Energy, E(TD-HF/TD-DFT) =  -4069.74936888
 Copying the excited state density for this state as the 1-particle RhoCI density.

 Excited State   2:      Singlet-A      1.7085 eV  725.69 nm  f=0.6292  <S**2>=0.000
     309 -> 315       -0.13213
     310 -> 316        0.12610
     311 -> 313        0.49440
     312 -> 314        0.47243

 Excited State   3:      Singlet-A      2.1829 eV  567.98 nm  f=0.0159  <S**2>=0.000
     309 -> 313       -0.40956
     310 -> 314        0.49876
     311 -> 315       -0.16972
     312 -> 316       -0.20709

 Excited State   4:      Singlet-A      2.1980 eV  564.08 nm  f=0.1583  <S**2>=0.000
     309 -> 313        0.49341
     310 -> 314        0.40435
     311 -> 315        0.21877
     312 -> 316       -0.17977

 Excited State   5:      Singlet-A      2.2319 eV  555.51 nm  f=0.0000  <S**2>=0.000
     312 -> 313        0.70691

 The electronic state is 1-A.
 Alpha  occ. eigenvalues --  -46.87919 -46.87395 -19.26341 -19.26174 -19.19093
 Alpha  occ. eigenvalues --  -19.18966 -19.18863 -19.18375 -19.18317 -19.17770
 Alpha  occ. eigenvalues --  -14.42567 -14.42233 -14.41579 -14.41109 -14.39517
 Alpha  occ. eigenvalues --  -14.39062 -14.38723 -14.38333 -10.39155 -10.38891
 Alpha  occ. eigenvalues --  -10.35493 -10.35046 -10.34533 -10.33955 -10.31696
 Alpha  occ. eigenvalues --  -10.31615 -10.31538 -10.31062 -10.31003 -10.30732
 Alpha  occ. eigenvalues --  -10.30714 -10.30638 -10.30333 -10.30132 -10.30095
 Alpha  occ. eigenvalues --  -10.30061 -10.29877 -10.29763 -10.29673 -10.29377
 Alpha  occ. eigenvalues --  -10.29129 -10.29114 -10.28826 -10.28555 -10.28518
 Alpha  occ. eigenvalues --  -10.28498 -10.28481 -10.28211 -10.28105 -10.27930
 Alpha  occ. eigenvalues --  -10.27874 -10.27852 -10.27703 -10.27700 -10.27661
 Alpha  occ. eigenvalues --  -10.27588 -10.27580 -10.27518 -10.27381 -10.27379
 Alpha  occ. eigenvalues --  -10.27268 -10.27231 -10.27215 -10.27150 -10.27004
 Alpha  occ. eigenvalues --  -10.26799 -10.26754 -10.26503 -10.26431 -10.26405
 Alpha  occ. eigenvalues --  -10.26323 -10.26173 -10.26081 -10.26046 -10.26027
 Alpha  occ. eigenvalues --  -10.25716 -10.25697 -10.25659 -10.25532 -10.25295
 Alpha  occ. eigenvalues --  -10.24973 -10.24915 -10.24903 -10.24625 -10.24581
 Alpha  occ. eigenvalues --  -10.24420  -3.16661  -3.16145  -1.91542  -1.91129
 Alpha  occ. eigenvalues --   -1.91028  -1.90971  -1.90617  -1.90453  -1.16694
 Alpha  occ. eigenvalues --   -1.16463  -1.08775  -1.08387  -1.07257  -1.06749
 Alpha  occ. eigenvalues --   -1.06717  -1.06621  -1.04697  -1.04226  -1.03885
 Alpha  occ. eigenvalues --   -1.03396  -1.03363  -1.02776  -1.02540  -1.01842
 Alpha  occ. eigenvalues --   -0.92094  -0.91721  -0.89683  -0.89285  -0.89279
 Alpha  occ. eigenvalues --   -0.88926  -0.88435  -0.88038  -0.88033  -0.87790
 Alpha  occ. eigenvalues --   -0.87543  -0.87428  -0.87374  -0.86762  -0.85074
 Alpha  occ. eigenvalues --   -0.84773  -0.84107  -0.83708  -0.83063  -0.82739
 Alpha  occ. eigenvalues --   -0.82631  -0.82382  -0.81685  -0.81378  -0.80700
 Alpha  occ. eigenvalues --   -0.80193  -0.78920  -0.78322  -0.77375  -0.77053
 Alpha  occ. eigenvalues --   -0.76897  -0.76700  -0.76029  -0.75615  -0.75024
 Alpha  occ. eigenvalues --   -0.74611  -0.72919  -0.72444  -0.71787  -0.71374
 Alpha  occ. eigenvalues --   -0.70130  -0.69598  -0.68976  -0.68578  -0.67754
 Alpha  occ. eigenvalues --   -0.67345  -0.67291  -0.66944  -0.65393  -0.65068
 Alpha  occ. eigenvalues --   -0.64963  -0.64735  -0.64534  -0.64468  -0.64366
 Alpha  occ. eigenvalues --   -0.64001  -0.62392  -0.62069  -0.60553  -0.60041
 Alpha  occ. eigenvalues --   -0.59909  -0.59553  -0.59113  -0.58749  -0.58628
 Alpha  occ. eigenvalues --   -0.58178  -0.57700  -0.57432  -0.57316  -0.56993
 Alpha  occ. eigenvalues --   -0.56439  -0.56053  -0.55940  -0.55683  -0.55622
 Alpha  occ. eigenvalues --   -0.55498  -0.55173  -0.55062  -0.54685  -0.54309
 Alpha  occ. eigenvalues --   -0.53983  -0.53795  -0.53400  -0.53306  -0.53044
 Alpha  occ. eigenvalues --   -0.52978  -0.52875  -0.52839  -0.52705  -0.52595
 Alpha  occ. eigenvalues --   -0.52324  -0.52244  -0.52106  -0.51700  -0.51662
 Alpha  occ. eigenvalues --   -0.51399  -0.51330  -0.50969  -0.50674  -0.50305
 Alpha  occ. eigenvalues --   -0.50114  -0.50007  -0.49712  -0.49640  -0.49579
 Alpha  occ. eigenvalues --   -0.49335  -0.49215  -0.49196  -0.48921  -0.48879
 Alpha  occ. eigenvalues --   -0.48704  -0.48592  -0.48521  -0.48337  -0.48182
 Alpha  occ. eigenvalues --   -0.48025  -0.47800  -0.47408  -0.47353  -0.46924
 Alpha  occ. eigenvalues --   -0.46843  -0.46643  -0.46544  -0.46435  -0.46339
 Alpha  occ. eigenvalues --   -0.46291  -0.46004  -0.45954  -0.45874  -0.45618
 Alpha  occ. eigenvalues --   -0.45330  -0.45005  -0.44720  -0.44611  -0.44323
 Alpha  occ. eigenvalues --   -0.44305  -0.44243  -0.44187  -0.44114  -0.43915
 Alpha  occ. eigenvalues --   -0.43831  -0.43643  -0.43604  -0.43496  -0.43390
 Alpha  occ. eigenvalues --   -0.43245  -0.43115  -0.42767  -0.42744  -0.42717
 Alpha  occ. eigenvalues --   -0.42588  -0.42332  -0.42069  -0.41831  -0.41768
 Alpha  occ. eigenvalues --   -0.41622  -0.41410  -0.41259  -0.41233  -0.40989
 Alpha  occ. eigenvalues --   -0.40882  -0.40760  -0.40683  -0.40509  -0.40411
 Alpha  occ. eigenvalues --   -0.40302  -0.40290  -0.39996  -0.39599  -0.39276
 Alpha  occ. eigenvalues --   -0.38601  -0.38166  -0.37821  -0.37479  -0.37429
 Alpha  occ. eigenvalues --   -0.37354  -0.37051  -0.36948  -0.36781  -0.36585
 Alpha  occ. eigenvalues --   -0.36285  -0.36012  -0.34414  -0.33993  -0.33852
 Alpha  occ. eigenvalues --   -0.33650  -0.33310  -0.32907  -0.31395  -0.31148
 Alpha  occ. eigenvalues --   -0.30945  -0.30699  -0.30176  -0.29685  -0.29569
 Alpha  occ. eigenvalues --   -0.29460  -0.29008  -0.28915  -0.24205  -0.23769
 Alpha  occ. eigenvalues --   -0.21259  -0.20839
 Alpha virt. eigenvalues --   -0.08899  -0.08496  -0.01869  -0.01417  -0.00151
 Alpha virt. eigenvalues --    0.00294   0.02054   0.02379   0.02591   0.03597
 Alpha virt. eigenvalues --    0.04615   0.05009   0.05014   0.05377   0.06091

 Mulliken charges:
               1
     1  Mg   0.838862
     2  C   -0.002199
     3  C   -0.094309
     4  C   -0.045419
     5  C   -0.065379
     6  N   -0.256784
     7  C   -0.052389
     8  C   -0.014108
     9  C   -0.087017
    10  C    0.046698
    11  C    0.104763
    12  C    0.053066
    13  C   -0.072620
    14  H    0.038467
    15  N   -0.433427
    16  C    0.169073
    17  C   -0.177031
    18  C   -0.003221
    19  C    0.149532
    20  C    0.110189
    21  C    0.013112
    22  O   -0.247739
    23  C    0.062126
    24  N   -0.341139
    25  C    0.041078
    26  C   -0.029074
    27  C   -0.025593
    28  C    0.074683
    29  C    0.076190
    30  C    0.053767
    31  C   -0.032096
    32  N   -0.310176
    33  C    0.079526
    34  C   -0.172122
    35  C    0.007856
    36  C    0.082580
    37  C    0.127836
    38  C    0.045117
    39  O   -0.189475
    40  C   -0.004967
    41  C    0.212148
    42  O   -0.256667
    43  O   -0.304938
    44  C    0.157496
    45  H   -0.017231
    46  H   -0.015804
    47  H   -0.042953
    48  H    0.001097
    49  H   -0.003932
    50  H    0.025595
    51  H    0.016438
    52  H    0.016975
    53  H    0.010573
    54  H    0.045544
    55  H    0.017719
    56  H    0.017394
    57  H    0.005901
    58  H    0.027526
    59  H    0.039382
    60  H    0.037199
    61  H    0.037600
    62  H    0.030772
    63  H    0.017515
    64  H    0.009640
    65  H    0.024171
    66  H    0.012898
    67  H    0.004686
    68  H    0.005388
    69  H    0.001395
    70  H    0.010610
    71  H    0.020214
    72  H    0.034872
    73  H    0.045304
    74  H    0.007743
    75  H    0.046659
    76  H    0.035334
    77  H    0.042581
    78  H    0.047135
    79  H    0.054664
    80  Mg   0.836779
    81  C   -0.016906
    82  C   -0.086597
    83  C   -0.042424
    84  C   -0.065974
    85  N   -0.254561
    86  C   -0.051065
    87  C   -0.014484
    88  C   -0.087140
    89  C    0.044876
    90  C    0.094392
    91  C    0.063864
    92  C   -0.077382
    93  H    0.034306
    94  N   -0.424580
    95  C    0.163012
    96  C   -0.168869
    97  C   -0.005017
    98  C    0.153175
    99  C    0.097000
   100  C    0.018145
   101  O   -0.254100
   102  C    0.060214
   103  N   -0.350064
   104  C    0.037276
   105  C   -0.019880
   106  C   -0.034062
   107  C    0.088391
   108  C    0.073102
   109  C    0.035142
   110  C   -0.007499
   111  N   -0.323928
   112  C    0.077761
   113  C   -0.163915
   114  C    0.002642
   115  C    0.095356
   116  C    0.131092
   117  C    0.042731
   118  O   -0.188581
   119  C    0.000782
   120  C    0.211013
   121  O   -0.251336
   122  O   -0.305698
   123  C    0.152208
   124  H   -0.017315
   125  H   -0.015544
   126  H   -0.042636
   127  H   -0.001567
   128  H   -0.005340
   129  H    0.037474
   130  H    0.017347
   131  H    0.019240
   132  H    0.013982
   133  H    0.037264
   134  H    0.019411
   135  H    0.019448
   136  H    0.008732
   137  H    0.033549
   138  H    0.038445
   139  H    0.042200
   140  H    0.034929
   141  H    0.032640
   142  H    0.013909
   143  H    0.009759
   144  H    0.023636
   145  H    0.015736
   146  H    0.002207
   147  H    0.004898
   148  H    0.002560
   149  H    0.010752
   150  H    0.017271
   151  H    0.031011
   152  H    0.045425
   153  H    0.006717
   154  H    0.046568
   155  H    0.035341
   156  H    0.043481
   157  H    0.049028
   158  H    0.053369
 Sum of Mulliken charges =  -0.00000

 Dipole moment (field-independent basis, Debye):
    X=              4.6219    Y=             -0.6229    Z=              0.4412  Tot=              4.6845
 Quadrupole moment (field-independent basis, Debye-Ang):
   XX=           -534.6956   YY=           -530.5878   ZZ=           -455.3629
   XY=            -19.8340   XZ=             54.4115   YZ=             19.3965

 Normal termination of Gaussian 16 at Fri Sep  3 12:53:14 2021.
