 Gaussian 16, Revision A.03,
 Gaussian 16:  ES64L-G16RevA.03 25-Dec-2016

 -----------------------------------
 #p cam-b3lyp/Def2SVP td=(nstates=5)
 -----------------------------------

 --------------------------------
 TDDFT excited states in gaussian
 --------------------------------
 Symbolic Z-matrix:
 Charge =  0 Multiplicity = 1

                         Standard orientation:
 ---------------------------------------------------------------------
 Center     Atomic      Atomic             Coordinates (Angstroms)
 Number     Number       Type             X           Y           Z
 ---------------------------------------------------------------------
      1         12           0        5.207813   -0.606207   -0.460760
      2          6           0        5.385341    2.860450    0.412733
      3          6           0        6.340608   -1.302882    2.681609
      4          6           0        5.492734   -3.636017   -1.352775
      5          6           0        5.192266    0.388039   -3.800954
      6          7           0        5.756098    0.699050    1.241102
      7          6           0        5.722217    2.008622    1.467033
      8          6           0        6.005241    2.386960    2.951665
      9          6           0        6.827522    1.092854    3.388861
     10          6           0        6.249494    0.093170    2.402739
     11          6           0        8.328197    1.212975    3.143813
     12          6           0        4.689976    2.539415    3.787468
     13          6           0        4.856320    3.220288    5.149119
     14          1           0        3.791030    4.084355    5.634809
     15          7           0        5.352589   -2.252322    0.621919
     16          6           0        5.821036   -2.349428    1.889362
     17          6           0        5.725803   -3.780208    2.250584
     18          6           0        5.342023   -4.534354    1.024994
     19          6           0        5.406833   -3.494358    0.030215
     20          6           0        5.938785   -4.293612    3.641557
     21          6           0        4.985288   -5.967479    0.786196
     22          8           0        4.910419   -6.462872   -0.390050
     23          6           0        4.810095   -6.809167    1.983656
     24          7           0        5.547395   -1.516639   -2.308308
     25          6           0        5.568093   -2.848660   -2.427780
     26          6           0        5.542564   -3.268179   -3.867673
     27          6           0        5.253629   -1.942340   -4.709349
     28          6           0        5.244133   -0.921140   -3.545163
     29          6           0        6.820278   -3.937526   -4.392490
     30          6           0        4.041839   -1.972086   -5.674284
     31          6           0        2.756654   -2.056976   -4.881699
     32          7           0        5.097346    1.277082   -1.534104
     33          6           0        5.129016    1.458304   -2.924366
     34          6           0        5.136599    2.912077   -3.170446
     35          6           0        5.125481    3.479231   -1.897631
     36          6           0        5.138332    2.445313   -0.918273
     37          6           0        5.210051    3.541267   -4.444478
     38          6           0        5.130615    4.718289   -1.136997
     39          8           0        5.028086    5.912018   -1.423341
     40          6           0        5.422089    4.368305    0.388906
     41          6           0        4.415163    5.109517    1.225574
     42          8           0        3.202668    4.818663    1.174335
     43          8           0        5.058148    5.873890    2.121591
     44          6           0        4.116488    6.613946    3.003492
     45          1           0        6.911131   -1.630990    3.552695
     46          1           0        5.481220   -4.669049   -1.706541
     47          1           0        5.101821    0.772538   -4.818516
     48          1           0        6.617155    3.279330    3.084561
     49          1           0        6.599408    0.791915    4.411173
     50          1           0        8.569967    2.119371    2.588911
     51          1           0        8.600512    0.329166    2.566563
     52          1           0        8.880719    1.140719    4.080976
     53          1           0        4.354336    1.554572    4.112264
     54          1           0        3.926308    3.064550    3.212690
     55          1           0        5.821191    3.721884    5.228707
     56          1           0        4.889189    2.446490    5.916162
     57          1           0        6.369441   -3.530437    4.288585
     58          1           0        6.706862   -5.064491    3.582301
     59          1           0        5.027862   -4.714265    4.067703
     60          1           0        5.732881   -6.805631    2.564175
     61          1           0        4.470531   -7.779208    1.622317
     62          1           0        4.045693   -6.362708    2.620299
     63          1           0        4.746248   -3.988361   -4.051099
     64          1           0        6.095093   -1.671484   -5.347510
     65          1           0        6.654155   -4.930338   -4.811335
     66          1           0        7.541669   -3.972971   -3.576629
     67          1           0        7.365330   -3.360118   -5.138771
     68          1           0        4.085301   -2.855472   -6.310433
     69          1           0        3.987153   -1.098190   -6.323566
     70          1           0        2.662361   -3.124226   -4.684423
     71          1           0        1.917977   -1.694390   -5.476982
     72          1           0        2.848947   -1.554499   -3.918639
     73          1           0        4.489434    4.358713   -4.422974
     74          1           0        4.987603    2.838108   -5.246780
     75          1           0        6.250601    3.865431   -4.449907
     76          1           0        6.442268    4.690562    0.595079
     77          1           0        4.363409    7.672405    2.920258
     78          1           0        4.188295    6.153612    3.989059
     79          1           0        3.070899    6.621561    2.693612
     80         12           0       -5.349145   -0.879407    0.339552
     81          6           0       -5.331412    2.446531   -1.008370
     82          6           0       -4.283110    0.469418    3.285541
     83          6           0       -4.921942   -3.831255    1.421924
     84          6           0       -5.296676   -2.059235   -2.939313
     85          7           0       -4.901736    1.202513    0.937621
     86          6           0       -4.990498    2.390730    0.359149
     87          6           0       -4.775770    3.591252    1.319451
     88          6           0       -3.909117    2.845260    2.446964
     89          6           0       -4.416308    1.419351    2.241519
     90          6           0       -2.415199    2.865495    2.169210
     91          6           0       -6.125614    4.139732    1.901779
     92          6           0       -6.020512    5.497890    2.598995
     93          1           0       -7.138962    6.429328    2.480847
     94          7           0       -5.175347   -1.553199    2.198152
     95          6           0       -4.748371   -0.863924    3.276983
     96          6           0       -4.783940   -1.812814    4.400590
     97          6           0       -5.109517   -3.162442    3.864660
     98          6           0       -5.060001   -2.899493    2.440413
     99          6           0       -4.601580   -1.389502    5.829219
    100          6           0       -5.402687   -4.475742    4.524594
    101          8           0       -5.424590   -5.572439    3.861566
    102          6           0       -5.571093   -4.452485    5.984930
    103          7           0       -4.926233   -2.681115   -0.607725
    104          6           0       -4.843721   -3.826885    0.091069
    105          6           0       -4.806696   -5.024731   -0.827733
    106          6           0       -5.126581   -4.456221   -2.287888
    107          6           0       -5.208736   -2.949130   -1.960272
    108          6           0       -3.488379   -5.797609   -0.860345
    109          6           0       -6.307678   -5.111329   -3.055020
    110          6           0       -7.613681   -4.787280   -2.365997
    111          7           0       -5.504903   -0.005931   -1.630428
    112          6           0       -5.432318   -0.678588   -2.869914
    113          6           0       -5.474662    0.351884   -3.927626
    114          6           0       -5.546303    1.563640   -3.224069
    115          6           0       -5.528090    1.307672   -1.826336
    116          6           0       -5.397994    0.109994   -5.328250
    117          6           0       -5.622470    3.001709   -3.345902
    118          8           0       -5.755769    3.788308   -4.282513
    119          6           0       -5.359178    3.644637   -1.916321
    120          6           0       -6.418535    4.684235   -1.672317
    121          8           0       -7.612143    4.355092   -1.555848
    122          8           0       -5.826335    5.861597   -1.401232
    123          6           0       -6.836079    6.922079   -1.141166
    124          1           0       -3.733171    0.757370    4.181939
    125          1           0       -4.882471   -4.875521    1.740396
    126          1           0       -5.383494   -2.351669   -3.987939
    127          1           0       -4.209679    4.413731    0.898924
    128          1           0       -4.164747    3.201293    3.441574
    129          1           0       -2.191875    3.276956    1.196088
    130          1           0       -2.091161    1.834654    2.227556
    131          1           0       -1.889830    3.392401    2.970899
    132          1           0       -6.428906    3.515121    2.751854
    133          1           0       -6.879897    4.181889    1.140257
    134          1           0       -5.073602    6.004008    2.375044
    135          1           0       -5.987021    5.332103    3.678539
    136          1           0       -4.213913   -0.365663    5.899033
    137          1           0       -3.802832   -2.011497    6.247546
    138          1           0       -5.505171   -1.525211    6.427358
    139          1           0       -4.669131   -4.057329    6.446219
    140          1           0       -5.862397   -5.467573    6.261713
    141          1           0       -6.381504   -3.757863    6.232632
    142          1           0       -5.569236   -5.744299   -0.555962
    143          1           0       -4.273544   -4.583359   -2.970532
    144          1           0       -3.603496   -6.867954   -0.605027
    145          1           0       -2.794474   -5.317633   -0.183096
    146          1           0       -2.952562   -5.757039   -1.807160
    147          1           0       -6.211110   -6.199739   -3.041047
    148          1           0       -6.369489   -4.806830   -4.094468
    149          1           0       -7.665977   -5.537191   -1.571020
    150          1           0       -8.447169   -4.887237   -3.058340
    151          1           0       -7.572283   -3.801921   -1.887447
    152          1           0       -6.143094    0.740885   -5.794403
    153          1           0       -5.563691   -0.940055   -5.560026
    154          1           0       -4.366426    0.415466   -5.522752
    155          1           0       -4.357635    4.076248   -1.930651
    156          1           0       -6.625242    7.741196   -1.835632
    157          1           0       -6.762199    7.146339   -0.060427
    158          1           0       -7.869070    6.700627   -1.382698
 ---------------------------------------------------------------------

 SCF Done:  E(RCAM-B3LYP) =  -4069.81189964     A.U. after   19 cycles

 Excitation energies and oscillator strengths:

 Excited State   1:      Singlet-A      1.6602 eV  746.80 nm  f=0.0651  <S**2>=0.000
     309 -> 315       -0.11034
     310 -> 316        0.12905
     311 -> 313       -0.44400
     312 -> 314        0.52418
 This state for optimization and/or second-order correction.
 Total Energy, E(TD-HF/TD-DFT) =  -4069.75088827
 Copying the excited state density for this state as the 1-particle RhoCI density.

 Excited State   2:      Singlet-A      1.6921 eV  732.73 nm  f=0.6512  <S**2>=0.000
     309 -> 315        0.13666
     310 -> 316        0.11419
     311 -> 313        0.52253
     312 -> 314        0.44265

 Excited State   3:      Singlet-A      2.1823 eV  568.14 nm  f=0.0470  <S**2>=0.000
     309 -> 313       -0.22398
     310 -> 314        0.60377
     312 -> 316       -0.25253

 Excited State   4:      Singlet-A      2.1949 eV  564.87 nm  f=0.1392  <S**2>=0.000
     309 -> 313        0.60007
     310 -> 314        0.22123
     311 -> 315       -0.26308

 Excited State   5:      Singlet-A      2.4788 eV  500.17 nm  f=0.0000  <S**2>=0.000
     312 -> 313        0.70709

 The electronic state is 1-A.
 Alpha  occ. eigenvalues --  -46.87889 -46.87474 -19.26477 -19.26104 -19.19213
 Alpha  occ. eigenvalues --  -19.18935 -19.18876 -19.18601 -19.18264 -19.17850
 Alpha  occ. eigenvalues --  -14.42550 -14.42292 -14.41538 -14.41177 -14.39491
 Alpha  occ. eigenvalues --  -14.39175 -14.38677 -14.38414 -10.39264 -10.38860
 Alpha  occ. eigenvalues --  -10.35508 -10.35283 -10.34489 -10.34021 -10.31901
 Alpha  occ. eigenvalues --  -10.31520 -10.31509 -10.31085 -10.31019 -10.30815
 Alpha  occ. eigenvalues --  -10.30661 -10.30591 -10.30286 -10.30224 -10.30174
 Alpha  occ. eigenvalues --  -10.30003 -10.29979 -10.29717 -10.29712 -10.29335
 Alpha  occ. eigenvalues --  -10.29271 -10.29237 -10.28902 -10.28781 -10.28460
 Alpha  occ. eigenvalues --  -10.28433 -10.28428 -10.28248 -10.28216 -10.27874
 Alpha  occ. eigenvalues --  -10.27827 -10.27823 -10.27822 -10.27665 -10.27566
 Alpha  occ. eigenvalues --  -10.27560 -10.27519 -10.27506 -10.27471 -10.27370
 Alpha  occ. eigenvalues --  -10.27367 -10.27309 -10.27284 -10.27283 -10.27220
 Alpha  occ. eigenvalues --  -10.26918 -10.26807 -10.26458 -10.26446 -10.26351
 Alpha  occ. eigenvalues --  -10.26348 -10.26241 -10.26099 -10.26013 -10.25882
 Alpha  occ. eigenvalues --  -10.25763 -10.25706 -10.25538 -10.25495 -10.25233
 Alpha  occ. eigenvalues --  -10.24917 -10.24874 -10.24752 -10.24693 -10.24613
 Alpha  occ. eigenvalues --  -10.24514  -3.16632  -3.16224  -1.91513  -1.91106
 Alpha  occ. eigenvalues --   -1.91100  -1.90942  -1.90695  -1.90532  -1.16825
 Alpha  occ. eigenvalues --   -1.16403  -1.08728  -1.08451  -1.07276  -1.06857
 Alpha  occ. eigenvalues --   -1.06832  -1.06718  -1.04683  -1.04288  -1.03850
 Alpha  occ. eigenvalues --   -1.03476  -1.03321  -1.02861  -1.02500  -1.01928
 Alpha  occ. eigenvalues --   -0.92076  -0.91782  -0.89599  -0.89328  -0.89327
 Alpha  occ. eigenvalues --   -0.88868  -0.88365  -0.88057  -0.87944  -0.87778
 Alpha  occ. eigenvalues --   -0.87623  -0.87486  -0.87348  -0.86988  -0.85114
 Alpha  occ. eigenvalues --   -0.84764  -0.84016  -0.83716  -0.83033  -0.82815
 Alpha  occ. eigenvalues --   -0.82767  -0.82435  -0.81722  -0.81388  -0.80707
 Alpha  occ. eigenvalues --   -0.80249  -0.78875  -0.78482  -0.77320  -0.77066
 Alpha  occ. eigenvalues --   -0.76949  -0.76672  -0.76046  -0.75587  -0.74984
 Alpha  occ. eigenvalues --   -0.74621  -0.72859  -0.72517  -0.71771  -0.71360
 Alpha  occ. eigenvalues --   -0.69980  -0.69604  -0.68994  -0.68605  -0.67738
 Alpha  occ. eigenvalues --   -0.67424  -0.67357  -0.67007  -0.65419  -0.65036
 Alpha  occ. eigenvalues --   -0.64963  -0.64735  -0.64577  -0.64443  -0.64353
 Alpha  occ. eigenvalues --   -0.64033  -0.62440  -0.62069  -0.60518  -0.60193
 Alpha  occ. eigenvalues --   -0.59924  -0.59552  -0.59084  -0.58802  -0.58602
 Alpha  occ. eigenvalues --   -0.58235  -0.57712  -0.57399  -0.57338  -0.57066
 Alpha  occ. eigenvalues --   -0.56402  -0.56137  -0.56029  -0.55672  -0.55608
 Alpha  occ. eigenvalues --   -0.55440  -0.55278  -0.55067  -0.54643  -0.54298
 Alpha  occ. eigenvalues --   -0.54036  -0.53646  -0.53385  -0.53334  -0.53062
 Alpha  occ. eigenvalues --   -0.53041  -0.52945  -0.52847  -0.52704  -0.52511
 Alpha  occ. eigenvalues --   -0.52497  -0.52257  -0.51981  -0.51743  -0.51722
 Alpha  occ. eigenvalues --   -0.51445  -0.51299  -0.51008  -0.50638  -0.50358
 Alpha  occ. eigenvalues --   -0.50111  -0.50004  -0.49786  -0.49702  -0.49622
 Alpha  occ. eigenvalues --   -0.49315  -0.49292  -0.49215  -0.49003  -0.48837
 Alpha  occ. eigenvalues --   -0.48710  -0.48549  -0.48527  -0.48337  -0.48217
 Alpha  occ. eigenvalues --   -0.48178  -0.47798  -0.47400  -0.47389  -0.46954
 Alpha  occ. eigenvalues --   -0.46894  -0.46692  -0.46518  -0.46451  -0.46313
 Alpha  occ. eigenvalues --   -0.46257  -0.46101  -0.45934  -0.45904  -0.45614
 Alpha  occ. eigenvalues --   -0.45282  -0.45033  -0.44684  -0.44605  -0.44323
 Alpha  occ. eigenvalues --   -0.44264  -0.44236  -0.44205  -0.44117  -0.43922
 Alpha  occ. eigenvalues --   -0.43880  -0.43763  -0.43620  -0.43496  -0.43343
 Alpha  occ. eigenvalues --   -0.43170  -0.43125  -0.42857  -0.42743  -0.42723
 Alpha  occ. eigenvalues --   -0.42690  -0.42398  -0.42111  -0.41806  -0.41782
 Alpha  occ. eigenvalues --   -0.41665  -0.41464  -0.41243  -0.41241  -0.40991
 Alpha  occ. eigenvalues --   -0.40911  -0.40761  -0.40658  -0.40574  -0.40486
 Alpha  occ. eigenvalues --   -0.40403  -0.40297  -0.40001  -0.39514  -0.39279
 Alpha  occ. eigenvalues --   -0.38561  -0.38171  -0.37914  -0.37438  -0.37407
 Alpha  occ. eigenvalues --   -0.37391  -0.37085  -0.36980  -0.36870  -0.36556
 Alpha  occ. eigenvalues --   -0.36313  -0.36021  -0.34380  -0.34062  -0.33947
 Alpha  occ. eigenvalues --   -0.33645  -0.33283  -0.32991  -0.31408  -0.31157
 Alpha  occ. eigenvalues --   -0.31131  -0.30780  -0.30127  -0.29750  -0.29529
 Alpha  occ. eigenvalues --   -0.29404  -0.29171  -0.29034  -0.24175  -0.23845
 Alpha  occ. eigenvalues --   -0.21216  -0.20932
 Alpha virt. eigenvalues --   -0.08860  -0.08616  -0.01837  -0.01505  -0.00142
 Alpha virt. eigenvalues --    0.00136   0.02113   0.02392   0.03009   0.03399
 Alpha virt. eigenvalues --    0.04592   0.04925   0.04948   0.05393   0.05987

 Mulliken charges:
               1
     1  Mg   0.838572
     2  C   -0.003529
     3  C   -0.094528
     4  C   -0.045696
     5  C   -0.063546
     6  N   -0.256738
     7  C   -0.052782
     8  C   -0.013926
     9  C   -0.086945
    10  C    0.046073
    11  C    0.104767
    12  C    0.053685
    13  C   -0.071166
    14  H    0.033859
    15  N   -0.433177
    16  C    0.168377
    17  C   -0.177127
    18  C   -0.003706
    19  C    0.148697
    20  C    0.110142
    21  C    0.012529
    22  O   -0.249520
    23  C    0.062351
    24  N   -0.341074
    25  C    0.041272
    26  C   -0.028210
    27  C   -0.024027
    28  C    0.074699
    29  C    0.076117
    30  C    0.035074
    31  C   -0.004494
    32  N   -0.310498
    33  C    0.080306
    34  C   -0.169176
    35  C    0.008406
    36  C    0.082866
    37  C    0.127220
    38  C    0.046066
    39  O   -0.188229
    40  C   -0.005406
    41  C    0.213186
    42  O   -0.258464
    43  O   -0.304360
    44  C    0.157991
    45  H   -0.017612
    46  H   -0.016649
    47  H   -0.040951
    48  H    0.001026
    49  H   -0.004422
    50  H    0.025608
    51  H    0.016801
    52  H    0.016702
    53  H    0.010699
    54  H    0.042985
    55  H    0.018654
    56  H    0.017908
    57  H    0.005556
    58  H    0.027080
    59  H    0.039681
    60  H    0.037264
    61  H    0.036132
    62  H    0.031950
    63  H    0.016488
    64  H    0.009730
    65  H    0.023322
    66  H    0.012593
    67  H    0.004976
    68  H    0.006386
    69  H    0.005284
    70  H    0.008253
    71  H    0.018350
    72  H    0.029085
    73  H    0.048223
    74  H    0.009629
    75  H    0.046096
    76  H    0.035369
    77  H    0.043493
    78  H    0.046037
    79  H    0.052339
    80  Mg   0.837853
    81  C   -0.016599
    82  C   -0.087756
    83  C   -0.046073
    84  C   -0.065242
    85  N   -0.254791
    86  C   -0.048613
    87  C   -0.015347
    88  C   -0.090857
    89  C    0.046291
    90  C    0.114891
    91  C    0.062491
    92  C   -0.077609
    93  H    0.033877
    94  N   -0.423404
    95  C    0.162897
    96  C   -0.175220
    97  C   -0.008451
    98  C    0.152164
    99  C    0.099757
   100  C    0.014995
   101  O   -0.253707
   102  C    0.061408
   103  N   -0.350105
   104  C    0.037611
   105  C   -0.019800
   106  C   -0.034707
   107  C    0.089124
   108  C    0.073681
   109  C    0.034820
   110  C   -0.007580
   111  N   -0.324187
   112  C    0.078831
   113  C   -0.163371
   114  C    0.002696
   115  C    0.096162
   116  C    0.131415
   117  C    0.042560
   118  O   -0.187671
   119  C    0.000794
   120  C    0.210996
   121  O   -0.251712
   122  O   -0.304702
   123  C    0.152312
   124  H   -0.020013
   125  H   -0.016198
   126  H   -0.041010
   127  H    0.001559
   128  H   -0.005604
   129  H    0.027671
   130  H    0.013494
   131  H    0.017310
   132  H    0.013166
   133  H    0.037224
   134  H    0.021997
   135  H    0.018862
   136  H    0.008577
   137  H    0.024713
   138  H    0.039245
   139  H    0.037406
   140  H    0.035763
   141  H    0.033901
   142  H    0.013933
   143  H    0.012297
   144  H    0.024757
   145  H    0.011691
   146  H    0.006213
   147  H    0.006015
   148  H    0.003326
   149  H    0.010738
   150  H    0.017553
   151  H    0.030288
   152  H    0.045804
   153  H    0.008005
   154  H    0.046899
   155  H    0.037846
   156  H    0.044086
   157  H    0.049466
   158  H    0.052898
 Sum of Mulliken charges =  -0.00000

 Dipole moment (field-independent basis, Debye):
    X=              4.7865    Y=             -2.0125    Z=              6.7723  Tot=              8.5338
 Quadrupole moment (field-independent basis, Debye-Ang):
   XX=           -518.2093   YY=           -541.2675   ZZ=           -458.6327
   XY=             -5.6027   XZ=             -0.1972   YZ=             39.5123

 Normal termination of Gaussian 16 at Sat Sep  4 05:45:00 2021.
