 Gaussian 16, Revision A.03,
 Gaussian 16:  ES64L-G16RevA.03 25-Dec-2016

 -----------------------------------
 #p cam-b3lyp/Def2SVP td=(nstates=5)
 -----------------------------------

 --------------------------------
 TDDFT excited states in gaussian
 --------------------------------
 Symbolic Z-matrix:
 Charge =  0 Multiplicity = 1

                         Standard orientation:
 ---------------------------------------------------------------------
 Center     Atomic      Atomic             Coordinates (Angstroms)
 Number     Number       Type             X           Y           Z
 ---------------------------------------------------------------------
      1         12           0       -3.682866    1.516903    0.366738
      2          6           0       -4.829339   -0.890238   -2.021459
      3          6           0       -5.396696   -0.239519    2.737568
      4          6           0       -3.062808    3.868854    2.401554
      5          6           0       -3.036389    3.649093   -2.313093
      6          7           0       -4.917111   -0.317120    0.249915
      7          6           0       -5.228654   -1.177572   -0.714312
      8          6           0       -5.955304   -2.453291   -0.192876
      9          6           0       -6.558498   -1.864062    1.160254
     10          6           0       -5.544896   -0.763336    1.418977
     11          6           0       -7.936343   -1.232630    0.988967
     12          6           0       -4.961838   -3.630607    0.087630
     13          6           0       -5.613377   -5.002508    0.284453
     14          1           0       -4.921872   -6.183556   -0.209808
     15          7           0       -3.734913    1.549734    2.341343
     16          6           0       -4.477214    0.751026    3.145296
     17          6           0       -4.166789    1.165439    4.530424
     18          6           0       -3.328966    2.394779    4.460625
     19          6           0       -3.364337    2.672167    3.047408
     20          6           0       -4.608867    0.397010    5.737832
     21          6           0       -2.619140    3.198830    5.503592
     22          8           0       -2.141424    4.359326    5.259443
     23          6           0       -2.574600    2.622696    6.859737
     24          7           0       -3.334352    3.559377    0.112825
     25          6           0       -3.032545    4.342599    1.154199
     26          6           0       -2.550876    5.689532    0.702861
     27          6           0       -2.354308    5.581768   -0.878120
     28          6           0       -2.864320    4.133691   -1.081173
     29          6           0       -3.475107    6.872528    1.022750
     30          6           0       -0.960834    5.958678   -1.440781
     31          6           0        0.067117    4.947065   -0.985751
     32          7           0       -3.717320    1.366700   -1.798278
     33          6           0       -3.433372    2.385883   -2.718775
     34          6           0       -3.695503    1.839351   -4.062895
     35          6           0       -4.132424    0.537046   -3.828491
     36          6           0       -4.167631    0.294577   -2.425544
     37          6           0       -3.578309    2.551082   -5.289329
     38          6           0       -4.601232   -0.697958   -4.435814
     39          8           0       -4.692586   -1.116105   -5.590933
     40          6           0       -5.187253   -1.630829   -3.285962
     41          6           0       -4.613112   -3.007659   -3.480923
     42          8           0       -3.394181   -3.221206   -3.319768
     43          8           0       -5.613615   -3.894985   -3.591325
     44          6           0       -5.112210   -5.285366   -3.757428
     45          1           0       -6.083970   -0.572075    3.517955
     46          1           0       -2.736406    4.673968    3.063136
     47          1           0       -2.776518    4.228394   -3.200972
     48          1           0       -6.760523   -2.811887   -0.834324
     49          1           0       -6.537690   -2.595767    1.967655
     50          1           0       -8.221066   -1.176535   -0.061608
     51          1           0       -7.853146   -0.232499    1.414772
     52          1           0       -8.679335   -1.754455    1.592654
     53          1           0       -4.513052   -3.495458    1.071697
     54          1           0       -4.210938   -3.697821   -0.700378
     55          1           0       -6.652240   -5.001572   -0.046716
     56          1           0       -5.670295   -5.203244    1.354343
     57          1           0       -5.345770   -0.363019    5.481171
     58          1           0       -5.149089    1.093753    6.378471
     59          1           0       -3.767057   -0.028075    6.284632
     60          1           0       -3.592348    2.467688    7.218497
     61          1           0       -1.950951    3.292541    7.450687
     62          1           0       -2.113737    1.635785    6.809134
     63          1           0       -1.596685    5.938748    1.165286
     64          1           0       -3.044068    6.228392   -1.421058
     65          1           0       -2.995280    7.657229    1.608168
     66          1           0       -4.354411    6.484088    1.535810
     67          1           0       -3.925071    7.349405    0.152384
     68          1           0       -0.647140    6.929191   -1.057835
     69          1           0       -0.935157    6.007644   -2.529448
     70          1           0        0.338925    5.305629    0.006411
     71          1           0        0.929405    4.954353   -1.653297
     72          1           0       -0.374376    3.957625   -0.865009
     73          1           0       -3.083377    1.876191   -5.987564
     74          1           0       -3.011215    3.472609   -5.159732
     75          1           0       -4.628110    2.735328   -5.516985
     76          1           0       -6.271228   -1.620014   -3.395518
     77          1           0       -5.554886   -5.679050   -4.672461
     78          1           0       -5.329824   -5.806704   -2.825089
     79          1           0       -4.049986   -5.391287   -3.980586
     80         12           0        3.662453   -1.468596    0.533552
     81          6           0        4.908877    0.686266   -2.051420
     82          6           0        5.415641    0.432865    2.757381
     83          6           0        2.950876   -3.604675    2.769218
     84          6           0        2.970241   -3.815150   -1.948431
     85          7           0        4.957010    0.304793    0.266165
     86          6           0        5.307762    1.072268   -0.754765
     87          6           0        6.064558    2.367443   -0.355563
     88          6           0        6.645502    1.879893    1.059951
     89          6           0        5.592305    0.829936    1.407851
     90          6           0        7.993324    1.186502    0.950718
     91          6           0        5.101703    3.595140   -0.189193
     92          6           0        5.800747    4.953767   -0.104183
     93          1           0        5.146475    6.112064   -0.706473
     94          7           0        3.699834   -1.317925    2.512057
     95          6           0        4.453850   -0.476362    3.249947
     96          6           0        4.130160   -0.772376    4.654143
     97          6           0        3.246568   -1.969340    4.689554
     98          6           0        3.282482   -2.364826    3.295860
     99          6           0        4.582339    0.094091    5.793528
    100          6           0        2.503781   -2.653324    5.797096
    101          8           0        1.988646   -3.816969    5.644154
    102          6           0        2.477630   -1.961369    7.094017
    103          7           0        3.246035   -3.504059    0.457276
    104          6           0        2.916394   -4.184405    1.569205
    105          6           0        2.393580   -5.560382    1.231919
    106          6           0        2.212827   -5.573721   -0.357021
    107          6           0        2.771221   -4.172040   -0.687010
    108          6           0        3.281764   -6.731059    1.652669
    109          6           0        0.810141   -5.957803   -0.902571
    110          6           0       -0.194476   -4.886911   -0.542950
    111          7           0        3.712933   -1.509272   -1.626038
    112          6           0        3.408087   -2.602762   -2.465937
    113          6           0        3.698927   -2.181657   -3.851759
    114          6           0        4.178382   -0.869817   -3.718742
    115          6           0        4.204881   -0.506584   -2.345121
    116          6           0        3.558238   -2.991187   -5.014073
    117          6           0        4.678125    0.286537   -4.427123
    118          8           0        4.797613    0.594572   -5.612274
    119          6           0        5.292606    1.300871   -3.368857
    120          6           0        4.765019    2.674371   -3.681363
    121          8           0        3.553603    2.928563   -3.561188
    122          8           0        5.800945    3.514375   -3.859175
    123          6           0        5.328308    4.891881   -4.160691
    124          1           0        6.105448    0.821438    3.507081
    125          1           0        2.592127   -4.342649    3.490463
    126          1           0        2.688591   -4.454914   -2.787495
    127          1           0        6.877895    2.640539   -1.017131
    128          1           0        6.636168    2.685605    1.789405
    129          1           0        8.283973    1.030500   -0.077549
    130          1           0        7.878420    0.238311    1.459424
    131          1           0        8.749289    1.741064    1.514012
    132          1           0        4.642378    3.557537    0.806978
    133          1           0        4.369402    3.613951   -0.972774
    134          1           0        6.849811    4.897985   -0.419314
    135          1           0        5.851782    5.252688    0.945600
    136          1           0        5.353698    0.806404    5.475672
    137          1           0        5.093990   -0.559202    6.508567
    138          1           0        3.752170    0.590935    6.300104
    139          1           0        3.496412   -1.805744    7.440912
    140          1           0        1.825665   -2.561077    7.732108
    141          1           0        2.038425   -0.967679    6.951584
    142          1           0        1.430546   -5.732790    1.696614
    143          1           0        2.884241   -6.300547   -0.837399
    144          1           0        2.766451   -7.455014    2.311775
    145          1           0        4.162440   -6.333615    2.139469
    146          1           0        3.710123   -7.303995    0.832021
    147          1           0        0.461080   -6.880949   -0.433405
    148          1           0        0.792389   -6.115317   -1.975820
    149          1           0       -0.479860   -5.149805    0.480051
    150          1           0       -1.050640   -4.924133   -1.213501
    151          1           0        0.278706   -3.898656   -0.509527
    152          1           0        3.095219   -2.371810   -5.770695
    153          1           0        2.965628   -3.880496   -4.809844
    154          1           0        4.606072   -3.232606   -5.211602
    155          1           0        6.378421    1.249349   -3.457912
    156          1           0        5.794239    5.189995   -5.105006
    157          1           0        5.573319    5.494349   -3.265845
    158          1           0        4.277759    5.021708   -4.392956
 ---------------------------------------------------------------------

 SCF Done:  E(RCAM-B3LYP) =  -4069.81290881     A.U. after   19 cycles

 Excitation energies and oscillator strengths:

 Excited State   1:      Singlet-A      1.6365 eV  757.60 nm  f=0.0034  <S**2>=0.000
     309 -> 315       -0.11262
     310 -> 316        0.11809
     311 -> 313        0.49924
     312 -> 314       -0.47323
 This state for optimization and/or second-order correction.
 Total Energy, E(TD-HF/TD-DFT) =  -4069.75276679
 Copying the excited state density for this state as the 1-particle RhoCI density.

 Excited State   2:      Singlet-A      1.7081 eV  725.85 nm  f=0.6813  <S**2>=0.000
     309 -> 315        0.13245
     310 -> 316        0.12477
     311 -> 313        0.47020
     312 -> 314        0.49591

 Excited State   3:      Singlet-A      2.1788 eV  569.04 nm  f=0.0114  <S**2>=0.000
     309 -> 314        0.34565
     310 -> 313        0.54467
     311 -> 316       -0.22500
     312 -> 315       -0.14154

 Excited State   4:      Singlet-A      2.1952 eV  564.80 nm  f=0.1606  <S**2>=0.000
     309 -> 314        0.53941
     310 -> 313       -0.34084
     311 -> 316        0.15132
     312 -> 315       -0.23771

 Excited State   5:      Singlet-A      2.3877 eV  519.27 nm  f=0.0000  <S**2>=0.000
     312 -> 313        0.70663

 The electronic state is 1-A.
 Alpha  occ. eigenvalues --  -46.87554 -46.87440 -19.26327 -19.26271 -19.19149
 Alpha  occ. eigenvalues --  -19.19033 -19.18677 -19.18610 -19.17969 -19.17867
 Alpha  occ. eigenvalues --  -14.42286 -14.42215 -14.41197 -14.41126 -14.39169
 Alpha  occ. eigenvalues --  -14.39143 -14.38366 -14.38332 -10.39054 -10.39051
 Alpha  occ. eigenvalues --  -10.35318 -10.35295 -10.34194 -10.34048 -10.31783
 Alpha  occ. eigenvalues --  -10.31712 -10.31160 -10.31085 -10.30853 -10.30714
 Alpha  occ. eigenvalues --  -10.30308 -10.30258 -10.30170 -10.30119 -10.29949
 Alpha  occ. eigenvalues --  -10.29904 -10.29655 -10.29648 -10.29383 -10.29218
 Alpha  occ. eigenvalues --  -10.29177 -10.29011 -10.28590 -10.28586 -10.28578
 Alpha  occ. eigenvalues --  -10.28455 -10.28209 -10.28147 -10.27975 -10.27926
 Alpha  occ. eigenvalues --  -10.27782 -10.27550 -10.27483 -10.27450 -10.27355
 Alpha  occ. eigenvalues --  -10.27290 -10.27285 -10.27268 -10.27261 -10.27211
 Alpha  occ. eigenvalues --  -10.27186 -10.27185 -10.27182 -10.27128 -10.27011
 Alpha  occ. eigenvalues --  -10.26912 -10.26583 -10.26575 -10.26404 -10.26357
 Alpha  occ. eigenvalues --  -10.26057 -10.25874 -10.25740 -10.25728 -10.25689
 Alpha  occ. eigenvalues --  -10.25658 -10.25497 -10.25478 -10.25228 -10.25215
 Alpha  occ. eigenvalues --  -10.24651 -10.24590 -10.24555 -10.24478 -10.24055
 Alpha  occ. eigenvalues --  -10.24048  -3.16296  -3.16190  -1.91178  -1.91072
 Alpha  occ. eigenvalues --   -1.90765  -1.90661  -1.90607  -1.90498  -1.16617
 Alpha  occ. eigenvalues --   -1.16616  -1.08483  -1.08436  -1.07087  -1.06911
 Alpha  occ. eigenvalues --   -1.06871  -1.06625  -1.04353  -1.04291  -1.03515
 Alpha  occ. eigenvalues --   -1.03445  -1.02986  -1.02806  -1.02164  -1.01885
 Alpha  occ. eigenvalues --   -0.91792  -0.91761  -0.89219  -0.89217  -0.88999
 Alpha  occ. eigenvalues --   -0.88982  -0.87997  -0.87938  -0.87590  -0.87538
 Alpha  occ. eigenvalues --   -0.87464  -0.87439  -0.87073  -0.86952  -0.84833
 Alpha  occ. eigenvalues --   -0.84795  -0.83631  -0.83576  -0.82787  -0.82779
 Alpha  occ. eigenvalues --   -0.82483  -0.82466  -0.81450  -0.81433  -0.80406
 Alpha  occ. eigenvalues --   -0.80275  -0.78568  -0.78429  -0.76971  -0.76937
 Alpha  occ. eigenvalues --   -0.76740  -0.76700  -0.75736  -0.75669  -0.74647
 Alpha  occ. eigenvalues --   -0.74566  -0.72514  -0.72458  -0.71456  -0.71385
 Alpha  occ. eigenvalues --   -0.69534  -0.69386  -0.68678  -0.68651  -0.67432
 Alpha  occ. eigenvalues --   -0.67413  -0.67065  -0.67059  -0.65106  -0.65095
 Alpha  occ. eigenvalues --   -0.64646  -0.64570  -0.64466  -0.64405  -0.63980
 Alpha  occ. eigenvalues --   -0.63923  -0.62158  -0.62139  -0.60225  -0.60149
 Alpha  occ. eigenvalues --   -0.59615  -0.59600  -0.58781  -0.58756  -0.58285
 Alpha  occ. eigenvalues --   -0.58228  -0.57435  -0.57412  -0.57080  -0.57021
 Alpha  occ. eigenvalues --   -0.56099  -0.56006  -0.55871  -0.55773  -0.55337
 Alpha  occ. eigenvalues --   -0.55315  -0.55105  -0.55026  -0.54318  -0.54256
 Alpha  occ. eigenvalues --   -0.53759  -0.53718  -0.53104  -0.53052  -0.53024
 Alpha  occ. eigenvalues --   -0.52956  -0.52758  -0.52738  -0.52598  -0.52550
 Alpha  occ. eigenvalues --   -0.52034  -0.51982  -0.51618  -0.51599  -0.51513
 Alpha  occ. eigenvalues --   -0.51443  -0.50977  -0.50958  -0.50399  -0.50327
 Alpha  occ. eigenvalues --   -0.49817  -0.49778  -0.49678  -0.49573  -0.49356
 Alpha  occ. eigenvalues --   -0.49331  -0.49049  -0.49027  -0.48918  -0.48903
 Alpha  occ. eigenvalues --   -0.48420  -0.48403  -0.48291  -0.48221  -0.48210
 Alpha  occ. eigenvalues --   -0.48146  -0.47493  -0.47414  -0.47095  -0.46938
 Alpha  occ. eigenvalues --   -0.46539  -0.46487  -0.46387  -0.46377  -0.46118
 Alpha  occ. eigenvalues --   -0.46045  -0.45926  -0.45867  -0.45629  -0.45616
 Alpha  occ. eigenvalues --   -0.44960  -0.44937  -0.44394  -0.44363  -0.44289
 Alpha  occ. eigenvalues --   -0.44260  -0.43973  -0.43940  -0.43868  -0.43802
 Alpha  occ. eigenvalues --   -0.43792  -0.43785  -0.43384  -0.43321  -0.43202
 Alpha  occ. eigenvalues --   -0.43159  -0.42820  -0.42806  -0.42696  -0.42610
 Alpha  occ. eigenvalues --   -0.42330  -0.42267  -0.41697  -0.41655  -0.41485
 Alpha  occ. eigenvalues --   -0.41471  -0.41331  -0.41236  -0.40932  -0.40799
 Alpha  occ. eigenvalues --   -0.40699  -0.40629  -0.40612  -0.40503  -0.40273
 Alpha  occ. eigenvalues --   -0.40191  -0.40108  -0.40085  -0.39048  -0.39020
 Alpha  occ. eigenvalues --   -0.38197  -0.38098  -0.37589  -0.37514  -0.37071
 Alpha  occ. eigenvalues --   -0.37048  -0.37037  -0.36994  -0.36689  -0.36617
 Alpha  occ. eigenvalues --   -0.35999  -0.35984  -0.34047  -0.34041  -0.33799
 Alpha  occ. eigenvalues --   -0.33724  -0.32955  -0.32949  -0.31207  -0.31168
 Alpha  occ. eigenvalues --   -0.30812  -0.30769  -0.29831  -0.29772  -0.29225
 Alpha  occ. eigenvalues --   -0.29131  -0.29070  -0.28979  -0.23840  -0.23815
 Alpha  occ. eigenvalues --   -0.20890  -0.20876
 Alpha virt. eigenvalues --   -0.08577  -0.08537  -0.01513  -0.01469   0.00128
 Alpha virt. eigenvalues --    0.00132   0.02335   0.02430   0.02489   0.04490
 Alpha virt. eigenvalues --    0.04874   0.04921   0.05081   0.05180   0.06166

 Mulliken charges:
               1
     1  Mg   0.838810
     2  C   -0.003704
     3  C   -0.093654
     4  C   -0.046126
     5  C   -0.060889
     6  N   -0.256827
     7  C   -0.052502
     8  C   -0.014333
     9  C   -0.086876
    10  C    0.046068
    11  C    0.104945
    12  C    0.051405
    13  C   -0.070868
    14  H    0.033164
    15  N   -0.433003
    16  C    0.168352
    17  C   -0.177273
    18  C   -0.004750
    19  C    0.148432
    20  C    0.110278
    21  C    0.011167
    22  O   -0.250977
    23  C    0.062802
    24  N   -0.341378
    25  C    0.041361
    26  C   -0.027584
    27  C   -0.024099
    28  C    0.075299
    29  C    0.076563
    30  C    0.034565
    31  C   -0.006922
    32  N   -0.311162
    33  C    0.082026
    34  C   -0.166309
    35  C    0.008070
    36  C    0.084079
    37  C    0.127004
    38  C    0.046630
    39  O   -0.188635
    40  C   -0.006086
    41  C    0.212779
    42  O   -0.257588
    43  O   -0.304198
    44  C    0.157836
    45  H   -0.018210
    46  H   -0.017870
    47  H   -0.039612
    48  H    0.000337
    49  H   -0.003995
    50  H    0.025105
    51  H    0.016479
    52  H    0.016209
    53  H    0.013036
    54  H    0.045649
    55  H    0.017847
    56  H    0.018837
    57  H    0.006065
    58  H    0.025777
    59  H    0.039688
    60  H    0.037876
    61  H    0.033522
    62  H    0.030381
    63  H    0.015728
    64  H    0.008627
    65  H    0.021942
    66  H    0.011990
    67  H    0.004414
    68  H    0.003214
    69  H    0.006547
    70  H    0.003160
    71  H    0.030628
    72  H    0.029843
    73  H    0.049679
    74  H    0.011544
    75  H    0.044726
    76  H    0.034975
    77  H    0.043336
    78  H    0.046413
    79  H    0.051622
    80  Mg   0.837801
    81  C   -0.017681
    82  C   -0.087506
    83  C   -0.045845
    84  C   -0.061661
    85  N   -0.254615
    86  C   -0.049782
    87  C   -0.015339
    88  C   -0.090458
    89  C    0.045467
    90  C    0.114520
    91  C    0.061508
    92  C   -0.077032
    93  H    0.032261
    94  N   -0.423346
    95  C    0.162747
    96  C   -0.174892
    97  C   -0.008650
    98  C    0.151800
    99  C    0.099507
   100  C    0.014251
   101  O   -0.254667
   102  C    0.061620
   103  N   -0.350375
   104  C    0.037652
   105  C   -0.019226
   106  C   -0.034936
   107  C    0.089499
   108  C    0.074119
   109  C    0.034342
   110  C   -0.011501
   111  N   -0.324863
   112  C    0.080304
   113  C   -0.159564
   114  C    0.001875
   115  C    0.097390
   116  C    0.131271
   117  C    0.042956
   118  O   -0.187989
   119  C    0.000367
   120  C    0.211358
   121  O   -0.251781
   122  O   -0.305136
   123  C    0.152349
   124  H   -0.020337
   125  H   -0.016706
   126  H   -0.038229
   127  H   -0.001172
   128  H   -0.004403
   129  H    0.022107
   130  H    0.014435
   131  H    0.015783
   132  H    0.015374
   133  H    0.037849
   134  H    0.020742
   135  H    0.020290
   136  H    0.008875
   137  H    0.025068
   138  H    0.039640
   139  H    0.038820
   140  H    0.034104
   141  H    0.032612
   142  H    0.013518
   143  H    0.011466
   144  H    0.023706
   145  H    0.011033
   146  H    0.005304
   147  H    0.002552
   148  H    0.005515
   149  H    0.004475
   150  H    0.032428
   151  H    0.030817
   152  H    0.048221
   153  H    0.011213
   154  H    0.045552
   155  H    0.034733
   156  H    0.044137
   157  H    0.049418
   158  H    0.051538
 Sum of Mulliken charges =  -0.00000

 Dipole moment (field-independent basis, Debye):
    X=             -0.0840    Y=              0.2952    Z=              6.5234  Tot=              6.5306
 Quadrupole moment (field-independent basis, Debye-Ang):
   XX=           -468.0291   YY=           -476.1511   ZZ=           -540.5313
   XY=             24.8611   XZ=             -0.5603   YZ=             -2.6242

 Normal termination of Gaussian 16 at Wed Sep  8 18:17:35 2021.
