 Gaussian 16, Revision A.03,
 Gaussian 16:  ES64L-G16RevA.03 25-Dec-2016

 -----------------------------------
 #p cam-b3lyp/Def2SVP td=(nstates=5)
 -----------------------------------

 --------------------------------
 TDDFT excited states in gaussian
 --------------------------------
 Symbolic Z-matrix:
 Charge =  0 Multiplicity = 1

                         Standard orientation:
 ---------------------------------------------------------------------
 Center     Atomic      Atomic             Coordinates (Angstroms)
 Number     Number       Type             X           Y           Z
 ---------------------------------------------------------------------
      1         12           0        3.158074    1.742523    0.928181
      2          6           0        4.621272   -1.398732    0.031643
      3          6           0        4.317605    2.960981   -2.040642
      4          6           0        2.275048    4.631344    1.893377
      5          6           0        3.120661    0.616312    4.226046
      6          7           0        4.308559    0.802052   -0.712715
      7          6           0        4.755820   -0.425022   -0.960543
      8          6           0        5.313992   -0.599222   -2.404659
      9          6           0        5.679478    0.920659   -2.718311
     10          6           0        4.685977    1.604731   -1.795855
     11          6           0        7.092056    1.307932   -2.292700
     12          6           0        4.233624   -1.145341   -3.397782
     13          6           0        4.774446   -1.650164   -4.738684
     14          1           0        4.135083   -2.797858   -5.364274
     15          7           0        2.841463    3.397013   -0.103938
     16          6           0        3.383649    3.719951   -1.302700
     17          6           0        2.838716    5.049620   -1.651567
     18          6           0        2.084922    5.556400   -0.471286
     19          6           0        2.396330    4.547086    0.508351
     20          6           0        3.012217    5.682505   -2.998083
     21          6           0        1.229552    6.764900   -0.256806
     22          8           0        0.858640    7.137539    0.908586
     23          6           0        0.906366    7.561867   -1.454068
     24          7           0        2.955484    2.608440    2.816774
     25          6           0        2.499877    3.858061    2.957676
     26          6           0        2.172215    4.161560    4.389620
     27          6           0        2.270038    2.771691    5.169652
     28          6           0        2.743304    1.876347    3.998052
     29          6           0        3.072648    5.197146    5.077220
     30          6           0        1.024733    2.330306    5.978857
     31          6           0       -0.114644    2.014649    5.035842
     32          7           0        3.589886   -0.122134    1.951723
     33          6           0        3.529212   -0.359675    3.332508
     34          6           0        4.013139   -1.734422    3.556014
     35          6           0        4.339454   -2.198354    2.283171
     36          6           0        4.100799   -1.169024    1.328281
     37          6           0        4.159461   -2.371243    4.819930
     38          6           0        4.857457   -3.315778    1.510583
     39          8           0        5.144239   -4.486603    1.764393
     40          6           0        5.175572   -2.801679    0.037378
     41          6           0        4.586614   -3.794373   -0.927504
     42          8           0        3.350691   -3.939573   -1.021185
     43          8           0        5.549138   -4.240595   -1.749073
     44          6           0        5.025553   -5.207309   -2.750810
     45          1           0        4.831182    3.513158   -2.830123
     46          1           0        1.867295    5.576306    2.258375
     47          1           0        3.057713    0.167337    5.218977
     48          1           0        6.207962   -1.219173   -2.474682
     49          1           0        5.475170    1.182474   -3.756306
     50          1           0        7.570402    0.509314   -1.725853
     51          1           0        6.975829    2.197504   -1.673309
     52          1           0        7.684826    1.617717   -3.153765
     53          1           0        3.615322   -0.318263   -3.746646
     54          1           0        3.641036   -1.931715   -2.928975
     55          1           0        5.855876   -1.785788   -4.706667
     56          1           0        4.621242   -0.869916   -5.484300
     57          1           0        3.749136    5.150670   -3.598623
     58          1           0        3.453952    6.665104   -2.833527
     59          1           0        2.064754    5.789210   -3.526533
     60          1           0        1.831070    7.907211   -1.916898
     61          1           0        0.214031    8.335017   -1.122765
     62          1           0        0.419137    6.917362   -2.186304
     63          1           0        1.160599    4.554039    4.484587
     64          1           0        3.077540    2.769740    5.902189
     65          1           0        2.527654    6.047786    5.487218
     66          1           0        3.822134    5.523377    4.356709
     67          1           0        3.698402    4.800111    5.876101
     68          1           0        0.688990    3.137812    6.628594
     69          1           0        1.205272    1.455354    6.603449
     70          1           0       -0.550728    2.994446    4.844374
     71          1           0       -0.835708    1.353889    5.518205
     72          1           0        0.251492    1.629305    4.084033
     73          1           0        3.773924   -3.383397    4.697970
     74          1           0        3.620208   -1.833175    5.599219
     75          1           0        5.240525   -2.319345    4.948240
     76          1           0        6.260286   -2.743031   -0.046762
     77          1           0        5.613315   -6.120177   -2.653641
     78          1           0        5.041330   -4.695397   -3.713153
     79          1           0        4.020107   -5.589886   -2.571784
     80         12           0       -4.216679   -0.738344   -0.641126
     81          6           0       -1.366112   -2.899640   -0.354624
     82          6           0       -2.156750    1.533491   -2.134455
     83          6           0       -6.593638    1.358923   -0.503358
     84          6           0       -5.742428   -2.651491    1.840337
     85          7           0       -2.059482   -0.792022   -1.126792
     86          6           0       -1.091301   -1.690303   -1.026505
     87          6           0        0.224071   -1.302136   -1.753616
     88          6           0        0.035389    0.292629   -1.756933
     89          6           0       -1.489627    0.358436   -1.705162
     90          6           0        0.585114    0.966275   -0.510597
     91          6           0        0.292158   -1.875525   -3.212586
     92          6           0        1.671937   -1.798895   -3.869927
     93          1           0        2.077966   -2.879764   -4.763984
     94          7           0       -4.499741    0.949753   -1.645508
     95          6           0       -3.553080    1.732954   -2.203814
     96          6           0       -4.272382    2.865539   -2.807158
     97          6           0       -5.705577    2.772265   -2.417328
     98          6           0       -5.650154    1.677736   -1.469157
     99          6           0       -3.612014    3.852905   -3.725010
    100          6           0       -6.922285    3.549052   -2.820325
    101          8           0       -8.026679    3.452074   -2.177084
    102          6           0       -6.756675    4.496417   -3.932332
    103          7           0       -5.835351   -0.524301    0.645903
    104          6           0       -6.749988    0.441942    0.451632
    105          6           0       -7.960751    0.231355    1.329190
    106          6           0       -7.772679   -1.217148    1.980362
    107          6           0       -6.381332   -1.571718    1.411299
    108          6           0       -8.167181    1.264146    2.436939
    109          6           0       -8.931825   -2.232482    1.785009
    110          6           0       -9.036626   -2.622068    0.328084
    111          7           0       -3.760338   -2.568193    0.413121
    112          6           0       -4.523881   -3.178652    1.432152
    113          6           0       -3.750451   -4.338984    1.919872
    114          6           0       -2.570982   -4.309348    1.160624
    115          6           0       -2.597929   -3.196530    0.277219
    116          6           0       -4.142197   -5.218582    2.968189
    117          6           0       -1.304601   -4.960269    0.913079
    118          8           0       -0.771283   -5.998941    1.300965
    119          6           0       -0.412666   -4.003546    0.010009
    120          6           0        0.166455   -4.826830   -1.107728
    121          8           0       -0.573574   -5.328524   -1.972170
    122          8           0        1.506430   -4.705527   -1.095777
    123          6           0        2.125872   -5.495445   -2.193116
    124          1           0       -1.555549    2.401988   -2.404955
    125          1           0       -7.486409    1.988419   -0.490437
    126          1           0       -6.192484   -3.355047    2.543991
    127          1           0        1.131202   -1.568121   -1.224342
    128          1           0        0.404900    0.732167   -2.679766
    129          1           0        0.907023    0.246781    0.227551
    130          1           0       -0.223830    1.570927   -0.121926
    131          1           0        1.381528    1.665771   -0.780320
    132          1           0       -0.272494   -1.215349   -3.883476
    133          1           0       -0.066479   -2.886040   -3.241937
    134          1           0        2.463886   -1.584183   -3.142148
    135          1           0        1.687678   -0.939440   -4.544537
    136          1           0       -2.519152    3.763375   -3.692913
    137          1           0       -3.814798    4.850531   -3.320684
    138          1           0       -3.995753    3.800707   -4.746130
    139          1           0       -5.985267    5.219665   -3.678743
    140          1           0       -7.755194    4.890079   -4.132030
    141          1           0       -6.396833    3.946960   -4.809387
    142          1           0       -8.870271    0.236888    0.741106
    143          1           0       -7.660315   -1.161174    3.073103
    144          1           0       -9.151871    1.766166    2.387648
    145          1           0       -7.366981    1.990092    2.380236
    146          1           0       -8.060701    0.881639    3.450625
    147          1           0       -9.886591   -1.773395    2.052966
    148          1           0       -8.826019   -3.129644    2.385752
    149          1           0       -9.627616   -1.808464   -0.103035
    150          1           0       -9.545381   -3.578170    0.222851
    151          1           0       -8.052804   -2.606770   -0.155151
    152          1           0       -3.917607   -6.222316    2.632659
    153          1           0       -5.197299   -5.105647    3.208515
    154          1           0       -3.496856   -4.860370    3.774723
    155          1           0        0.362099   -3.578305    0.649136
    156          1           0        2.855008   -6.167802   -1.730525
    157          1           0        2.513331   -4.751773   -2.914618
    158          1           0        1.494380   -6.199805   -2.721831
 ---------------------------------------------------------------------

 SCF Done:  E(RCAM-B3LYP) =  -4069.70954008     A.U. after   19 cycles

 Excitation energies and oscillator strengths:

 Excited State   1:      Singlet-A      1.6270 eV  762.03 nm  f=0.0044  <S**2>=0.000
     309 -> 315        0.12413
     310 -> 316        0.10476
     311 -> 313        0.52094
     312 -> 314       -0.45057
 This state for optimization and/or second-order correction.
 Total Energy, E(TD-HF/TD-DFT) =  -4069.64974836
 Copying the excited state density for this state as the 1-particle RhoCI density.

 Excited State   2:      Singlet-A      1.7121 eV  724.16 nm  f=0.6560  <S**2>=0.000
     309 -> 315        0.12185
     310 -> 316       -0.13796
     311 -> 313        0.44657
     312 -> 314        0.51679

 Excited State   3:      Singlet-A      2.0652 eV  600.36 nm  f=0.0027  <S**2>=0.000
     309 -> 313       -0.10973
     312 -> 313        0.69511

 Excited State   4:      Singlet-A      2.1697 eV  571.45 nm  f=0.0439  <S**2>=0.000
     309 -> 313        0.47526
     310 -> 314        0.42831
     311 -> 315       -0.19662
     312 -> 316        0.17352

 Excited State   5:      Singlet-A      2.1837 eV  567.78 nm  f=0.1465  <S**2>=0.000
     309 -> 313       -0.41867
     310 -> 314        0.48037
     311 -> 315        0.18318
     312 -> 316        0.20671

 The electronic state is 1-A.
 Alpha  occ. eigenvalues --  -46.88175 -46.87293 -19.26788 -19.23738 -19.19235
 Alpha  occ. eigenvalues --  -19.18927 -19.18550 -19.18396 -19.17441 -19.17401
 Alpha  occ. eigenvalues --  -14.42862 -14.42164 -14.41822 -14.40981 -14.39708
 Alpha  occ. eigenvalues --  -14.38984 -14.38962 -14.38211 -10.39444 -10.37182
 Alpha  occ. eigenvalues --  -10.35869 -10.35084 -10.34781 -10.33520 -10.31897
 Alpha  occ. eigenvalues --  -10.31446 -10.31428 -10.31026 -10.30950 -10.30895
 Alpha  occ. eigenvalues --  -10.30614 -10.30595 -10.30278 -10.30087 -10.30054
 Alpha  occ. eigenvalues --  -10.29996 -10.29932 -10.29858 -10.29696 -10.29507
 Alpha  occ. eigenvalues --  -10.29179 -10.29171 -10.29140 -10.29009 -10.28851
 Alpha  occ. eigenvalues --  -10.28604 -10.28224 -10.28219 -10.28124 -10.28121
 Alpha  occ. eigenvalues --  -10.28034 -10.27972 -10.27962 -10.27890 -10.27793
 Alpha  occ. eigenvalues --  -10.27735 -10.27626 -10.27594 -10.27379 -10.27278
 Alpha  occ. eigenvalues --  -10.27258 -10.27095 -10.27091 -10.27076 -10.27010
 Alpha  occ. eigenvalues --  -10.26866 -10.26727 -10.26636 -10.26581 -10.26411
 Alpha  occ. eigenvalues --  -10.26406 -10.26191 -10.26081 -10.26006 -10.25910
 Alpha  occ. eigenvalues --  -10.25748 -10.25689 -10.25592 -10.25535 -10.25265
 Alpha  occ. eigenvalues --  -10.25185 -10.25148 -10.24883 -10.24503 -10.24456
 Alpha  occ. eigenvalues --  -10.24297  -3.16855  -3.16044  -1.91735  -1.91330
 Alpha  occ. eigenvalues --   -1.91174  -1.90927  -1.90515  -1.90351  -1.17319
 Alpha  occ. eigenvalues --   -1.14820  -1.09017  -1.08004  -1.07632  -1.07559
 Alpha  occ. eigenvalues --   -1.06655  -1.05137  -1.05050  -1.04177  -1.04125
 Alpha  occ. eigenvalues --   -1.03660  -1.03290  -1.02831  -1.02671  -1.01737
 Alpha  occ. eigenvalues --   -0.92446  -0.91437  -0.89948  -0.89853  -0.89124
 Alpha  occ. eigenvalues --   -0.88955  -0.88644  -0.88304  -0.88187  -0.87888
 Alpha  occ. eigenvalues --   -0.87732  -0.87431  -0.87277  -0.86807  -0.85833
 Alpha  occ. eigenvalues --   -0.84586  -0.84324  -0.83548  -0.83389  -0.83351
 Alpha  occ. eigenvalues --   -0.82656  -0.82395  -0.82265  -0.81213  -0.80722
 Alpha  occ. eigenvalues --   -0.79764  -0.79234  -0.78307  -0.77799  -0.77501
 Alpha  occ. eigenvalues --   -0.76897  -0.76557  -0.76391  -0.75599  -0.75221
 Alpha  occ. eigenvalues --   -0.74442  -0.73184  -0.72378  -0.72116  -0.71425
 Alpha  occ. eigenvalues --   -0.70473  -0.70162  -0.69486  -0.69129  -0.68105
 Alpha  occ. eigenvalues --   -0.68081  -0.67210  -0.66686  -0.65992  -0.65668
 Alpha  occ. eigenvalues --   -0.65176  -0.64692  -0.64482  -0.64211  -0.64122
 Alpha  occ. eigenvalues --   -0.63886  -0.62880  -0.62087  -0.60852  -0.60288
 Alpha  occ. eigenvalues --   -0.60014  -0.59497  -0.59457  -0.59163  -0.58787
 Alpha  occ. eigenvalues --   -0.58330  -0.57846  -0.57710  -0.57183  -0.56955
 Alpha  occ. eigenvalues --   -0.56683  -0.56604  -0.55978  -0.55866  -0.55543
 Alpha  occ. eigenvalues --   -0.55338  -0.55152  -0.55009  -0.54651  -0.54583
 Alpha  occ. eigenvalues --   -0.54158  -0.53898  -0.53750  -0.53675  -0.53280
 Alpha  occ. eigenvalues --   -0.53208  -0.53040  -0.52824  -0.52737  -0.52529
 Alpha  occ. eigenvalues --   -0.52452  -0.52171  -0.52128  -0.51764  -0.51495
 Alpha  occ. eigenvalues --   -0.51482  -0.51304  -0.51020  -0.50746  -0.50519
 Alpha  occ. eigenvalues --   -0.50310  -0.50260  -0.50204  -0.49871  -0.49620
 Alpha  occ. eigenvalues --   -0.49579  -0.49501  -0.49297  -0.49164  -0.48910
 Alpha  occ. eigenvalues --   -0.48787  -0.48655  -0.48593  -0.48147  -0.48072
 Alpha  occ. eigenvalues --   -0.47913  -0.47828  -0.47703  -0.47387  -0.47172
 Alpha  occ. eigenvalues --   -0.47082  -0.46997  -0.46728  -0.46469  -0.46377
 Alpha  occ. eigenvalues --   -0.46254  -0.46053  -0.45891  -0.45747  -0.45604
 Alpha  occ. eigenvalues --   -0.45436  -0.45177  -0.44981  -0.44887  -0.44829
 Alpha  occ. eigenvalues --   -0.44548  -0.44441  -0.44350  -0.44099  -0.43974
 Alpha  occ. eigenvalues --   -0.43868  -0.43818  -0.43683  -0.43536  -0.43455
 Alpha  occ. eigenvalues --   -0.43279  -0.43045  -0.42987  -0.42603  -0.42421
 Alpha  occ. eigenvalues --   -0.42246  -0.42217  -0.42055  -0.41820  -0.41564
 Alpha  occ. eigenvalues --   -0.41521  -0.41376  -0.41264  -0.41181  -0.40999
 Alpha  occ. eigenvalues --   -0.40899  -0.40604  -0.40581  -0.40288  -0.40242
 Alpha  occ. eigenvalues --   -0.40068  -0.39814  -0.39629  -0.39193  -0.39035
 Alpha  occ. eigenvalues --   -0.38798  -0.37985  -0.37821  -0.37702  -0.37140
 Alpha  occ. eigenvalues --   -0.37064  -0.36972  -0.36790  -0.36542  -0.36057
 Alpha  occ. eigenvalues --   -0.34994  -0.34811  -0.34668  -0.33879  -0.33842
 Alpha  occ. eigenvalues --   -0.33544  -0.32878  -0.31852  -0.31728  -0.31425
 Alpha  occ. eigenvalues --   -0.30947  -0.30482  -0.30381  -0.29837  -0.29725
 Alpha  occ. eigenvalues --   -0.29255  -0.28959  -0.28793  -0.24476  -0.23614
 Alpha  occ. eigenvalues --   -0.21578  -0.20771
 Alpha virt. eigenvalues --   -0.09232  -0.08404  -0.02189  -0.01333  -0.00531
 Alpha virt. eigenvalues --    0.00302   0.01790   0.02693   0.03281   0.03637
 Alpha virt. eigenvalues --    0.04216   0.04287   0.05170   0.05437   0.06306

 Mulliken charges:
               1
     1  Mg   0.693448
     2  C   -0.007512
     3  C   -0.087041
     4  C   -0.043545
     5  C   -0.060986
     6  N   -0.243896
     7  C   -0.066852
     8  C    0.040597
     9  C   -0.084526
    10  C    0.038451
    11  C    0.106312
    12  C   -0.016878
    13  C   -0.056234
    14  H    0.041477
    15  N   -0.434211
    16  C    0.159523
    17  C   -0.178162
    18  C   -0.009238
    19  C    0.153589
    20  C    0.110985
    21  C    0.011406
    22  O   -0.247719
    23  C    0.063446
    24  N   -0.327736
    25  C    0.041606
    26  C   -0.026674
    27  C   -0.025361
    28  C    0.079408
    29  C    0.075925
    30  C    0.034838
    31  C   -0.005916
    32  N   -0.308147
    33  C    0.080692
    34  C   -0.168730
    35  C    0.009560
    36  C    0.076608
    37  C    0.126313
    38  C    0.048710
    39  O   -0.184579
    40  C   -0.005399
    41  C    0.223406
    42  O   -0.252373
    43  O   -0.300244
    44  C    0.213505
    45  H   -0.018321
    46  H   -0.016824
    47  H   -0.041294
    48  H   -0.007245
    49  H   -0.005241
    50  H    0.026337
    51  H    0.017719
    52  H    0.017228
    53  H    0.012026
    54  H    0.091888
    55  H    0.017954
    56  H    0.018395
    57  H    0.006052
    58  H    0.028209
    59  H    0.036517
    60  H    0.038396
    61  H    0.037065
    62  H    0.027502
    63  H    0.017258
    64  H    0.010317
    65  H    0.024017
    66  H    0.012639
    67  H    0.005460
    68  H    0.007272
    69  H    0.005534
    70  H    0.009360
    71  H    0.019623
    72  H    0.030196
    73  H    0.051571
    74  H    0.010281
    75  H    0.046762
    76  H    0.035997
    77  H    0.037543
    78  H    0.043479
    79  H   -0.043887
    80  Mg   0.836432
    81  C   -0.016251
    82  C   -0.088462
    83  C   -0.045992
    84  C   -0.067035
    85  N   -0.253720
    86  C   -0.049115
    87  C   -0.024434
    88  C   -0.079261
    89  C    0.042545
    90  C    0.022353
    91  C    0.106406
    92  C   -0.104567
    93  H    0.023612
    94  N   -0.423158
    95  C    0.161739
    96  C   -0.174923
    97  C   -0.008744
    98  C    0.151765
    99  C    0.100237
   100  C    0.015114
   101  O   -0.254207
   102  C    0.061370
   103  N   -0.350525
   104  C    0.036991
   105  C   -0.019382
   106  C   -0.034876
   107  C    0.089989
   108  C    0.073977
   109  C    0.034959
   110  C   -0.007554
   111  N   -0.324287
   112  C    0.079685
   113  C   -0.164484
   114  C    0.003693
   115  C    0.094731
   116  C    0.131707
   117  C    0.040706
   118  O   -0.184729
   119  C    0.006658
   120  C    0.207413
   121  O   -0.266215
   122  O   -0.270722
   123  C    0.213678
   124  H   -0.020745
   125  H   -0.016662
   126  H   -0.041455
   127  H    0.018513
   128  H   -0.003570
   129  H    0.074096
   130  H    0.034704
   131  H    0.119772
   132  H    0.001229
   133  H    0.033839
   134  H    0.004074
   135  H    0.007370
   136  H    0.004837
   137  H    0.024708
   138  H    0.038102
   139  H    0.037513
   140  H    0.035426
   141  H    0.033022
   142  H    0.013750
   143  H    0.011543
   144  H    0.024364
   145  H    0.011827
   146  H    0.004519
   147  H    0.005558
   148  H    0.003239
   149  H    0.010655
   150  H    0.017373
   151  H    0.030706
   152  H    0.046460
   153  H    0.007512
   154  H    0.046044
   155  H    0.041891
   156  H    0.048887
   157  H    0.032480
   158  H    0.037671
 Sum of Mulliken charges =  -0.00000

 Dipole moment (field-independent basis, Debye):
    X=              4.2302    Y=              6.3757    Z=             -2.8177  Tot=              8.1537
 Quadrupole moment (field-independent basis, Debye-Ang):
   XX=           -503.9848   YY=           -558.5326   ZZ=           -463.6939
   XY=             25.2473   XZ=            -36.8493   YZ=            -10.2765

 Normal termination of Gaussian 16 at Thu Sep  9 04:44:39 2021.
