 Gaussian 16, Revision A.03,
 Gaussian 16:  ES64L-G16RevA.03 25-Dec-2016

 -----------------------------------
 #p cam-b3lyp/Def2SVP td=(nstates=5)
 -----------------------------------

 --------------------------------
 TDDFT excited states in gaussian
 --------------------------------
 Symbolic Z-matrix:
 Charge =  0 Multiplicity = 1

                         Standard orientation:
 ---------------------------------------------------------------------
 Center     Atomic      Atomic             Coordinates (Angstroms)
 Number     Number       Type             X           Y           Z
 ---------------------------------------------------------------------
      1         12           0        7.526004    0.924133    0.548138
      2          6           0        7.947149   -2.373783   -0.777985
      3          6           0        8.495199    2.112636   -2.500006
      4          6           0        7.600671    3.826139    1.824619
      5          6           0        7.700001   -0.491823    3.727833
      6          7           0        8.118582   -0.100207   -1.322750
      7          6           0        8.180562   -1.367827   -1.718312
      8          6           0        8.442997   -1.526225   -3.245863
      9          6           0        9.145690   -0.123028   -3.527389
     10          6           0        8.523763    0.689519   -2.405382
     11          6           0       10.658481   -0.149606   -3.334365
     12          6           0        7.116777   -1.677254   -4.064436
     13          6           0        7.290903   -2.160145   -5.507298
     14          1           0        6.281491   -3.039032   -6.078257
     15          7           0        7.504454    2.702788   -0.311379
     16          6           0        7.921371    3.001399   -1.565292
     17          6           0        7.701666    4.454111   -1.732734
     18          6           0        7.300599    5.009071   -0.410138
     19          6           0        7.480254    3.858023    0.437324
     20          6           0        7.827125    5.158993   -3.048466
     21          6           0        6.840124    6.364884    0.023297
     22          8           0        6.765594    6.696030    1.255921
     23          6           0        6.559384    7.337090   -1.048636
     24          7           0        7.854010    1.612737    2.491299
     25          6           0        7.773586    2.915228    2.784612
     26          6           0        7.762967    3.141355    4.267411
     27          6           0        7.607618    1.698471    4.933524
     28          6           0        7.639950    0.839225    3.645533
     29          6           0        9.000677    3.840294    4.846694
     30          6           0        6.430022    1.503016    5.921189
     31          6           0        5.116497    1.583410    5.176015
     32          7           0        7.600126   -1.084847    1.366400
     33          6           0        7.692209   -1.441202    2.719621
     34          6           0        7.822568   -2.908970    2.771911
     35          6           0        7.813872   -3.305626    1.436085
     36          6           0        7.712585   -2.156172    0.601346
     37          6           0        7.987733   -3.689499    3.950015
     38          6           0        7.891379   -4.431161    0.519012
     39          8           0        7.892866   -5.656260    0.647941
     40          6           0        8.103437   -3.863826   -0.953737
     41          6           0        7.130815   -4.571084   -1.857674
     42          8           0        5.901540   -4.390354   -1.741118
     43          8           0        7.801905   -5.157406   -2.860873
     44          6           0        6.892715   -5.852282   -3.810964
     45          1           0        9.008788    2.596647   -3.333013
     46          1           0        7.519519    4.800208    2.311490
     47          1           0        7.674046   -1.010898    4.687698
     48          1           0        9.118603   -2.340336   -3.508931
     49          1           0        8.860683    0.287806   -4.495742
     50          1           0       10.989284   -1.097116   -2.909259
     51          1           0       10.879316    0.671511   -2.652095
     52          1           0       11.172109    0.088651   -4.266136
     53          1           0        6.693918   -0.689747   -4.249044
     54          1           0        6.416430   -2.333556   -3.546645
     55          1           0        8.289135   -2.565884   -5.674084
     56          1           0        7.237131   -1.293549   -6.166328
     57          1           0        8.294851    4.524117   -3.799938
     58          1           0        8.533577    5.976451   -2.905652
     59          1           0        6.872203    5.554640   -3.394761
     60          1           0        7.459756    7.484856   -1.645330
     61          1           0        6.156604    8.220865   -0.555119
     62          1           0        5.811811    6.915224   -1.721030
     63          1           0        6.918891    3.763563    4.562063
     64          1           0        8.488577    1.417683    5.511229
     65          1           0        8.770818    4.753442    5.396268
     66          1           0        9.689491    4.040414    4.026463
     67          1           0        9.614075    3.218136    5.497907
     68          1           0        6.424836    2.297209    6.666961
     69          1           0        6.466033    0.550946    6.450829
     70          1           0        4.931843    2.655764    5.123165
     71          1           0        4.329282    1.078889    5.737230
     72          1           0        5.216035    1.219116    4.153338
     73          1           0        7.333493   -4.553940    3.837407
     74          1           0        7.737347   -3.116839    4.842747
     75          1           0        9.050204   -3.924665    3.889130
     76          1           0        9.138424   -4.071408   -1.223614
     77          1           0        7.224950   -6.888598   -3.873435
     78          1           0        6.895183   -5.263949   -4.728713
     79          1           0        5.861868   -5.986181   -3.481167
     80         12           0       -8.309197    0.184231   -0.228118
     81          6           0       -5.733734   -2.271142    0.237911
     82          6           0       -5.846048    2.392714   -1.058817
     83          6           0      -10.498893    2.480396   -0.210138
     84          6           0      -10.391717   -1.835936    1.702633
     85          7           0       -6.111629   -0.030356   -0.358010
     86          6           0       -5.250492   -1.026946   -0.218052
     87          6           0       -3.801821   -0.692692   -0.664374
     88          6           0       -3.859284    0.902908   -0.492222
     89          6           0       -5.359797    1.115347   -0.681976
     90          6           0       -3.483284    1.371552    0.903604
     91          6           0       -3.526404   -1.100127   -2.154393
     92          6           0       -2.051524   -1.088221   -2.562233
     93          1           0       -1.583365   -2.095543   -3.510183
     94          7           0       -8.277360    1.995571   -1.038425
     95          6           0       -7.188496    2.738098   -1.328745
     96          6           0       -7.698998    3.998561   -1.889823
     97          6           0       -9.181007    4.006033   -1.754497
     98          6           0       -9.379144    2.810655   -0.959567
     99          6           0       -6.812170    5.012609   -2.552136
    100          6           0      -10.242988    4.941993   -2.246804
    101          8           0      -11.446741    4.883892   -1.810436
    102          6           0       -9.811087    5.988355   -3.184938
    103          7           0      -10.105120    0.411929    0.794220
    104          6           0      -10.891902    1.481023    0.579866
    105          6           0      -12.249971    1.294632    1.213357
    106          6           0      -12.294369   -0.230122    1.693689
    107          6           0      -10.857900   -0.655627    1.318327
    108          6           0      -12.563322    2.210034    2.396673
    109          6           0      -13.478917   -1.094922    1.182172
    110          6           0      -13.358897   -1.303544   -0.310296
    111          7           0       -8.190963   -1.790318    0.640937
    112          6           0       -9.166638   -2.432987    1.434110
    113          6           0       -8.585074   -3.713134    1.887348
    114          6           0       -7.292770   -3.715943    1.341061
    115          6           0       -7.076515   -2.512724    0.616490
    116          6           0       -9.222399   -4.662537    2.735031
    117          6           0       -6.058608   -4.458400    1.221462
    118          8           0       -5.685599   -5.582801    1.553597
    119          6           0       -4.949527   -3.499596    0.607439
    120          6           0       -4.251956   -4.244244   -0.497734
    121          8           0       -4.867589   -4.567306   -1.528873
    122          8           0       -2.929247   -4.260408   -0.251677
    123          6           0       -2.192996   -4.978457   -1.326000
    124          1           0       -5.139601    3.221498   -1.112985
    125          1           0      -11.327175    3.190846   -0.261814
    126          1           0      -11.012158   -2.566228    2.226449
    127          1           0       -3.024966   -1.107046   -0.033046
    128          1           0       -3.300728    1.405300   -1.277702
    129          1           0       -3.353363    0.544000    1.585084
    130          1           0       -4.296770    2.006243    1.229900
    131          1           0       -2.598847    2.013600    0.860193
    132          1           0       -3.911029   -0.314459   -2.817373
    133          1           0       -3.953843   -2.059520   -2.372273
    134          1           0       -1.383996   -1.038474   -1.693398
    135          1           0       -1.849964   -0.163493   -3.108385
    136          1           0       -5.752302    4.810617   -2.353968
    137          1           0       -7.002142    5.973008   -2.060788
    138          1           0       -7.014974    5.115874   -3.620253
    139          1           0       -9.040524    6.596794   -2.717507
    140          1           0      -10.724900    6.500551   -3.492312
    141          1           0       -9.348858    5.508973   -4.055087
    142          1           0      -13.039686    1.458484    0.490452
    143          1           0      -12.370099   -0.310530    2.788049
    144          1           0      -13.481140    2.810832    2.252667
    145          1           0      -11.710196    2.853584    2.565658
    146          1           0      -12.665990    1.705838    3.356067
    147          1           0      -14.426094   -0.575703    1.347795
    148          1           0      -13.551314   -2.060718    1.671033
    149          1           0      -13.798921   -0.390875   -0.723222
    150          1           0      -13.916105   -2.185429   -0.619855
    151          1           0      -12.307863   -1.332271   -0.620396
    152          1           0       -9.023513   -5.638987    2.313736
    153          1           0      -10.290835   -4.472224    2.812498
    154          1           0       -8.701052   -4.465198    3.675525
    155          1           0       -4.266628   -3.229942    1.413971
    156          1           0       -1.611604   -5.768973   -0.841474
    157          1           0       -1.627671   -4.200185   -1.872307
    158          1           0       -2.776783   -5.550954   -2.037259
 ---------------------------------------------------------------------

 SCF Done:  E(RCAM-B3LYP) =  -4069.81182499     A.U. after   19 cycles

 Excitation energies and oscillator strengths:

 Excited State   1:      Singlet-A      1.6689 eV  742.89 nm  f=0.0122  <S**2>=0.000
     309 -> 315       -0.10750
     310 -> 316        0.13434
     311 -> 313       -0.42705
     312 -> 314        0.53740
 This state for optimization and/or second-order correction.
 Total Energy, E(TD-HF/TD-DFT) =  -4069.75049231
 Copying the excited state density for this state as the 1-particle RhoCI density.

 Excited State   2:      Singlet-A      1.6856 eV  735.53 nm  f=0.7406  <S**2>=0.000
     309 -> 315        0.13855
     310 -> 316        0.10941
     311 -> 313        0.53650
     312 -> 314        0.42643

 Excited State   3:      Singlet-A      2.1853 eV  567.35 nm  f=0.1001  <S**2>=0.000
     310 -> 314        0.64081
     312 -> 316       -0.27168

 Excited State   4:      Singlet-A      2.1926 eV  565.48 nm  f=0.1014  <S**2>=0.000
     309 -> 313        0.63882
     311 -> 315       -0.27755

 Excited State   5:      Singlet-A      2.7164 eV  456.43 nm  f=0.0000  <S**2>=0.000
     312 -> 313        0.70694

 The electronic state is 1-A.
 Alpha  occ. eigenvalues --  -46.87950 -46.87559 -19.26415 -19.26088 -19.19163
 Alpha  occ. eigenvalues --  -19.18981 -19.18949 -19.18637 -19.18298 -19.17917
 Alpha  occ. eigenvalues --  -14.42599 -14.42389 -14.41597 -14.41260 -14.39557
 Alpha  occ. eigenvalues --  -14.39252 -14.38735 -14.38496 -10.39221 -10.38879
 Alpha  occ. eigenvalues --  -10.35615 -10.35316 -10.34518 -10.34090 -10.31800
 Alpha  occ. eigenvalues --  -10.31546 -10.31422 -10.31192 -10.31061 -10.30907
 Alpha  occ. eigenvalues --  -10.30713 -10.30655 -10.30356 -10.30297 -10.30253
 Alpha  occ. eigenvalues --  -10.30062 -10.30053 -10.29796 -10.29777 -10.29405
 Alpha  occ. eigenvalues --  -10.29344 -10.29301 -10.28893 -10.28683 -10.28563
 Alpha  occ. eigenvalues --  -10.28514 -10.28437 -10.28296 -10.28254 -10.28003
 Alpha  occ. eigenvalues --  -10.27935 -10.27899 -10.27873 -10.27736 -10.27640
 Alpha  occ. eigenvalues --  -10.27637 -10.27586 -10.27565 -10.27550 -10.27442
 Alpha  occ. eigenvalues --  -10.27395 -10.27370 -10.27368 -10.27298 -10.27292
 Alpha  occ. eigenvalues --  -10.26888 -10.26863 -10.26593 -10.26522 -10.26358
 Alpha  occ. eigenvalues --  -10.26356 -10.26320 -10.26163 -10.26070 -10.25948
 Alpha  occ. eigenvalues --  -10.25884 -10.25839 -10.25754 -10.25558 -10.25329
 Alpha  occ. eigenvalues --  -10.24973 -10.24935 -10.24846 -10.24766 -10.24666
 Alpha  occ. eigenvalues --  -10.24591  -3.16694  -3.16309  -1.91576  -1.91191
 Alpha  occ. eigenvalues --   -1.91162  -1.91004  -1.90780  -1.90617  -1.16765
 Alpha  occ. eigenvalues --   -1.16394  -1.08754  -1.08515  -1.07383  -1.06891
 Alpha  occ. eigenvalues --   -1.06783  -1.06729  -1.04729  -1.04384  -1.03908
 Alpha  occ. eigenvalues --   -1.03560  -1.03383  -1.02940  -1.02559  -1.02009
 Alpha  occ. eigenvalues --   -0.92115  -0.91864  -0.89663  -0.89400  -0.89330
 Alpha  occ. eigenvalues --   -0.89011  -0.88428  -0.88132  -0.88002  -0.87819
 Alpha  occ. eigenvalues --   -0.87690  -0.87572  -0.87431  -0.87035  -0.85127
 Alpha  occ. eigenvalues --   -0.84866  -0.84077  -0.83783  -0.83129  -0.82853
 Alpha  occ. eigenvalues --   -0.82794  -0.82524  -0.81721  -0.81420  -0.80741
 Alpha  occ. eigenvalues --   -0.80297  -0.78946  -0.78542  -0.77360  -0.77072
 Alpha  occ. eigenvalues --   -0.77029  -0.76748  -0.76059  -0.75687  -0.75035
 Alpha  occ. eigenvalues --   -0.74697  -0.72915  -0.72596  -0.71811  -0.71464
 Alpha  occ. eigenvalues --   -0.70050  -0.69675  -0.69018  -0.68697  -0.67787
 Alpha  occ. eigenvalues --   -0.67487  -0.67372  -0.67064  -0.65430  -0.65129
 Alpha  occ. eigenvalues --   -0.64996  -0.64763  -0.64653  -0.64507  -0.64412
 Alpha  occ. eigenvalues --   -0.64104  -0.62434  -0.62094  -0.60595  -0.60251
 Alpha  occ. eigenvalues --   -0.59947  -0.59668  -0.59130  -0.58879  -0.58646
 Alpha  occ. eigenvalues --   -0.58305  -0.57721  -0.57452  -0.57396  -0.57129
 Alpha  occ. eigenvalues --   -0.56451  -0.56114  -0.56096  -0.55698  -0.55668
 Alpha  occ. eigenvalues --   -0.55477  -0.55322  -0.55122  -0.54661  -0.54340
 Alpha  occ. eigenvalues --   -0.54038  -0.53772  -0.53447  -0.53369  -0.53120
 Alpha  occ. eigenvalues --   -0.53059  -0.53010  -0.52912  -0.52756  -0.52582
 Alpha  occ. eigenvalues --   -0.52568  -0.52317  -0.52037  -0.51779  -0.51764
 Alpha  occ. eigenvalues --   -0.51522  -0.51333  -0.51071  -0.50737  -0.50399
 Alpha  occ. eigenvalues --   -0.50174  -0.50072  -0.49875  -0.49780  -0.49662
 Alpha  occ. eigenvalues --   -0.49376  -0.49356  -0.49231  -0.49077  -0.48967
 Alpha  occ. eigenvalues --   -0.48727  -0.48611  -0.48586  -0.48414  -0.48282
 Alpha  occ. eigenvalues --   -0.48229  -0.47840  -0.47473  -0.47440  -0.47011
 Alpha  occ. eigenvalues --   -0.46938  -0.46699  -0.46598  -0.46502  -0.46417
 Alpha  occ. eigenvalues --   -0.46298  -0.46164  -0.45962  -0.45949  -0.45669
 Alpha  occ. eigenvalues --   -0.45340  -0.45113  -0.44713  -0.44657  -0.44378
 Alpha  occ. eigenvalues --   -0.44353  -0.44291  -0.44229  -0.44160  -0.44006
 Alpha  occ. eigenvalues --   -0.43971  -0.43817  -0.43629  -0.43529  -0.43381
 Alpha  occ. eigenvalues --   -0.43252  -0.43166  -0.42838  -0.42797  -0.42794
 Alpha  occ. eigenvalues --   -0.42703  -0.42466  -0.42152  -0.41853  -0.41844
 Alpha  occ. eigenvalues --   -0.41677  -0.41546  -0.41327  -0.41281  -0.41015
 Alpha  occ. eigenvalues --   -0.40984  -0.40874  -0.40711  -0.40620  -0.40578
 Alpha  occ. eigenvalues --   -0.40390  -0.40386  -0.40071  -0.39587  -0.39345
 Alpha  occ. eigenvalues --   -0.38610  -0.38254  -0.37896  -0.37502  -0.37463
 Alpha  occ. eigenvalues --   -0.37411  -0.37164  -0.37066  -0.36851  -0.36578
 Alpha  occ. eigenvalues --   -0.36333  -0.36081  -0.34432  -0.34145  -0.33916
 Alpha  occ. eigenvalues --   -0.33673  -0.33333  -0.33067  -0.31510  -0.31194
 Alpha  occ. eigenvalues --   -0.31182  -0.30864  -0.30156  -0.29817  -0.29602
 Alpha  occ. eigenvalues --   -0.29464  -0.29232  -0.29106  -0.24228  -0.23930
 Alpha  occ. eigenvalues --   -0.21274  -0.21015
 Alpha virt. eigenvalues --   -0.08922  -0.08690  -0.01900  -0.01585  -0.00212
 Alpha virt. eigenvalues --    0.00069   0.02062   0.02321   0.02920   0.03320
 Alpha virt. eigenvalues --    0.04573   0.04856   0.04959   0.05367   0.06034

 Mulliken charges:
               1
     1  Mg   0.837799
     2  C   -0.003212
     3  C   -0.094247
     4  C   -0.046033
     5  C   -0.063844
     6  N   -0.256803
     7  C   -0.052470
     8  C   -0.013928
     9  C   -0.086939
    10  C    0.046070
    11  C    0.104745
    12  C    0.053517
    13  C   -0.071861
    14  H    0.036076
    15  N   -0.433137
    16  C    0.168066
    17  C   -0.177359
    18  C   -0.004269
    19  C    0.148402
    20  C    0.110159
    21  C    0.011798
    22  O   -0.249664
    23  C    0.062713
    24  N   -0.341089
    25  C    0.041157
    26  C   -0.028158
    27  C   -0.024095
    28  C    0.074775
    29  C    0.076083
    30  C    0.035121
    31  C   -0.004552
    32  N   -0.310551
    33  C    0.080374
    34  C   -0.169395
    35  C    0.008592
    36  C    0.082845
    37  C    0.127244
    38  C    0.046225
    39  O   -0.187741
    40  C   -0.005343
    41  C    0.213137
    42  O   -0.257774
    43  O   -0.304584
    44  C    0.157678
    45  H   -0.017429
    46  H   -0.016832
    47  H   -0.041055
    48  H    0.001275
    49  H   -0.004068
    50  H    0.025677
    51  H    0.016543
    52  H    0.016904
    53  H    0.010691
    54  H    0.043677
    55  H    0.018330
    56  H    0.017957
    57  H    0.006019
    58  H    0.027072
    59  H    0.038894
    60  H    0.037741
    61  H    0.035509
    62  H    0.030654
    63  H    0.016310
    64  H    0.009857
    65  H    0.023308
    66  H    0.012669
    67  H    0.005064
    68  H    0.006639
    69  H    0.005236
    70  H    0.008404
    71  H    0.018376
    72  H    0.028428
    73  H    0.048097
    74  H    0.009390
    75  H    0.046350
    76  H    0.035522
    77  H    0.043544
    78  H    0.046422
    79  H    0.053294
    80  Mg   0.837606
    81  C   -0.016773
    82  C   -0.087863
    83  C   -0.045709
    84  C   -0.065157
    85  N   -0.254559
    86  C   -0.049792
    87  C   -0.015068
    88  C   -0.090432
    89  C    0.045763
    90  C    0.114442
    91  C    0.062662
    92  C   -0.078152
    93  H    0.035644
    94  N   -0.423443
    95  C    0.162798
    96  C   -0.174777
    97  C   -0.008041
    98  C    0.152060
    99  C    0.099454
   100  C    0.015399
   101  O   -0.253432
   102  C    0.061274
   103  N   -0.350096
   104  C    0.037437
   105  C   -0.019764
   106  C   -0.034772
   107  C    0.089003
   108  C    0.073737
   109  C    0.034771
   110  C   -0.007634
   111  N   -0.324152
   112  C    0.078585
   113  C   -0.163270
   114  C    0.002437
   115  C    0.096148
   116  C    0.131501
   117  C    0.042278
   118  O   -0.187192
   119  C    0.001162
   120  C    0.211317
   121  O   -0.251680
   122  O   -0.305173
   123  C    0.151828
   124  H   -0.019820
   125  H   -0.015864
   126  H   -0.040636
   127  H    0.000508
   128  H   -0.004554
   129  H    0.022782
   130  H    0.014027
   131  H    0.016443
   132  H    0.013108
   133  H    0.037650
   134  H    0.022616
   135  H    0.018424
   136  H    0.008589
   137  H    0.025901
   138  H    0.039332
   139  H    0.038126
   140  H    0.036103
   141  H    0.033703
   142  H    0.014206
   143  H    0.012296
   144  H    0.024907
   145  H    0.011622
   146  H    0.005523
   147  H    0.006063
   148  H    0.003595
   149  H    0.010810
   150  H    0.017792
   151  H    0.030237
   152  H    0.046096
   153  H    0.008295
   154  H    0.046974
   155  H    0.035595
   156  H    0.045919
   157  H    0.050715
   158  H    0.052542
 Sum of Mulliken charges =  -0.00000

 Dipole moment (field-independent basis, Debye):
    X=              4.3340    Y=              6.6527    Z=             -3.0364  Tot=              8.5007
 Quadrupole moment (field-independent basis, Debye-Ang):
   XX=           -492.4347   YY=           -560.4756   ZZ=           -466.5198
   XY=             14.4663   XZ=            -40.7856   YZ=             -9.1114

 Normal termination of Gaussian 16 at Sun Sep 12 03:08:21 2021.
