 Gaussian 16, Revision A.03,
 Gaussian 16:  ES64L-G16RevA.03 25-Dec-2016

 -----------------------------------
 #p cam-b3lyp/Def2SVP td=(nstates=5)
 -----------------------------------

 --------------------------------
 TDDFT excited states in gaussian
 --------------------------------
 Symbolic Z-matrix:
 Charge =  0 Multiplicity = 1

                         Standard orientation:
 ---------------------------------------------------------------------
 Center     Atomic      Atomic             Coordinates (Angstroms)
 Number     Number       Type             X           Y           Z
 ---------------------------------------------------------------------
      1         12           0        8.208764    0.392871    0.422456
      2          6           0        8.382589   -2.778835   -1.227478
      3          6           0        9.174064    1.812451   -2.526451
      4          6           0        8.502795    3.145658    1.969171
      5          6           0        8.372632   -1.335934    3.444052
      6          7           0        8.686038   -0.477707   -1.556167
      7          6           0        8.656120   -1.701853   -2.073607
      8          6           0        8.868594   -1.725629   -3.616871
      9          6           0        9.652730   -0.347549   -3.784275
     10          6           0        9.113357    0.387867   -2.570124
     11          6           0       11.165119   -0.486039   -3.642842
     12          6           0        7.514868   -1.713731   -4.403646
     13          6           0        7.620522   -2.062681   -5.891068
     14          1           0        6.542324   -2.817530   -6.511584
     15          7           0        8.279764    2.245141   -0.260849
     16          6           0        8.682783    2.638966   -1.492824
     17          6           0        8.552849    4.111856   -1.512677
     18          6           0        8.222358    4.558154   -0.130762
     19          6           0        8.349182    3.320717    0.595904
     20          6           0        8.689684    4.933231   -2.757815
     21          6           0        7.861387    5.890730    0.445495
     22          8           0        7.839934    6.103427    1.706000
     23          6           0        7.616457    6.978755   -0.518483
     24          7           0        8.630095    0.866189    2.411447
     25          6           0        8.641239    2.136129    2.831105
     26          6           0        8.683190    2.216056    4.328366
     27          6           0        8.452380    0.727152    4.857179
     28          6           0        8.396317   -0.002069    3.492129
     29          6           0        9.977766    2.777291    4.932601
     30          6           0        7.290332    0.508734    5.858357
     31          6           0        5.966050    0.742523    5.166462
     32          7           0        8.174322   -1.687369    1.040891
     33          6           0        8.277906   -2.179633    2.349944
     34          6           0        8.314790   -3.650687    2.256627
     35          6           0        8.246356   -3.913213    0.889791
     36          6           0        8.197935   -2.683432    0.173141
     37          6           0        8.459484   -4.551612    3.348338
     38          6           0        8.227716   -4.946070   -0.133301
     39          8           0        8.153625   -6.175662   -0.122937
     40          6           0        8.438064   -4.251261   -1.550630
     41          6           0        7.399087   -4.805264   -2.487069
     42          8           0        6.187389   -4.561463   -2.314689
     43          8           0        8.005114   -5.330649   -3.562821
     44          6           0        7.029030   -5.871736   -4.546000
     45          1           0        9.696241    2.343223   -3.324920
     46          1           0        8.497026    4.070457    2.549819
     47          1           0        8.337909   -1.944000    4.349868
     48          1           0        9.483420   -2.550093   -3.978357
     49          1           0        9.370053    0.172987   -4.699074
     50          1           0       11.445012   -1.489219   -3.321577
     51          1           0       11.455768    0.249086   -2.892103
     52          1           0       11.668982   -0.189692   -4.563209
     53          1           0        7.151876   -0.688725   -4.478878
     54          1           0        6.787213   -2.373238   -3.929414
     55          1           0        8.585959   -2.510825   -6.127728
     56          1           0        7.605792   -1.134005   -6.461634
     57          1           0        9.096158    4.347470   -3.581349
     58          1           0        9.450728    5.687687   -2.559530
     59          1           0        7.753659    5.418972   -3.033943
     60          1           0        8.508893    7.128559   -1.126484
     61          1           0        7.284189    7.833025    0.070305
     62          1           0        6.826294    6.671671   -1.204261
     63          1           0        7.888752    2.857188    4.708163
     64          1           0        9.327942    0.337371    5.376926
     65          1           0        9.821331    3.644591    5.574492
     66          1           0       10.656797    3.014035    4.113968
     67          1           0       10.566315    2.057709    5.501133
     68          1           0        7.355396    1.224812    6.676858
     69          1           0        7.278526   -0.491065    6.292539
     70          1           0        5.849530    1.824220    5.222908
     71          1           0        5.162622    0.234870    5.701254
     72          1           0        6.015696    0.474783    4.110840
     73          1           0        7.748275   -5.358911    3.173927
     74          1           0        8.269439   -4.054880    4.299518
     75          1           0        9.502701   -4.844665    3.231404
     76          1           0        9.450284   -4.494740   -1.871955
     77          1           0        7.292144   -6.915425   -4.718393
     78          1           0        7.045862   -5.197559   -5.402508
     79          1           0        6.000490   -5.973571   -4.198045
     80         12           0       -7.667917    0.714300    0.096027
     81          6           0      -10.220300   -1.805894    0.210115
     82          6           0       -9.766070    2.537874   -1.880577
     83          6           0       -5.279851    2.745018   -0.394666
     84          6           0       -5.398038   -1.736650    1.089099
     85          7           0       -9.704615    0.311658   -0.666869
     86          6           0      -10.599086   -0.652086   -0.507300
     87          6           0      -12.003254   -0.328357   -1.084439
     88          6           0      -11.567465    0.762151   -2.179775
     89          6           0      -10.283119    1.266531   -1.524980
     90          6           0      -11.210309    0.153746   -3.525736
     91          6           0      -12.963600    0.290080   -0.008668
     92          6           0      -14.437339    0.343933   -0.417261
     93          1           0      -15.452816    0.134369    0.611017
     94          7           0       -7.689364    2.588557   -0.556115
     95          6           0       -8.629582    3.170111   -1.330103
     96          6           0       -8.173277    4.551603   -1.547894
     97          6           0       -6.806122    4.689621   -0.976444
     98          6           0       -6.524293    3.310695   -0.631171
     99          6           0       -9.041436    5.606896   -2.169245
    100          6           0       -5.897066    5.865794   -0.785565
    101          8           0       -4.659379    5.718693   -0.486677
    102          6           0       -6.475545    7.191228   -1.050272
    103          7           0       -5.601088    0.489733    0.108181
    104          6           0       -4.789918    1.544787   -0.083639
    105          6           0       -3.356726    1.197109    0.241126
    106          6           0       -3.409510   -0.247441    0.925267
    107          6           0       -4.920813   -0.536040    0.790837
    108          6           0       -2.395056    1.162662   -0.946471
    109          6           0       -2.751953   -0.387442    2.325516
    110          6           0       -3.537441    0.404326    3.346053
    111          7           0       -7.785607   -1.342290    0.747657
    112          6           0       -6.710550   -2.191300    1.090473
    113          6           0       -7.279559   -3.528303    1.357072
    114          6           0       -8.654324   -3.368782    1.126666
    115          6           0       -8.920484   -2.032194    0.723936
    116          6           0       -6.539601   -4.692213    1.709050
    117          6           0       -9.939478   -4.029877    1.122266
    118          8           0      -10.345891   -5.141089    1.459569
    119          6           0      -10.993872   -3.080144    0.406285
    120          6           0      -12.227829   -3.025582    1.264708
    121          8           0      -12.189002   -2.508666    2.395156
    122          8           0      -13.292858   -3.393203    0.529227
    123          6           0      -14.542547   -3.344442    1.334049
    124          1           0      -10.250890    3.087917   -2.687593
    125          1           0       -4.432416    3.432758   -0.443062
    126          1           0       -4.768841   -2.529652    1.498884
    127          1           0      -12.499401   -1.162030   -1.566713
    128          1           0      -12.298530    1.563183   -2.252220
    129          1           0      -11.194755   -0.925390   -3.488687
    130          1           0      -10.228937    0.538070   -3.771176
    131          1           0      -11.884047    0.530730   -4.300522
    132          1           0      -12.754664    1.363714    0.082898
    133          1           0      -12.866919   -0.223048    0.928342
    134          1           0      -14.644777   -0.280086   -1.295060
    135          1           0      -14.668511    1.358964   -0.749332
    136          1           0       -9.931302    5.170280   -2.639266
    137          1           0       -8.476057    6.035476   -3.003820
    138          1           0       -9.299541    6.405294   -1.470240
    139          1           0       -6.836691    7.229471   -2.075251
    140          1           0       -5.700786    7.908818   -0.773364
    141          1           0       -7.349456    7.327067   -0.403400
    142          1           0       -2.937321    1.904599    0.945860
    143          1           0       -2.889942   -1.004393    0.319535
    144          1           0       -1.529538    1.841407   -0.827063
    145          1           0       -2.949953    1.408007   -1.842250
    146          1           0       -1.992182    0.180075   -1.186118
    147          1           0       -1.743911    0.034313    2.314409
    148          1           0       -2.667303   -1.415318    2.662124
    149          1           0       -3.147780    1.419389    3.223987
    150          1           0       -3.350349    0.027760    4.349658
    151          1           0       -4.603248    0.427460    3.090777
    152          1           0       -7.085999   -5.179453    2.505632
    153          1           0       -5.526474   -4.441399    2.016371
    154          1           0       -6.558567   -5.230495    0.757644
    155          1           0      -11.198623   -3.501668   -0.578588
    156          1           0      -15.002459   -4.335458    1.270335
    157          1           0      -15.123377   -2.492830    0.932620
    158          1           0      -14.443575   -3.225781    2.406696
 ---------------------------------------------------------------------

 SCF Done:  E(RCAM-B3LYP) =  -4069.81186266     A.U. after   19 cycles

 Excitation energies and oscillator strengths:

 Excited State   1:      Singlet-A      1.6693 eV  742.72 nm  f=0.0198  <S**2>=0.000
     309 -> 315       -0.10189
     310 -> 316        0.13904
     311 -> 313       -0.40432
     312 -> 314        0.55466
 This state for optimization and/or second-order correction.
 Total Energy, E(TD-HF/TD-DFT) =  -4069.75051620
 Copying the excited state density for this state as the 1-particle RhoCI density.

 Excited State   2:      Singlet-A      1.6855 eV  735.58 nm  f=0.7357  <S**2>=0.000
     309 -> 315        0.14312
     310 -> 316        0.10376
     311 -> 313        0.55382
     312 -> 314        0.40378

 Excited State   3:      Singlet-A      2.1856 eV  567.29 nm  f=0.1035  <S**2>=0.000
     310 -> 314        0.64174
     312 -> 316       -0.27249

 Excited State   4:      Singlet-A      2.1932 eV  565.31 nm  f=0.0985  <S**2>=0.000
     309 -> 313        0.63975
     311 -> 315       -0.27831

 Excited State   5:      Singlet-A      2.7688 eV  447.80 nm  f=0.0000  <S**2>=0.000
     312 -> 313        0.70695

 The electronic state is 1-A.
 Alpha  occ. eigenvalues --  -46.87807 -46.87578 -19.26306 -19.26291 -19.19098
 Alpha  occ. eigenvalues --  -19.19046 -19.18799 -19.18651 -19.18180 -19.17975
 Alpha  occ. eigenvalues --  -14.42459 -14.42419 -14.41458 -14.41270 -14.39410
 Alpha  occ. eigenvalues --  -14.39273 -14.38599 -14.38517 -10.39104 -10.39027
 Alpha  occ. eigenvalues --  -10.35431 -10.35330 -10.34401 -10.34153 -10.31704
 Alpha  occ. eigenvalues --  -10.31700 -10.31417 -10.31230 -10.30953 -10.30915
 Alpha  occ. eigenvalues --  -10.30581 -10.30515 -10.30313 -10.30278 -10.30211
 Alpha  occ. eigenvalues --  -10.30047 -10.29930 -10.29798 -10.29636 -10.29356
 Alpha  occ. eigenvalues --  -10.29321 -10.29258 -10.28759 -10.28658 -10.28607
 Alpha  occ. eigenvalues --  -10.28553 -10.28372 -10.28329 -10.28125 -10.28078
 Alpha  occ. eigenvalues --  -10.27920 -10.27799 -10.27735 -10.27592 -10.27586
 Alpha  occ. eigenvalues --  -10.27508 -10.27471 -10.27454 -10.27413 -10.27411
 Alpha  occ. eigenvalues --  -10.27405 -10.27390 -10.27383 -10.27254 -10.27172
 Alpha  occ. eigenvalues --  -10.26979 -10.26721 -10.26637 -10.26374 -10.26370
 Alpha  occ. eigenvalues --  -10.26240 -10.26198 -10.26028 -10.25987 -10.25968
 Alpha  occ. eigenvalues --  -10.25854 -10.25837 -10.25739 -10.25433 -10.25266
 Alpha  occ. eigenvalues --  -10.24841 -10.24794 -10.24792 -10.24717 -10.24605
 Alpha  occ. eigenvalues --  -10.24604  -3.16551  -3.16328  -1.91432  -1.91211
 Alpha  occ. eigenvalues --   -1.91019  -1.90861  -1.90799  -1.90636  -1.16655
 Alpha  occ. eigenvalues --   -1.16584  -1.08639  -1.08583  -1.07199  -1.06904
 Alpha  occ. eigenvalues --   -1.06883  -1.06667  -1.04590  -1.04418  -1.03769
 Alpha  occ. eigenvalues --   -1.03581  -1.03242  -1.02952  -1.02420  -1.02027
 Alpha  occ. eigenvalues --   -0.91982  -0.91909  -0.89530  -0.89392  -0.89198
 Alpha  occ. eigenvalues --   -0.89085  -0.88295  -0.88110  -0.87879  -0.87704
 Alpha  occ. eigenvalues --   -0.87681  -0.87603  -0.87268  -0.87052  -0.84990
 Alpha  occ. eigenvalues --   -0.84930  -0.83947  -0.83766  -0.82957  -0.82859
 Alpha  occ. eigenvalues --   -0.82653  -0.82583  -0.81599  -0.81523  -0.80604
 Alpha  occ. eigenvalues --   -0.80368  -0.78797  -0.78559  -0.77226  -0.77066
 Alpha  occ. eigenvalues --   -0.76946  -0.76817  -0.75933  -0.75768  -0.74905
 Alpha  occ. eigenvalues --   -0.74701  -0.72782  -0.72612  -0.71679  -0.71496
 Alpha  occ. eigenvalues --   -0.69920  -0.69638  -0.68879  -0.68756  -0.67646
 Alpha  occ. eigenvalues --   -0.67522  -0.67224  -0.67137  -0.65297  -0.65202
 Alpha  occ. eigenvalues --   -0.64864  -0.64686  -0.64631  -0.64576  -0.64279
 Alpha  occ. eigenvalues --   -0.64099  -0.62313  -0.62202  -0.60441  -0.60261
 Alpha  occ. eigenvalues --   -0.59813  -0.59726  -0.58996  -0.58907  -0.58512
 Alpha  occ. eigenvalues --   -0.58342  -0.57598  -0.57480  -0.57315  -0.57147
 Alpha  occ. eigenvalues --   -0.56315  -0.56124  -0.55993  -0.55819  -0.55519
 Alpha  occ. eigenvalues --   -0.55384  -0.55351  -0.55150  -0.54538  -0.54394
 Alpha  occ. eigenvalues --   -0.53905  -0.53847  -0.53302  -0.53224  -0.53146
 Alpha  occ. eigenvalues --   -0.53070  -0.52926  -0.52828  -0.52750  -0.52609
 Alpha  occ. eigenvalues --   -0.52452  -0.52279  -0.51925  -0.51787  -0.51621
 Alpha  occ. eigenvalues --   -0.51595  -0.51207  -0.51117  -0.50558  -0.50411
 Alpha  occ. eigenvalues --   -0.50038  -0.49915  -0.49909  -0.49766  -0.49516
 Alpha  occ. eigenvalues --   -0.49421  -0.49220  -0.49132  -0.49104  -0.49030
 Alpha  occ. eigenvalues --   -0.48603  -0.48485  -0.48466  -0.48441  -0.48274
 Alpha  occ. eigenvalues --   -0.48272  -0.47699  -0.47518  -0.47299  -0.47038
 Alpha  occ. eigenvalues --   -0.46807  -0.46620  -0.46564  -0.46485  -0.46367
 Alpha  occ. eigenvalues --   -0.46183  -0.46173  -0.45992  -0.45834  -0.45739
 Alpha  occ. eigenvalues --   -0.45208  -0.45109  -0.44588  -0.44507  -0.44442
 Alpha  occ. eigenvalues --   -0.44397  -0.44152  -0.44095  -0.44055  -0.44022
 Alpha  occ. eigenvalues --   -0.43988  -0.43872  -0.43507  -0.43476  -0.43393
 Alpha  occ. eigenvalues --   -0.43307  -0.43035  -0.42860  -0.42818  -0.42714
 Alpha  occ. eigenvalues --   -0.42670  -0.42453  -0.42023  -0.41870  -0.41712
 Alpha  occ. eigenvalues --   -0.41588  -0.41542  -0.41382  -0.41148  -0.40909
 Alpha  occ. eigenvalues --   -0.40878  -0.40813  -0.40658  -0.40623  -0.40580
 Alpha  occ. eigenvalues --   -0.40387  -0.40243  -0.40169  -0.39456  -0.39306
 Alpha  occ. eigenvalues --   -0.38477  -0.38247  -0.37760  -0.37588  -0.37329
 Alpha  occ. eigenvalues --   -0.37274  -0.37169  -0.37126  -0.36731  -0.36698
 Alpha  occ. eigenvalues --   -0.36206  -0.36126  -0.34296  -0.34170  -0.33796
 Alpha  occ. eigenvalues --   -0.33794  -0.33196  -0.33093  -0.31330  -0.31209
 Alpha  occ. eigenvalues --   -0.31043  -0.30892  -0.30040  -0.29880  -0.29452
 Alpha  occ. eigenvalues --   -0.29330  -0.29252  -0.29130  -0.24090  -0.23953
 Alpha  occ. eigenvalues --   -0.21135  -0.21034
 Alpha virt. eigenvalues --   -0.08780  -0.08712  -0.01756  -0.01600  -0.00056
 Alpha virt. eigenvalues --    0.00040   0.02192   0.02290   0.03088   0.03304
 Alpha virt. eigenvalues --    0.04708   0.04804   0.05076   0.05230   0.06164

 Mulliken charges:
               1
     1  Mg   0.838270
     2  C   -0.003100
     3  C   -0.094071
     4  C   -0.045855
     5  C   -0.064033
     6  N   -0.256800
     7  C   -0.052584
     8  C   -0.013949
     9  C   -0.087029
    10  C    0.046327
    11  C    0.104788
    12  C    0.053450
    13  C   -0.071809
    14  H    0.036002
    15  N   -0.433228
    16  C    0.168458
    17  C   -0.177019
    18  C   -0.003834
    19  C    0.148713
    20  C    0.110148
    21  C    0.012485
    22  O   -0.249410
    23  C    0.062362
    24  N   -0.341089
    25  C    0.041219
    26  C   -0.028226
    27  C   -0.023954
    28  C    0.074672
    29  C    0.076126
    30  C    0.035166
    31  C   -0.004545
    32  N   -0.310392
    33  C    0.080142
    34  C   -0.169945
    35  C    0.008327
    36  C    0.082718
    37  C    0.127365
    38  C    0.045929
    39  O   -0.188495
    40  C   -0.005281
    41  C    0.212980
    42  O   -0.257541
    43  O   -0.304695
    44  C    0.157704
    45  H   -0.017493
    46  H   -0.016645
    47  H   -0.041526
    48  H    0.000966
    49  H   -0.003971
    50  H    0.025503
    51  H    0.016499
    52  H    0.016728
    53  H    0.011207
    54  H    0.043849
    55  H    0.017958
    56  H    0.018053
    57  H    0.005854
    58  H    0.026932
    59  H    0.039919
    60  H    0.037239
    61  H    0.036060
    62  H    0.031882
    63  H    0.016673
    64  H    0.009552
    65  H    0.023382
    66  H    0.012590
    67  H    0.004803
    68  H    0.006588
    69  H    0.004714
    70  H    0.009062
    71  H    0.017715
    72  H    0.028628
    73  H    0.047390
    74  H    0.009062
    75  H    0.046108
    76  H    0.035241
    77  H    0.043072
    78  H    0.046453
    79  H    0.053485
    80  Mg   0.837699
    81  C   -0.017001
    82  C   -0.087978
    83  C   -0.045561
    84  C   -0.064597
    85  N   -0.254564
    86  C   -0.049823
    87  C   -0.015095
    88  C   -0.090476
    89  C    0.045723
    90  C    0.114442
    91  C    0.062566
    92  C   -0.077794
    93  H    0.034750
    94  N   -0.423415
    95  C    0.162843
    96  C   -0.174869
    97  C   -0.007972
    98  C    0.152091
    99  C    0.099475
   100  C    0.015411
   101  O   -0.253285
   102  C    0.061240
   103  N   -0.350066
   104  C    0.037521
   105  C   -0.019946
   106  C   -0.035127
   107  C    0.088811
   108  C    0.073473
   109  C    0.034690
   110  C   -0.007727
   111  N   -0.324158
   112  C    0.078451
   113  C   -0.162898
   114  C    0.002214
   115  C    0.096300
   116  C    0.131463
   117  C    0.042440
   118  O   -0.187861
   119  C    0.000897
   120  C    0.211258
   121  O   -0.251059
   122  O   -0.305648
   123  C    0.152068
   124  H   -0.019978
   125  H   -0.015645
   126  H   -0.039598
   127  H   -0.000744
   128  H   -0.004509
   129  H    0.022444
   130  H    0.014401
   131  H    0.016027
   132  H    0.013887
   133  H    0.037683
   134  H    0.020717
   135  H    0.019480
   136  H    0.008602
   137  H    0.025781
   138  H    0.039582
   139  H    0.038000
   140  H    0.036151
   141  H    0.033887
   142  H    0.014380
   143  H    0.013745
   144  H    0.024985
   145  H    0.011028
   146  H    0.007019
   147  H    0.006970
   148  H    0.004375
   149  H    0.010799
   150  H    0.017819
   151  H    0.029673
   152  H    0.045956
   153  H    0.009193
   154  H    0.047247
   155  H    0.034949
   156  H    0.043846
   157  H    0.049395
   158  H    0.053546
 Sum of Mulliken charges =  -0.00000

 Dipole moment (field-independent basis, Debye):
    X=              1.1356    Y=              5.8826    Z=             -5.9123  Tot=              8.4172
 Quadrupole moment (field-independent basis, Debye-Ang):
   XX=           -438.7533   YY=           -552.8504   ZZ=           -472.2188
   XY=            -26.6117   XZ=             18.4711   YZ=            -11.3829

 Normal termination of Gaussian 16 at Sun Sep 12 08:28:52 2021.
