 Gaussian 16, Revision A.03,
 Gaussian 16:  ES64L-G16RevA.03 25-Dec-2016

 -----------------------------------
 #p cam-b3lyp/Def2SVP td=(nstates=5)
 -----------------------------------

 --------------------------------
 TDDFT excited states in gaussian
 --------------------------------
 Symbolic Z-matrix:
 Charge =  0 Multiplicity = 1

                         Standard orientation:
 ---------------------------------------------------------------------
 Center     Atomic      Atomic             Coordinates (Angstroms)
 Number     Number       Type             X           Y           Z
 ---------------------------------------------------------------------
      1         12           0       -7.854864   -0.677502    0.353139
      2          6           0       -8.053186    2.809506   -0.430223
      3          6           0       -8.850736   -1.301570   -2.850273
      4          6           0       -8.126311   -3.735316    1.148571
      5          6           0       -7.987841    0.221696    3.717573
      6          7           0       -8.356049    0.667187   -1.332469
      7          6           0       -8.334245    1.983001   -1.520425
      8          6           0       -8.564161    2.399043   -3.004144
      9          6           0       -9.347575    1.105735   -3.509727
     10          6           0       -8.793172    0.087212   -2.529332
     11          6           0      -10.858527    1.196445   -3.321844
     12          6           0       -7.219379    2.594762   -3.781952
     13          6           0       -7.342457    3.311436   -5.129759
     14          1           0       -6.272733    4.204738   -5.548149
     15          7           0       -7.930129   -2.294214   -0.779745
     16          6           0       -8.346290   -2.362301   -2.067169
     17          6           0       -8.213852   -3.780676   -2.463850
     18          6           0       -7.866962   -4.563479   -1.245253
     19          6           0       -7.987877   -3.553209   -0.225393
     20          6           0       -8.363200   -4.257529   -3.875960
     21          6           0       -7.497037   -5.997319   -1.032201
     22          8           0       -7.460968   -6.524713    0.131899
     23          6           0       -7.260977   -6.801985   -2.244567
     24          7           0       -8.252847   -1.644953    2.159594
     25          6           0       -8.256896   -2.979989    2.241126
     26          6           0       -8.281802   -3.439764    3.668685
     27          6           0       -8.047807   -2.134174    4.557749
     28          6           0       -8.008504   -1.080326    3.423671
     29          6           0       -9.568434   -4.142725    4.123038
     30          6           0       -6.874944   -2.173197    5.569326
     31          6           0       -5.558121   -2.216376    4.826890
     32          7           0       -7.817311    1.176014    1.481905
     33          6           0       -7.907033    1.317226    2.874271
     34          6           0       -7.947700    2.763156    3.160102
     35          6           0       -7.895180    3.366297    1.904989
     36          6           0       -7.852564    2.360505    0.897586
     37          6           0       -8.081741    3.354780    4.447133
     38          6           0       -7.890004    4.626223    1.179443
     39          8           0       -7.818085    5.812744    1.502691
     40          6           0       -8.115038    4.315362   -0.366051
     41          6           0       -7.087724    5.094959   -1.140753
     42          8           0       -5.873708    4.820895   -1.049001
     43          8           0       -7.706825    5.874764   -2.040285
     44          6           0       -6.742904    6.653515   -2.862817
     45          1           0       -9.380902   -1.613308   -3.752317
     46          1           0       -8.112273   -4.777682    1.473708
     47          1           0       -7.944030    0.578477    4.748224
     48          1           0       -9.184558    3.285593   -3.136666
     49          1           0       -9.074271    0.837360   -4.530021
     50          1           0      -11.136640    2.083023   -2.752147
     51          1           0      -11.139320    0.292648   -2.780736
     52          1           0      -11.372191    1.142569   -4.282064
     53          1           0       -6.855356    1.624650   -4.120228
     54          1           0       -6.487647    3.114717   -3.162645
     55          1           0       -8.311333    3.800633   -5.234042
     56          1           0       -7.332441    2.559308   -5.918683
     57          1           0       -8.780028   -3.482816   -4.518315
     58          1           0       -9.120556   -5.041157   -3.868985
     59          1           0       -7.429451   -4.652281   -4.276727
     60          1           0       -8.159937   -6.795752   -2.861318
     61          1           0       -6.920501   -7.776712   -1.896956
     62          1           0       -6.479174   -6.326285   -2.837393
     63          1           0       -7.481941   -4.152896    3.863853
     64          1           0       -8.918172   -1.894122    5.168907
     65          1           0       -9.403155   -5.144432    4.520495
     66          1           0      -10.256217   -4.165771    3.278222
     67          1           0      -10.151866   -3.594922    4.862588
     68          1           0       -6.929439   -3.074827    6.178456
     69          1           0       -6.860098   -1.317356    6.244283
     70          1           0       -5.438962   -3.276073    4.604013
     71          1           0       -4.749655   -1.858349    5.465176
     72          1           0       -5.620172   -1.688210    3.875220
     73          1           0       -7.374046    4.183170    4.477253
     74          1           0       -7.880054    2.632539    5.237888
     75          1           0       -9.126753    3.663094    4.419805
     76          1           0       -9.131271    4.628078   -0.603964
     77          1           0       -7.009884    7.705383   -2.760212
     78          1           0       -6.768146    6.220309   -3.862867
     79          1           0       -5.710694    6.667939   -2.511145
     80         12           0        8.016715   -0.819625   -0.219267
     81          6           0        7.885391    2.550339    1.007598
     82          6           0        7.042189    0.404322   -3.250250
     83          6           0        7.686288   -3.815282   -1.211369
     84          6           0        7.857674   -1.885096    3.095127
     85          7           0        7.554993    1.230951   -0.907896
     86          6           0        7.599302    2.440139   -0.369154
     87          6           0        7.400341    3.601962   -1.379184
     88          6           0        6.592246    2.800163   -2.511867
     89          6           0        7.117038    1.392549   -2.236396
     90          6           0        5.088497    2.800680   -2.292638
     91          6           0        8.761655    4.156247   -1.928371
     92          6           0        8.659051    5.486906   -2.677074
     93          1           0        9.754787    6.443735   -2.549294
     94          7           0        7.928098   -1.561157   -2.057969
     95          6           0        7.531100   -0.918492   -3.176293
     96          6           0        7.627944   -1.905142   -4.263171
     97          6           0        7.956968   -3.228575   -3.667369
     98          6           0        7.846989   -2.917099   -2.256345
     99          6           0        7.493862   -1.535627   -5.711932
    100          6           0        8.299721   -4.558081   -4.268312
    101          8           0        8.315750   -5.630325   -3.566270
    102          6           0        8.524648   -4.582494   -5.721004
    103          7           0        7.590148   -2.595140    0.774675
    104          6           0        7.556015   -3.766011    0.114493
    105          6           0        7.505023   -4.931544    1.073306
    106          6           0        7.757098   -4.306240    2.523495
    107          6           0        7.824395   -2.810181    2.145772
    108          6           0        6.200804   -5.728617    1.082750
    109          6           0        8.919095   -4.910808    3.358313
    110          6           0       10.244882   -4.585366    2.708884
    111          7           0        8.079294    0.124974    1.722871
    112          6           0        7.970629   -0.505316    2.981842
    113          6           0        7.952701    0.562086    4.002999
    114          6           0        8.029600    1.749719    3.259965
    115          6           0        8.070755    1.444811    1.872586
    116          6           0        7.825757    0.367761    5.407368
    117          6           0        8.074603    3.192386    3.333319
    118          8           0        8.156756    4.013665    4.245729
    119          6           0        7.855689    3.779719    1.872662
    120          6           0        8.904559    4.830817    1.632666
    121          8           0       10.107648    4.521355    1.573965
    122          8           0        8.301971    5.986119    1.297236
    123          6           0        9.301521    7.056533    1.038534
    124          1           0        6.522540    0.649935   -4.176807
    125          1           0        7.678428   -4.870602   -1.493696
    126          1           0        7.908753   -2.138986    4.156074
    127          1           0        6.803273    4.427321   -1.010309
    128          1           0        6.880012    3.126230   -3.507982
    129          1           0        4.819780    3.241385   -1.344107
    130          1           0        4.785911    1.762259   -2.326623
    131          1           0        4.585316    3.288839   -3.132188
    132          1           0        9.109343    3.508429   -2.743356
    133          1           0        9.484677    4.239780   -1.140411
    134          1           0        7.694999    5.981798   -2.507871
    135          1           0        8.670850    5.282919   -3.750513
    136          1           0        7.090545   -0.522672   -5.833042
    137          1           0        6.723605   -2.187431   -6.138224
    138          1           0        8.422492   -1.674313   -6.269692
    139          1           0        7.634333   -4.221507   -6.230406
    140          1           0        8.845087   -5.600700   -5.950028
    141          1           0        9.331269   -3.881130   -5.961969
    142          1           0        8.290656   -5.645022    0.856855
    143          1           0        6.880487   -4.426239    3.176942
    144          1           0        6.345404   -6.804743    0.870349
    145          1           0        5.525252   -5.286309    0.362656
    146          1           0        5.627724   -5.665566    2.006220
    147          1           0        8.843085   -6.000725    3.379438
    148          1           0        8.934617   -4.569051    4.387852
    149          1           0       10.341955   -5.361390    1.943731
    150          1           0       11.052355   -4.644682    3.435867
    151          1           0       10.204197   -3.618319    2.194279
    152          1           0        8.540380    1.029077    5.879031
    153          1           0        8.001460   -0.670090    5.682615
    154          1           0        6.781957    0.659484    5.551063
    155          1           0        6.846617    4.191775    1.833100
    156          1           0        9.048723    7.895087    1.694752
    157          1           0        9.265867    7.241451   -0.051548
    158          1           0       10.328150    6.864013    1.327336
 ---------------------------------------------------------------------

 SCF Done:  E(RCAM-B3LYP) =  -4069.81175814     A.U. after   19 cycles

 Excitation energies and oscillator strengths:

 Excited State   1:      Singlet-A      1.6709 eV  742.03 nm  f=0.0725  <S**2>=0.000
     309 -> 315       -0.10004
     310 -> 316        0.14068
     311 -> 313       -0.39612
     312 -> 314        0.56046
 This state for optimization and/or second-order correction.
 Total Energy, E(TD-HF/TD-DFT) =  -4069.75035424
 Copying the excited state density for this state as the 1-particle RhoCI density.

 Excited State   2:      Singlet-A      1.6841 eV  736.22 nm  f=0.6827  <S**2>=0.000
     309 -> 315        0.14434
     310 -> 316        0.10126
     311 -> 313        0.55971
     312 -> 314        0.39565

 Excited State   3:      Singlet-A      2.1852 eV  567.38 nm  f=0.0685  <S**2>=0.000
     309 -> 313       -0.12241
     310 -> 314        0.63101
     312 -> 316       -0.26737

 Excited State   4:      Singlet-A      2.1930 eV  565.35 nm  f=0.1262  <S**2>=0.000
     309 -> 313        0.62896
     310 -> 314        0.12144
     311 -> 315       -0.27356

 Excited State   5:      Singlet-A      2.7641 eV  448.55 nm  f=0.0000  <S**2>=0.000
     312 -> 313        0.70710

 The electronic state is 1-A.
 Alpha  occ. eigenvalues --  -46.87837 -46.87586 -19.26350 -19.26255 -19.19083
 Alpha  occ. eigenvalues --  -19.19073 -19.18849 -19.18663 -19.18208 -19.17967
 Alpha  occ. eigenvalues --  -14.42493 -14.42419 -14.41488 -14.41286 -14.39443
 Alpha  occ. eigenvalues --  -14.39280 -14.38626 -14.38524 -10.39141 -10.39001
 Alpha  occ. eigenvalues --  -10.35482 -10.35342 -10.34430 -10.34143 -10.31755
 Alpha  occ. eigenvalues --  -10.31662 -10.31448 -10.31225 -10.30955 -10.30945
 Alpha  occ. eigenvalues --  -10.30609 -10.30545 -10.30325 -10.30284 -10.30243
 Alpha  occ. eigenvalues --  -10.30074 -10.29956 -10.29821 -10.29668 -10.29368
 Alpha  occ. eigenvalues --  -10.29331 -10.29292 -10.28807 -10.28626 -10.28625
 Alpha  occ. eigenvalues --  -10.28571 -10.28406 -10.28329 -10.28169 -10.28041
 Alpha  occ. eigenvalues --  -10.27928 -10.27830 -10.27769 -10.27622 -10.27592
 Alpha  occ. eigenvalues --  -10.27528 -10.27523 -10.27478 -10.27456 -10.27446
 Alpha  occ. eigenvalues --  -10.27418 -10.27406 -10.27399 -10.27313 -10.27206
 Alpha  occ. eigenvalues --  -10.26958 -10.26781 -10.26609 -10.26442 -10.26382
 Alpha  occ. eigenvalues --  -10.26281 -10.26206 -10.26084 -10.26055 -10.25894
 Alpha  occ. eigenvalues --  -10.25865 -10.25863 -10.25776 -10.25460 -10.25334
 Alpha  occ. eigenvalues --  -10.24870 -10.24825 -10.24797 -10.24711 -10.24681
 Alpha  occ. eigenvalues --  -10.24618  -3.16580  -3.16336  -1.91461  -1.91218
 Alpha  occ. eigenvalues --   -1.91048  -1.90890  -1.90806  -1.90643  -1.16698
 Alpha  occ. eigenvalues --   -1.16550  -1.08667  -1.08572  -1.07250  -1.06917
 Alpha  occ. eigenvalues --   -1.06856  -1.06705  -1.04624  -1.04416  -1.03799
 Alpha  occ. eigenvalues --   -1.03589  -1.03272  -1.02966  -1.02450  -1.02037
 Alpha  occ. eigenvalues --   -0.92015  -0.91907  -0.89553  -0.89426  -0.89242
 Alpha  occ. eigenvalues --   -0.89058  -0.88320  -0.88154  -0.87904  -0.87719
 Alpha  occ. eigenvalues --   -0.87717  -0.87608  -0.87312  -0.87062  -0.85034
 Alpha  occ. eigenvalues --   -0.84916  -0.83969  -0.83811  -0.83002  -0.82879
 Alpha  occ. eigenvalues --   -0.82697  -0.82575  -0.81637  -0.81514  -0.80642
 Alpha  occ. eigenvalues --   -0.80366  -0.78835  -0.78570  -0.77260  -0.77068
 Alpha  occ. eigenvalues --   -0.76985  -0.76817  -0.75972  -0.75751  -0.74933
 Alpha  occ. eigenvalues --   -0.74732  -0.72812  -0.72625  -0.71713  -0.71500
 Alpha  occ. eigenvalues --   -0.69937  -0.69695  -0.68922  -0.68747  -0.67682
 Alpha  occ. eigenvalues --   -0.67529  -0.67275  -0.67127  -0.65338  -0.65187
 Alpha  occ. eigenvalues --   -0.64897  -0.64694  -0.64666  -0.64574  -0.64304
 Alpha  occ. eigenvalues --   -0.64135  -0.62350  -0.62196  -0.60479  -0.60277
 Alpha  occ. eigenvalues --   -0.59853  -0.59710  -0.59028  -0.58917  -0.58544
 Alpha  occ. eigenvalues --   -0.58350  -0.57632  -0.57469  -0.57347  -0.57167
 Alpha  occ. eigenvalues --   -0.56349  -0.56132  -0.56037  -0.55803  -0.55560
 Alpha  occ. eigenvalues --   -0.55382  -0.55378  -0.55175  -0.54568  -0.54413
 Alpha  occ. eigenvalues --   -0.53949  -0.53823  -0.53337  -0.53269  -0.53159
 Alpha  occ. eigenvalues --   -0.53066  -0.52962  -0.52824  -0.52799  -0.52606
 Alpha  occ. eigenvalues --   -0.52468  -0.52341  -0.51945  -0.51809  -0.51668
 Alpha  occ. eigenvalues --   -0.51581  -0.51237  -0.51124  -0.50609  -0.50423
 Alpha  occ. eigenvalues --   -0.50065  -0.49958  -0.49905  -0.49803  -0.49560
 Alpha  occ. eigenvalues --   -0.49417  -0.49256  -0.49144  -0.49124  -0.49015
 Alpha  occ. eigenvalues --   -0.48638  -0.48495  -0.48486  -0.48475  -0.48308
 Alpha  occ. eigenvalues --   -0.48276  -0.47738  -0.47521  -0.47337  -0.47051
 Alpha  occ. eigenvalues --   -0.46837  -0.46635  -0.46609  -0.46471  -0.46398
 Alpha  occ. eigenvalues --   -0.46201  -0.46201  -0.46011  -0.45865  -0.45740
 Alpha  occ. eigenvalues --   -0.45235  -0.45140  -0.44620  -0.44549  -0.44435
 Alpha  occ. eigenvalues --   -0.44397  -0.44183  -0.44137  -0.44062  -0.44044
 Alpha  occ. eigenvalues --   -0.44013  -0.43870  -0.43542  -0.43472  -0.43430
 Alpha  occ. eigenvalues --   -0.43306  -0.43068  -0.42849  -0.42819  -0.42752
 Alpha  occ. eigenvalues --   -0.42693  -0.42490  -0.42049  -0.41893  -0.41745
 Alpha  occ. eigenvalues --   -0.41589  -0.41586  -0.41380  -0.41183  -0.40917
 Alpha  occ. eigenvalues --   -0.40907  -0.40864  -0.40659  -0.40623  -0.40607
 Alpha  occ. eigenvalues --   -0.40422  -0.40299  -0.40147  -0.39470  -0.39365
 Alpha  occ. eigenvalues --   -0.38506  -0.38281  -0.37810  -0.37574  -0.37357
 Alpha  occ. eigenvalues --   -0.37315  -0.37195  -0.37119  -0.36767  -0.36686
 Alpha  occ. eigenvalues --   -0.36239  -0.36141  -0.34326  -0.34178  -0.33830
 Alpha  occ. eigenvalues --   -0.33777  -0.33227  -0.33101  -0.31379  -0.31221
 Alpha  occ. eigenvalues --   -0.31076  -0.30898  -0.30069  -0.29870  -0.29487
 Alpha  occ. eigenvalues --   -0.29359  -0.29260  -0.29137  -0.24121  -0.23960
 Alpha  occ. eigenvalues --   -0.21167  -0.21043
 Alpha virt. eigenvalues --   -0.08813  -0.08720  -0.01788  -0.01612  -0.00097
 Alpha virt. eigenvalues --    0.00038   0.02163   0.02284   0.03074   0.03294
 Alpha virt. eigenvalues --    0.04668   0.04811   0.05039   0.05254   0.06108

 Mulliken charges:
               1
     1  Mg   0.838593
     2  C   -0.003097
     3  C   -0.094275
     4  C   -0.045801
     5  C   -0.063827
     6  N   -0.256778
     7  C   -0.052527
     8  C   -0.014012
     9  C   -0.086979
    10  C    0.046246
    11  C    0.104803
    12  C    0.053549
    13  C   -0.071583
    14  H    0.035442
    15  N   -0.433139
    16  C    0.168362
    17  C   -0.177211
    18  C   -0.003966
    19  C    0.148669
    20  C    0.110185
    21  C    0.012294
    22  O   -0.249528
    23  C    0.062483
    24  N   -0.341096
    25  C    0.041229
    26  C   -0.028204
    27  C   -0.024016
    28  C    0.074820
    29  C    0.076148
    30  C    0.035104
    31  C   -0.004537
    32  N   -0.310503
    33  C    0.080388
    34  C   -0.169546
    35  C    0.008387
    36  C    0.082982
    37  C    0.127279
    38  C    0.046155
    39  O   -0.188322
    40  C   -0.005372
    41  C    0.212935
    42  O   -0.257347
    43  O   -0.304702
    44  C    0.157772
    45  H   -0.017632
    46  H   -0.016747
    47  H   -0.041282
    48  H    0.000969
    49  H   -0.004200
    50  H    0.025528
    51  H    0.016566
    52  H    0.016646
    53  H    0.011022
    54  H    0.043916
    55  H    0.018080
    56  H    0.017856
    57  H    0.005768
    58  H    0.026917
    59  H    0.039429
    60  H    0.037361
    61  H    0.035795
    62  H    0.031413
    63  H    0.016583
    64  H    0.009578
    65  H    0.023285
    66  H    0.012546
    67  H    0.004847
    68  H    0.006450
    69  H    0.004916
    70  H    0.008716
    71  H    0.018310
    72  H    0.028867
    73  H    0.047767
    74  H    0.009294
    75  H    0.046079
    76  H    0.035214
    77  H    0.043064
    78  H    0.046218
    79  H    0.053402
    80  Mg   0.837919
    81  C   -0.016746
    82  C   -0.087760
    83  C   -0.045605
    84  C   -0.064863
    85  N   -0.254597
    86  C   -0.049559
    87  C   -0.015150
    88  C   -0.090557
    89  C    0.045850
    90  C    0.114352
    91  C    0.062525
    92  C   -0.077835
    93  H    0.034662
    94  N   -0.423474
    95  C    0.162886
    96  C   -0.174743
    97  C   -0.008005
    98  C    0.152141
    99  C    0.099444
   100  C    0.015412
   101  O   -0.253371
   102  C    0.061263
   103  N   -0.350038
   104  C    0.037540
   105  C   -0.019829
   106  C   -0.034819
   107  C    0.088994
   108  C    0.073663
   109  C    0.034763
   110  C   -0.007639
   111  N   -0.324154
   112  C    0.078571
   113  C   -0.163082
   114  C    0.002436
   115  C    0.096206
   116  C    0.131451
   117  C    0.042520
   118  O   -0.187641
   119  C    0.000856
   120  C    0.211206
   121  O   -0.251254
   122  O   -0.305357
   123  C    0.152087
   124  H   -0.019746
   125  H   -0.015781
   126  H   -0.040531
   127  H   -0.000132
   128  H   -0.004586
   129  H    0.023343
   130  H    0.014464
   131  H    0.016449
   132  H    0.013702
   133  H    0.037579
   134  H    0.021152
   135  H    0.019391
   136  H    0.008706
   137  H    0.025768
   138  H    0.039553
   139  H    0.038022
   140  H    0.036134
   141  H    0.033853
   142  H    0.014222
   143  H    0.012487
   144  H    0.024935
   145  H    0.011729
   146  H    0.005784
   147  H    0.006143
   148  H    0.003605
   149  H    0.010835
   150  H    0.017802
   151  H    0.030167
   152  H    0.045938
   153  H    0.008345
   154  H    0.047292
   155  H    0.035797
   156  H    0.044076
   157  H    0.049464
   158  H    0.053369
 Sum of Mulliken charges =  -0.00000

 Dipole moment (field-independent basis, Debye):
    X=             -4.3372    Y=             -2.2589    Z=             -7.1602  Tot=              8.6708
 Quadrupole moment (field-independent basis, Debye-Ang):
   XX=           -517.5416   YY=           -543.4494   ZZ=           -455.7545
   XY=             11.7610   XZ=             -3.0856   YZ=            -41.1150

 Normal termination of Gaussian 16 at Sat Sep  4 15:16:03 2021.
