 Gaussian 16, Revision A.03,
 Gaussian 16:  ES64L-G16RevA.03 25-Dec-2016

 -----------------------------------
 #p cam-b3lyp/Def2SVP td=(nstates=5)
 -----------------------------------

 --------------------------------
 TDDFT excited states in gaussian
 --------------------------------
 Symbolic Z-matrix:
 Charge =  0 Multiplicity = 1

                         Standard orientation:
 ---------------------------------------------------------------------
 Center     Atomic      Atomic             Coordinates (Angstroms)
 Number     Number       Type             X           Y           Z
 ---------------------------------------------------------------------
      1         12           0        6.458167   -1.014490    0.190987
      2          6           0        7.115453    2.140642   -1.366360
      3          6           0        7.603198    0.351409    3.100677
      4          6           0        6.315153   -3.908838    1.478977
      5          6           0        6.451716   -2.420355   -2.997925
      6          7           0        7.232068    1.001329    0.679043
      7          6           0        7.376601    2.138360    0.005661
      8          6           0        7.759534    3.347704    0.910217
      9          6           0        8.422069    2.554267    2.124097
     10          6           0        7.684093    1.234607    1.983337
     11          6           0        9.915851    2.303226    1.944940
     12          6           0        6.506093    4.163037    1.374814
     13          6           0        6.808257    5.535226    1.984033
     14          1           0        5.882292    6.630241    1.737295
     15          7           0        6.426888   -1.573610    2.085520
     16          6           0        6.924035   -0.885506    3.141287
     17          6           0        6.656943   -1.718931    4.333237
     18          6           0        6.134706   -3.031913    3.862662
     19          6           0        6.298148   -2.898445    2.437583
     20          6           0        6.851359   -1.233596    5.736947
     21          6           0        5.586618   -4.222655    4.583679
     22          8           0        5.405837   -5.346492    4.001542
     23          6           0        5.346826   -4.062289    6.029301
     24          7           0        6.610052   -2.935285   -0.612200
     25          6           0        6.453371   -4.018875    0.156089
     26          6           0        6.321850   -5.261819   -0.673207
     27          6           0        6.177377   -4.770831   -2.185759
     28          6           0        6.342377   -3.248191   -1.956387
     29          6           0        7.482172   -6.261296   -0.569719
     30          6           0        4.938073   -5.268374   -2.971249
     31          6           0        3.682078   -4.663505   -2.384983
     32          7           0        6.554563   -0.274782   -1.847293
     33          6           0        6.559479   -1.039901   -3.022556
     34          6           0        6.746843   -0.104080   -4.146478
     35          6           0        6.855207    1.146710   -3.541807
     36          6           0        6.768953    0.998376   -2.128000
     37          6           0        6.855486   -0.461621   -5.519357
     38          6           0        7.048472    2.571142   -3.759747
     39          8           0        7.091526    3.298424   -4.753075
     40          6           0        7.346726    3.257192   -2.353970
     41          6           0        6.475267    4.479147   -2.250566
     42          8           0        5.234225    4.374965   -2.171023
     43          8           0        7.243824    5.555334   -2.023228
     44          6           0        6.438512    6.797656   -1.880878
     45          1           0        8.157255    0.596976    4.008783
     46          1           0        6.156939   -4.914459    1.874112
     47          1           0        6.375415   -2.776663   -4.026845
     48          1           0        8.486479    4.031331    0.471322
     49          1           0        8.193730    3.015533    3.084730
     50          1           0       10.253115    2.598459    0.951456
     51          1           0       10.050212    1.231071    2.089588
     52          1           0       10.487656    2.786493    2.737574
     53          1           0        6.057359    3.671545    2.238025
     54          1           0        5.796879    4.280913    0.554785
     55          1           0        7.832305    5.846795    1.776282
     56          1           0        6.767968    5.443378    3.069455
     57          1           0        7.400414   -0.293171    5.763118
     58          1           0        7.510247   -1.946680    6.232009
     59          1           0        5.909457   -1.164147    6.281310
     60          1           0        6.282536   -3.797451    6.522106
     61          1           0        4.871454   -4.985253    6.359465
     62          1           0        4.670230   -3.221284    6.183825
     63          1           0        5.432716   -5.825778   -0.394251
     64          1           0        7.023386   -5.081612   -2.799240
     65          1           0        7.173637   -7.259747   -0.258902
     66          1           0        8.221723   -5.849251    0.116264
     67          1           0        8.070371   -6.374652   -1.479988
     68          1           0        4.843604   -6.350291   -2.884775
     69          1           0        4.973971   -5.022371   -4.032590
     70          1           0        3.457209   -5.328941   -1.552240
     71          1           0        2.876702   -4.672217   -3.120174
     72          1           0        3.873377   -3.674133   -1.969012
     73          1           0        6.248311    0.256380   -6.070521
     74          1           0        6.514948   -1.482524   -5.690807
     75          1           0        7.928435   -0.347926   -5.673333
     76          1           0        8.406851    3.508591   -2.346493
     77          1           0        6.817577    7.511470   -2.612324
     78          1           0        6.485350    7.078423   -0.828556
     79          1           0        5.392297    6.731003   -2.181429
     80         12           0       -6.625918    0.976744    0.416042
     81          6           0       -6.950588   -2.385717   -0.795363
     82          6           0       -5.660281    1.859554   -2.734001
     83          6           0       -5.898414    3.848971    1.551144
     84          6           0       -6.499207   -0.344177    3.638595
     85          7           0       -6.376967   -0.200614   -1.439798
     86          6           0       -6.588798   -1.458870   -1.795113
     87          6           0       -6.480606   -1.723285   -3.320869
     88          6           0       -5.531082   -0.488704   -3.712139
     89          6           0       -5.898832    0.470306   -2.581754
     90          6           0       -4.049913   -0.810372   -3.602708
     91          6           0       -7.870261   -1.630698   -4.043565
     92          6           0       -7.889869   -2.178538   -5.472279
     93          1           0       -9.095485   -2.855866   -5.941529
     94          7           0       -6.363817    2.702338   -0.528504
     95          6           0       -5.992901    2.878138   -1.814122
     96          6           0       -5.921395    4.333463   -2.016812
     97          6           0       -6.120006    5.000588   -0.701438
     98          6           0       -6.114262    3.850891    0.180758
     99          6           0       -5.763496    4.959486   -3.372025
    100          6           0       -6.274989    6.436791   -0.302065
    101          8           0       -6.197738    6.807260    0.922524
    102          6           0       -6.426595    7.408456   -1.394938
    103          7           0       -6.040594    1.642928    2.296446
    104          6           0       -5.837632    2.950650    2.534322
    105          6           0       -5.695046    3.220357    4.013280
    106          6           0       -6.087233    1.850584    4.739557
    107          6           0       -6.312385    0.960933    3.497297
    108          6           0       -4.307922    3.663465    4.477973
    109          6           0       -7.208052    1.918859    5.812772
    110          6           0       -8.530787    2.245202    5.157570
    111          7           0       -6.891006   -0.972457    1.309569
    112          6           0       -6.768440   -1.308377    2.675667
    113          6           0       -6.924628   -2.773726    2.779396
    114          6           0       -7.105712   -3.194668    1.453305
    115          6           0       -7.045085   -2.073347    0.582409
    116          6           0       -6.842158   -3.536307    3.978485
    117          6           0       -7.323767   -4.333884    0.591144
    118          8           0       -7.545094   -5.530543    0.772160
    119          6           0       -7.106815   -3.876290   -0.915485
    120          6           0       -8.259683   -4.396585   -1.729547
    121          8           0       -9.413807   -3.978420   -1.530193
    122          8           0       -7.782205   -5.134745   -2.748125
    123          6           0       -8.887555   -5.663789   -3.590826
    124          1           0       -5.130003    2.200484   -3.623637
    125          1           0       -5.752963    4.831104    2.006930
    126          1           0       -6.570089   -0.821029    4.618525
    127          1           0       -6.003011   -2.658604   -3.587063
    128          1           0       -5.807887   -0.067190   -4.674978
    129          1           0       -3.880092   -1.782786   -3.164855
    130          1           0       -3.625841   -0.034980   -2.978232
    131          1           0       -3.568650   -0.707507   -4.579505
    132          1           0       -8.100330   -0.576263   -4.243493
    133          1           0       -8.634501   -2.109228   -3.462547
    134          1           0       -6.999903   -2.779411   -5.695589
    135          1           0       -7.826835   -1.337681   -6.167259
    136          1           0       -5.477051    4.217102   -4.127148
    137          1           0       -4.902555    5.634238   -3.314202
    138          1           0       -6.641926    5.532661   -3.676169
    139          1           0       -5.561941    7.350935   -2.051849
    140          1           0       -6.613691    8.368003   -0.908987
    141          1           0       -7.297940    7.125680   -1.996117
    142          1           0       -6.380045    3.996142    4.332710
    143          1           0       -5.234451    1.419567    5.284373
    144          1           0       -4.314556    4.635265    5.006791
    145          1           0       -3.655919    3.704284    3.615561
    146          1           0       -3.790524    2.957687    5.125574
    147          1           0       -7.005263    2.725674    6.521347
    148          1           0       -7.312347    1.004434    6.387170
    149          1           0       -8.499511    3.335194    5.067956
    150          1           0       -9.359080    1.924450    5.786129
    151          1           0       -8.580040    1.832336    4.143290
    152          1           0       -7.651192   -4.253940    3.947331
    153          1           0       -6.907189   -2.900700    4.859131
    154          1           0       -5.847953   -3.975921    3.862046
    155          1           0       -6.152578   -4.286475   -1.248269
    156          1           0       -8.766580   -6.750730   -3.630970
    157          1           0       -8.822477   -5.114011   -4.548560
    158          1           0       -9.896847   -5.577415   -3.205715
 ---------------------------------------------------------------------

 SCF Done:  E(RCAM-B3LYP) =  -4069.81192060     A.U. after   19 cycles

 Excitation energies and oscillator strengths:

 Excited State   1:      Singlet-A      1.6688 eV  742.95 nm  f=0.1246  <S**2>=0.000
     309 -> 315        0.10650
     310 -> 316        0.13519
     311 -> 313        0.42277
     312 -> 314        0.54071
 This state for optimization and/or second-order correction.
 Total Energy, E(TD-HF/TD-DFT) =  -4069.75059292
 Copying the excited state density for this state as the 1-particle RhoCI density.

 Excited State   2:      Singlet-A      1.6861 eV  735.34 nm  f=0.6117  <S**2>=0.000
     309 -> 315        0.13953
     310 -> 316       -0.10860
     311 -> 313        0.53985
     312 -> 314       -0.42221

 Excited State   3:      Singlet-A      2.1860 eV  567.18 nm  f=0.0703  <S**2>=0.000
     309 -> 313        0.14574
     310 -> 314        0.62597
     312 -> 316       -0.26557

 Excited State   4:      Singlet-A      2.1931 eV  565.33 nm  f=0.1240  <S**2>=0.000
     309 -> 313        0.62409
     310 -> 314       -0.14456
     311 -> 315       -0.27122

 Excited State   5:      Singlet-A      2.6478 eV  468.26 nm  f=0.0000  <S**2>=0.000
     312 -> 313        0.70710

 The electronic state is 1-A.
 Alpha  occ. eigenvalues --  -46.87856 -46.87550 -19.26362 -19.26267 -19.19104
 Alpha  occ. eigenvalues --  -19.19074 -19.18854 -19.18607 -19.18246 -19.17949
 Alpha  occ. eigenvalues --  -14.42508 -14.42383 -14.41508 -14.41255 -14.39461
 Alpha  occ. eigenvalues --  -14.39240 -14.38651 -14.38492 -10.39161 -10.39003
 Alpha  occ. eigenvalues --  -10.35486 -10.35283 -10.34465 -10.34127 -10.31755
 Alpha  occ. eigenvalues --  -10.31682 -10.31468 -10.31191 -10.30963 -10.30903
 Alpha  occ. eigenvalues --  -10.30635 -10.30569 -10.30295 -10.30260 -10.30250
 Alpha  occ. eigenvalues --  -10.30038 -10.29981 -10.29802 -10.29693 -10.29322
 Alpha  occ. eigenvalues --  -10.29311 -10.29293 -10.28800 -10.28597 -10.28578
 Alpha  occ. eigenvalues --  -10.28553 -10.28425 -10.28290 -10.28168 -10.28002
 Alpha  occ. eigenvalues --  -10.27889 -10.27857 -10.27785 -10.27642 -10.27555
 Alpha  occ. eigenvalues --  -10.27544 -10.27528 -10.27496 -10.27464 -10.27451
 Alpha  occ. eigenvalues --  -10.27374 -10.27354 -10.27311 -10.27309 -10.27229
 Alpha  occ. eigenvalues --  -10.26950 -10.26753 -10.26584 -10.26438 -10.26299
 Alpha  occ. eigenvalues --  -10.26282 -10.26245 -10.26090 -10.26081 -10.25934
 Alpha  occ. eigenvalues --  -10.25851 -10.25834 -10.25764 -10.25472 -10.25345
 Alpha  occ. eigenvalues --  -10.24899 -10.24844 -10.24763 -10.24757 -10.24681
 Alpha  occ. eigenvalues --  -10.24587  -3.16599  -3.16300  -1.91481  -1.91182
 Alpha  occ. eigenvalues --   -1.91067  -1.90910  -1.90771  -1.90608  -1.16712
 Alpha  occ. eigenvalues --   -1.16560  -1.08706  -1.08559  -1.07254  -1.06860
 Alpha  occ. eigenvalues --   -1.06859  -1.06725  -1.04639  -1.04380  -1.03818
 Alpha  occ. eigenvalues --   -1.03554  -1.03295  -1.02934  -1.02471  -1.02004
 Alpha  occ. eigenvalues --   -0.92036  -0.91880  -0.89579  -0.89406  -0.89241
 Alpha  occ. eigenvalues --   -0.89025  -0.88342  -0.88140  -0.87942  -0.87730
 Alpha  occ. eigenvalues --   -0.87691  -0.87572  -0.87325  -0.86998  -0.85035
 Alpha  occ. eigenvalues --   -0.84884  -0.83994  -0.83802  -0.83012  -0.82824
 Alpha  occ. eigenvalues --   -0.82702  -0.82539  -0.81653  -0.81501  -0.80657
 Alpha  occ. eigenvalues --   -0.80340  -0.78855  -0.78519  -0.77276  -0.77036
 Alpha  occ. eigenvalues --   -0.76992  -0.76800  -0.75983  -0.75723  -0.74952
 Alpha  occ. eigenvalues --   -0.74719  -0.72837  -0.72593  -0.71729  -0.71475
 Alpha  occ. eigenvalues --   -0.69966  -0.69687  -0.68927  -0.68714  -0.67700
 Alpha  occ. eigenvalues --   -0.67498  -0.67268  -0.67089  -0.65343  -0.65160
 Alpha  occ. eigenvalues --   -0.64916  -0.64680  -0.64668  -0.64551  -0.64327
 Alpha  occ. eigenvalues --   -0.64118  -0.62367  -0.62187  -0.60494  -0.60231
 Alpha  occ. eigenvalues --   -0.59860  -0.59676  -0.59048  -0.58890  -0.58565
 Alpha  occ. eigenvalues --   -0.58324  -0.57656  -0.57456  -0.57368  -0.57141
 Alpha  occ. eigenvalues --   -0.56372  -0.56095  -0.56046  -0.55789  -0.55574
 Alpha  occ. eigenvalues --   -0.55402  -0.55344  -0.55166  -0.54589  -0.54408
 Alpha  occ. eigenvalues --   -0.53948  -0.53790  -0.53357  -0.53276  -0.53126
 Alpha  occ. eigenvalues --   -0.53033  -0.52979  -0.52803  -0.52799  -0.52543
 Alpha  occ. eigenvalues --   -0.52500  -0.52335  -0.51994  -0.51791  -0.51670
 Alpha  occ. eigenvalues --   -0.51542  -0.51261  -0.51103  -0.50616  -0.50354
 Alpha  occ. eigenvalues --   -0.50085  -0.49967  -0.49866  -0.49774  -0.49567
 Alpha  occ. eigenvalues --   -0.49373  -0.49277  -0.49153  -0.49088  -0.48990
 Alpha  occ. eigenvalues --   -0.48657  -0.48517  -0.48497  -0.48450  -0.48295
 Alpha  occ. eigenvalues --   -0.48228  -0.47750  -0.47485  -0.47351  -0.47009
 Alpha  occ. eigenvalues --   -0.46857  -0.46609  -0.46608  -0.46438  -0.46420
 Alpha  occ. eigenvalues --   -0.46227  -0.46167  -0.45995  -0.45893  -0.45728
 Alpha  occ. eigenvalues --   -0.45254  -0.45124  -0.44646  -0.44556  -0.44416
 Alpha  occ. eigenvalues --   -0.44362  -0.44203  -0.44142  -0.44078  -0.44016
 Alpha  occ. eigenvalues --   -0.43983  -0.43828  -0.43564  -0.43463  -0.43439
 Alpha  occ. eigenvalues --   -0.43280  -0.43088  -0.42839  -0.42804  -0.42768
 Alpha  occ. eigenvalues --   -0.42718  -0.42466  -0.42070  -0.41876  -0.41766
 Alpha  occ. eigenvalues --   -0.41586  -0.41566  -0.41353  -0.41196  -0.40922
 Alpha  occ. eigenvalues --   -0.40878  -0.40865  -0.40627  -0.40615  -0.40591
 Alpha  occ. eigenvalues --   -0.40406  -0.40281  -0.40116  -0.39500  -0.39357
 Alpha  occ. eigenvalues --   -0.38522  -0.38267  -0.37799  -0.37546  -0.37377
 Alpha  occ. eigenvalues --   -0.37319  -0.37173  -0.37085  -0.36785  -0.36687
 Alpha  occ. eigenvalues --   -0.36256  -0.36126  -0.34347  -0.34147  -0.33850
 Alpha  occ. eigenvalues --   -0.33771  -0.33248  -0.33068  -0.31384  -0.31167
 Alpha  occ. eigenvalues --   -0.31094  -0.30865  -0.30106  -0.29855  -0.29508
 Alpha  occ. eigenvalues --   -0.29388  -0.29213  -0.29103  -0.24141  -0.23927
 Alpha  occ. eigenvalues --   -0.21188  -0.21007
 Alpha virt. eigenvalues --   -0.08834  -0.08680  -0.01806  -0.01577  -0.00110
 Alpha virt. eigenvalues --    0.00087   0.02132   0.02308   0.03052   0.03323
 Alpha virt. eigenvalues --    0.04663   0.04844   0.05019   0.05255   0.06129

 Mulliken charges:
               1
     1  Mg   0.838516
     2  C   -0.003039
     3  C   -0.094055
     4  C   -0.045766
     5  C   -0.064080
     6  N   -0.256797
     7  C   -0.052480
     8  C   -0.014004
     9  C   -0.087030
    10  C    0.046382
    11  C    0.104779
    12  C    0.053441
    13  C   -0.071973
    14  H    0.036405
    15  N   -0.433183
    16  C    0.168547
    17  C   -0.177057
    18  C   -0.003825
    19  C    0.148800
    20  C    0.110155
    21  C    0.012450
    22  O   -0.249169
    23  C    0.062410
    24  N   -0.341105
    25  C    0.041274
    26  C   -0.028306
    27  C   -0.023927
    28  C    0.074757
    29  C    0.076084
    30  C    0.035140
    31  C   -0.004488
    32  N   -0.310333
    33  C    0.080173
    34  C   -0.170217
    35  C    0.008184
    36  C    0.082748
    37  C    0.127452
    38  C    0.045753
    39  O   -0.188916
    40  C   -0.005186
    41  C    0.212821
    42  O   -0.257518
    43  O   -0.304669
    44  C    0.157792
    45  H   -0.017415
    46  H   -0.016503
    47  H   -0.041736
    48  H    0.000940
    49  H   -0.003887
    50  H    0.025482
    51  H    0.016492
    52  H    0.016826
    53  H    0.011266
    54  H    0.043951
    55  H    0.017883
    56  H    0.018116
    57  H    0.005969
    58  H    0.027063
    59  H    0.039641
    60  H    0.037391
    61  H    0.036081
    62  H    0.031402
    63  H    0.016889
    64  H    0.009496
    65  H    0.023575
    66  H    0.012598
    67  H    0.004791
    68  H    0.006759
    69  H    0.004336
    70  H    0.009478
    71  H    0.017388
    72  H    0.028719
    73  H    0.046853
    74  H    0.008881
    75  H    0.046144
    76  H    0.035256
    77  H    0.042880
    78  H    0.046730
    79  H    0.053322
    80  Mg   0.837946
    81  C   -0.016768
    82  C   -0.087276
    83  C   -0.045341
    84  C   -0.065064
    85  N   -0.254541
    86  C   -0.049830
    87  C   -0.015087
    88  C   -0.090503
    89  C    0.045594
    90  C    0.114088
    91  C    0.062518
    92  C   -0.077779
    93  H    0.034472
    94  N   -0.423648
    95  C    0.162863
    96  C   -0.173695
    97  C   -0.007765
    98  C    0.152387
    99  C    0.098977
   100  C    0.015717
   101  O   -0.253545
   102  C    0.061145
   103  N   -0.349965
   104  C    0.037632
   105  C   -0.019820
   106  C   -0.034661
   107  C    0.088842
   108  C    0.073738
   109  C    0.034844
   110  C   -0.007599
   111  N   -0.324048
   112  C    0.078299
   113  C   -0.163370
   114  C    0.002227
   115  C    0.096085
   116  C    0.131502
   117  C    0.042263
   118  O   -0.188246
   119  C    0.000939
   120  C    0.211231
   121  O   -0.251140
   122  O   -0.305612
   123  C    0.152106
   124  H   -0.018402
   125  H   -0.015809
   126  H   -0.040967
   127  H   -0.000818
   128  H   -0.004212
   129  H    0.022101
   130  H    0.015654
   131  H    0.016980
   132  H    0.013910
   133  H    0.037456
   134  H    0.020755
   135  H    0.019756
   136  H    0.009384
   137  H    0.027395
   138  H    0.039538
   139  H    0.038931
   140  H    0.036039
   141  H    0.033750
   142  H    0.014155
   143  H    0.011898
   144  H    0.024602
   145  H    0.012350
   146  H    0.004947
   147  H    0.005750
   148  H    0.003376
   149  H    0.010817
   150  H    0.017665
   151  H    0.030395
   152  H    0.045734
   153  H    0.008087
   154  H    0.046965
   155  H    0.035051
   156  H    0.043676
   157  H    0.049528
   158  H    0.053448
 Sum of Mulliken charges =  -0.00000

 Dipole moment (field-independent basis, Debye):
    X=              4.4882    Y=              2.2519    Z=              0.9765  Tot=              5.1155
 Quadrupole moment (field-independent basis, Debye-Ang):
   XX=           -521.0962   YY=           -534.8472   ZZ=           -463.1143
   XY=            -18.0830   XZ=             53.2145   YZ=             30.8821

 Normal termination of Gaussian 16 at Sat Sep  4 07:27:11 2021.
