 Gaussian 16, Revision A.03,
 Gaussian 16:  ES64L-G16RevA.03 25-Dec-2016

 -----------------------------------
 #p cam-b3lyp/Def2SVP td=(nstates=5)
 -----------------------------------

 --------------------------------
 TDDFT excited states in gaussian
 --------------------------------
 Symbolic Z-matrix:
 Charge =  0 Multiplicity = 1

                         Standard orientation:
 ---------------------------------------------------------------------
 Center     Atomic      Atomic             Coordinates (Angstroms)
 Number     Number       Type             X           Y           Z
 ---------------------------------------------------------------------
      1         12           0        4.787239    0.144779    0.330233
      2          6           0        4.729420   -3.064876   -1.253113
      3          6           0        5.825907    1.432800   -2.653931
      4          6           0        5.282112    2.902128    1.816419
      5          6           0        4.854235   -1.528207    3.386749
      6          7           0        5.188394   -0.797538   -1.632357
      7          6           0        5.070205   -2.027150   -2.123535
      8          6           0        5.268893   -2.097544   -3.667213
      9          6           0        6.144939   -0.780731   -3.868568
     10          6           0        5.666748    0.015222   -2.667020
     11          6           0        7.645195   -1.020470   -3.733441
     12          6           0        3.913320   -2.008412   -4.445807
     13          6           0        3.983436   -2.394590   -5.926112
     14          1           0        2.851089   -3.085805   -6.523908
     15          7           0        4.980690    1.973146   -0.392608
     16          6           0        5.400617    2.312547   -1.635087
     17          6           0        5.372448    3.790167   -1.685371
     18          6           0        5.083957    4.286793   -0.311243
     19          6           0        5.130593    3.058880    0.440710
     20          6           0        5.556226    4.574130   -2.948454
     21          6           0        4.820123    5.652793    0.238819
     22          8           0        4.822895    5.892549    1.494639
     23          6           0        4.643569    6.734928   -0.746500
     24          7           0        5.255199    0.628971    2.306140
     25          6           0        5.357081    1.903529    2.698703
     26          6           0        5.415731    2.011387    4.193650
     27          6           0        5.086757    0.553281    4.755307
     28          6           0        4.970236   -0.198461    3.406390
     29          6           0        6.750455    2.494197    4.777957
     30          6           0        3.919990    0.436513    5.767947
     31          6           0        2.609812    0.746889    5.079327
     32          7           0        4.614045   -1.914836    0.992831
     33          6           0        4.693290   -2.385840    2.311372
     34          6           0        4.627907   -3.857543    2.249041
     35          6           0        4.531224   -4.142988    0.888520
     36          6           0        4.562350   -2.927923    0.146266
     37          6           0        4.718334   -4.743488    3.358707
     38          6           0        4.433670   -5.193073   -0.112311
     39          8           0        4.275017   -6.414122   -0.075430
     40          6           0        4.680755   -4.543997   -1.545307
     41          6           0        3.599008   -5.044150   -2.463446
     42          8           0        2.408348   -4.713654   -2.288900
     43          8           0        4.159223   -5.632357   -3.531488
     44          6           0        3.140756   -6.124944   -4.497012
     45          1           0        6.377420    1.909541   -3.466638
     46          1           0        5.344527    3.836951    2.377354
     47          1           0        4.784479   -2.113511    4.305448
     48          1           0        5.822640   -2.969851   -4.014875
     49          1           0        5.891954   -0.260975   -4.792459
     50          1           0        7.857634   -2.033722   -3.392690
     51          1           0        7.991512   -0.291790   -3.000241
     52          1           0        8.161348   -0.778804   -4.662936
     53          1           0        3.621342   -0.962546   -4.540542
     54          1           0        3.145501   -2.606070   -3.953278
     55          1           0        4.913848   -2.913207   -6.159091
     56          1           0        4.028502   -1.479145   -6.516138
     57          1           0        5.915106    3.944727   -3.761843
     58          1           0        6.368974    5.278122   -2.770846
     59          1           0        4.653884    5.117582   -3.229114
     60          1           0        5.539604    6.810048   -1.362963
     61          1           0        4.375469    7.622144   -0.173944
     62          1           0        3.828959    6.469047   -1.420789
     63          1           0        4.670297    2.713634    4.564599
     64          1           0        5.937239    0.114769    5.277860
     65          1           0        6.659064    3.383355    5.402257
     66          1           0        7.438010    2.666416    3.950370
     67          1           0        7.292234    1.747594    5.358024
     68          1           0        4.040464    1.163194    6.570671
     69          1           0        3.842518   -0.550862    6.223292
     70          1           0        2.568615    1.834991    5.113535
     71          1           0        1.777333    0.307183    5.629643
     72          1           0        2.632912    0.454532    4.029336
     73          1           0        3.951837   -5.503136    3.205784
     74          1           0        4.570183   -4.215197    4.300281
     75          1           0        5.737940   -5.110314    3.241663
     76          1           0        5.671318   -4.863471   -1.867554
     77          1           0        3.329941   -7.187672   -4.648839
     78          1           0        3.197597   -5.471443   -5.367708
     79          1           0        2.110293   -6.148203   -4.140721
     80         12           0       -4.180333    0.946995    0.197583
     81          6           0       -6.855904   -1.444475    0.233200
     82          6           0       -6.079772    2.817070   -1.930702
     83          6           0       -1.672951    2.847824   -0.211422
     84          6           0       -2.088826   -1.583182    1.367842
     85          7           0       -6.191514    0.622602   -0.663927
     86          6           0       -7.139392   -0.292814   -0.530187
     87          6           0       -8.493736    0.082646   -1.189216
     88          6           0       -7.948035    1.122375   -2.284688
     89          6           0       -6.676596    1.581531   -1.573849
     90          6           0       -7.551076    0.462973   -3.595016
     91          6           0       -9.477669    0.773917   -0.181234
     92          6           0      -10.923516    0.887579   -0.669462
     93          1           0      -12.000616    0.753485    0.307441
     94          7           0       -4.075443    2.802638   -0.498247
     95          6           0       -4.944044    3.408265   -1.334909
     96          6           0       -4.409633    4.760261   -1.560015
     97          6           0       -3.069220    4.847483   -0.919396
     98          6           0       -2.873974    3.466053   -0.527481
     99          6           0       -5.191113    5.839438   -2.251458
    100          6           0       -2.114748    5.983385   -0.707454
    101          8           0       -0.903182    5.785055   -0.339245
    102          6           0       -2.612737    7.327677   -1.033625
    103          7           0       -2.130522    0.624251    0.325844
    104          6           0       -1.259563    1.633988    0.153307
    105          6           0        0.135809    1.226695    0.562524
    106          6           0       -0.023693   -0.195502    1.276304
    107          6           0       -1.538215   -0.414885    1.067731
    108          6           0        1.155615    1.115597   -0.570625
    109          6           0        0.551815   -0.330515    2.712701
    110          6           0       -0.246282    0.524041    3.670906
    111          7           0       -4.432943   -1.084076    0.889678
    112          6           0       -3.420351   -1.974364    1.309359
    113          6           0       -4.067552   -3.275282    1.576110
    114          6           0       -5.418831   -3.056227    1.268609
    115          6           0       -5.597528   -1.719302    0.821158
    116          6           0       -3.405151   -4.463755    1.994292
    117          6           0       -6.732910   -3.655013    1.210659
    118          8           0       -7.210563   -4.736420    1.551450
    119          6           0       -7.700364   -2.674780    0.417199
    120          6           0       -8.973488   -2.539093    1.206672
    121          8           0       -8.968676   -1.995558    2.325227
    122          8           0      -10.015229   -2.874261    0.423858
    123          6           0      -11.301518   -2.745000    1.159106
    124          1           0       -6.493976    3.368609   -2.775170
    125          1           0       -0.791374    3.492775   -0.230279
    126          1           0       -1.521714   -2.394503    1.829153
    127          1           0       -9.004257   -0.738548   -1.677868
    128          1           0       -8.634061    1.955304   -2.414907
    129          1           0       -7.590516   -0.614346   -3.532072
    130          1           0       -6.540481    0.793456   -3.796330
    131          1           0       -8.163898    0.851581   -4.413409
    132          1           0       -9.221337    1.838346   -0.103616
    133          1           0       -9.455610    0.281163    0.771311
    134          1           0      -11.115015    0.251711   -1.542352
    135          1           0      -11.086802    1.903585   -1.037004
    136          1           0       -6.075458    5.433861   -2.758266
    137          1           0       -4.562347    6.218764   -3.064250
    138          1           0       -5.446004    6.667082   -1.586102
    139          1           0       -2.917293    7.356628   -2.077119
    140          1           0       -1.819260    8.014326   -0.732329
    141          1           0       -3.511651    7.521838   -0.437917
    142          1           0        0.551900    1.931311    1.272081
    143          1           0        0.489126   -0.991844    0.717118
    144          1           0        2.045965    1.755039   -0.420788
    145          1           0        0.661207    1.363935   -1.500372
    146          1           0        1.521749    0.109000   -0.765371
    147          1           0        1.578551    0.042125    2.745886
    148          1           0        0.568096   -1.352208    3.077220
    149          1           0        0.198636    1.515815    3.546313
    150          1           0       -0.130835    0.165036    4.691608
    151          1           0       -1.294807    0.591503    3.358328
    152          1           0       -4.015861   -4.903539    2.771543
    153          1           0       -2.398452   -4.253811    2.349623
    154          1           0       -3.400583   -5.024944    1.056047
    155          1           0       -7.873620   -3.111360   -0.567153
    156          1           0      -11.805577   -3.714207    1.093904
    157          1           0      -11.817944   -1.877257    0.707362
    158          1           0      -11.253251   -2.603504    2.232463
 ---------------------------------------------------------------------

 SCF Done:  E(RCAM-B3LYP) =  -4069.80858187     A.U. after   19 cycles

 Excitation energies and oscillator strengths:

 Excited State   1:      Singlet-A      1.6410 eV  755.56 nm  f=0.0012  <S**2>=0.000
     309 -> 315       -0.11517
     310 -> 316        0.11792
     311 -> 313       -0.47832
     312 -> 314        0.49444
 This state for optimization and/or second-order correction.
 Total Energy, E(TD-HF/TD-DFT) =  -4069.74827794
 Copying the excited state density for this state as the 1-particle RhoCI density.

 Excited State   2:      Singlet-A      1.7052 eV  727.08 nm  f=0.6850  <S**2>=0.000
     309 -> 315        0.13090
     310 -> 316        0.12445
     311 -> 313        0.49150
     312 -> 314        0.47537

 Excited State   3:      Singlet-A      2.1824 eV  568.10 nm  f=0.1054  <S**2>=0.000
     309 -> 313       -0.13228
     310 -> 314        0.62952
     312 -> 316       -0.26350

 Excited State   4:      Singlet-A      2.1943 eV  565.03 nm  f=0.0962  <S**2>=0.000
     309 -> 313        0.62436
     310 -> 314        0.13031
     311 -> 315       -0.27223

 Excited State   5:      Singlet-A      2.3300 eV  532.13 nm  f=0.0005  <S**2>=0.000
     312 -> 313        0.70325

 The electronic state is 1-A.
 Alpha  occ. eigenvalues --  -46.87929 -46.87444 -19.26368 -19.26198 -19.19130
 Alpha  occ. eigenvalues --  -19.19001 -19.18661 -19.18573 -19.18240 -19.17850
 Alpha  occ. eigenvalues --  -14.42534 -14.42285 -14.41563 -14.41137 -14.39472
 Alpha  occ. eigenvalues --  -14.39145 -14.38701 -14.38373 -10.39184 -10.38926
 Alpha  occ. eigenvalues --  -10.35286 -10.35258 -10.34466 -10.34025 -10.31740
 Alpha  occ. eigenvalues --  -10.31624 -10.31516 -10.31083 -10.30970 -10.30853
 Alpha  occ. eigenvalues --  -10.30679 -10.30602 -10.30290 -10.30162 -10.30117
 Alpha  occ. eigenvalues --  -10.30042 -10.29902 -10.29683 -10.29673 -10.29316
 Alpha  occ. eigenvalues --  -10.29228 -10.29167 -10.28820 -10.28599 -10.28560
 Alpha  occ. eigenvalues --  -10.28535 -10.28442 -10.28214 -10.28190 -10.27971
 Alpha  occ. eigenvalues --  -10.27857 -10.27810 -10.27788 -10.27615 -10.27579
 Alpha  occ. eigenvalues --  -10.27529 -10.27489 -10.27457 -10.27420 -10.27327
 Alpha  occ. eigenvalues --  -10.27275 -10.27256 -10.27252 -10.27239 -10.27196
 Alpha  occ. eigenvalues --  -10.26859 -10.26783 -10.26553 -10.26336 -10.26296
 Alpha  occ. eigenvalues --  -10.26244 -10.26128 -10.26073 -10.25939 -10.25869
 Alpha  occ. eigenvalues --  -10.25764 -10.25645 -10.25527 -10.25478 -10.25451
 Alpha  occ. eigenvalues --  -10.24909 -10.24875 -10.24762 -10.24654 -10.24495
 Alpha  occ. eigenvalues --  -10.24400  -3.16624  -3.16194  -1.91508  -1.91094
 Alpha  occ. eigenvalues --   -1.91076  -1.90935  -1.90665  -1.90502  -1.16720
 Alpha  occ. eigenvalues --   -1.16489  -1.08704  -1.08457  -1.07048  -1.06834
 Alpha  occ. eigenvalues --   -1.06784  -1.06747  -1.04665  -1.04290  -1.03852
 Alpha  occ. eigenvalues --   -1.03448  -1.03323  -1.02816  -1.02504  -1.01896
 Alpha  occ. eigenvalues --   -0.92058  -0.91777  -0.89633  -0.89273  -0.89247
 Alpha  occ. eigenvalues --   -0.88977  -0.88385  -0.88052  -0.87955  -0.87752
 Alpha  occ. eigenvalues --   -0.87535  -0.87468  -0.87232  -0.86946  -0.85044
 Alpha  occ. eigenvalues --   -0.84828  -0.84112  -0.83699  -0.82931  -0.82780
 Alpha  occ. eigenvalues --   -0.82623  -0.82487  -0.81661  -0.81401  -0.80642
 Alpha  occ. eigenvalues --   -0.80254  -0.78812  -0.78430  -0.77314  -0.77049
 Alpha  occ. eigenvalues --   -0.76924  -0.76721  -0.75993  -0.75652  -0.74998
 Alpha  occ. eigenvalues --   -0.74691  -0.72858  -0.72471  -0.71747  -0.71423
 Alpha  occ. eigenvalues --   -0.70081  -0.69578  -0.68924  -0.68651  -0.67689
 Alpha  occ. eigenvalues --   -0.67412  -0.67231  -0.67042  -0.65374  -0.65099
 Alpha  occ. eigenvalues --   -0.64949  -0.64735  -0.64566  -0.64483  -0.64384
 Alpha  occ. eigenvalues --   -0.63992  -0.62387  -0.62095  -0.60450  -0.60163
 Alpha  occ. eigenvalues --   -0.59875  -0.59608  -0.59070  -0.58791  -0.58578
 Alpha  occ. eigenvalues --   -0.58231  -0.57670  -0.57376  -0.57353  -0.57057
 Alpha  occ. eigenvalues --   -0.56364  -0.56050  -0.55989  -0.55719  -0.55525
 Alpha  occ. eigenvalues --   -0.55459  -0.55274  -0.55104  -0.54654  -0.54381
 Alpha  occ. eigenvalues --   -0.53969  -0.53742  -0.53361  -0.53208  -0.53046
 Alpha  occ. eigenvalues --   -0.52997  -0.52972  -0.52879  -0.52725  -0.52676
 Alpha  occ. eigenvalues --   -0.52523  -0.52202  -0.52000  -0.51630  -0.51580
 Alpha  occ. eigenvalues --   -0.51490  -0.51280  -0.50953  -0.50458  -0.50373
 Alpha  occ. eigenvalues --   -0.50154  -0.49943  -0.49810  -0.49740  -0.49468
 Alpha  occ. eigenvalues --   -0.49327  -0.49245  -0.49140  -0.49016  -0.48914
 Alpha  occ. eigenvalues --   -0.48660  -0.48526  -0.48436  -0.48355  -0.48237
 Alpha  occ. eigenvalues --   -0.48182  -0.47679  -0.47416  -0.47329  -0.46958
 Alpha  occ. eigenvalues --   -0.46878  -0.46619  -0.46518  -0.46451  -0.46381
 Alpha  occ. eigenvalues --   -0.46279  -0.46054  -0.45934  -0.45852  -0.45617
 Alpha  occ. eigenvalues --   -0.45387  -0.45098  -0.44685  -0.44590  -0.44363
 Alpha  occ. eigenvalues --   -0.44325  -0.44251  -0.44155  -0.43987  -0.43946
 Alpha  occ. eigenvalues --   -0.43839  -0.43765  -0.43564  -0.43490  -0.43324
 Alpha  occ. eigenvalues --   -0.43170  -0.43092  -0.42924  -0.42767  -0.42729
 Alpha  occ. eigenvalues --   -0.42635  -0.42346  -0.42004  -0.41785  -0.41701
 Alpha  occ. eigenvalues --   -0.41586  -0.41451  -0.41301  -0.41191  -0.40961
 Alpha  occ. eigenvalues --   -0.40825  -0.40742  -0.40667  -0.40584  -0.40419
 Alpha  occ. eigenvalues --   -0.40251  -0.40195  -0.40079  -0.39738  -0.38819
 Alpha  occ. eigenvalues --   -0.38550  -0.38184  -0.37798  -0.37494  -0.37401
 Alpha  occ. eigenvalues --   -0.37325  -0.37014  -0.36904  -0.36800  -0.36594
 Alpha  occ. eigenvalues --   -0.36270  -0.36008  -0.34374  -0.34030  -0.33877
 Alpha  occ. eigenvalues --   -0.33692  -0.33275  -0.32953  -0.31240  -0.31133
 Alpha  occ. eigenvalues --   -0.31074  -0.30767  -0.30106  -0.29751  -0.29487
 Alpha  occ. eigenvalues --   -0.29386  -0.29128  -0.28981  -0.24172  -0.23811
 Alpha  occ. eigenvalues --   -0.21215  -0.20899
 Alpha virt. eigenvalues --   -0.08837  -0.08577  -0.01836  -0.01494  -0.00028
 Alpha virt. eigenvalues --    0.00142   0.02122   0.02432   0.03387   0.03914
 Alpha virt. eigenvalues --    0.04605   0.04925   0.04996   0.05336   0.06060

 Mulliken charges:
               1
     1  Mg   0.796932
     2  C    0.000290
     3  C   -0.090611
     4  C   -0.043289
     5  C   -0.063495
     6  N   -0.253320
     7  C   -0.056128
     8  C   -0.013038
     9  C   -0.087307
    10  C    0.044882
    11  C    0.104792
    12  C    0.052699
    13  C   -0.071912
    14  H    0.036289
    15  N   -0.436146
    16  C    0.169762
    17  C   -0.176261
    18  C   -0.002466
    19  C    0.145268
    20  C    0.110550
    21  C    0.018179
    22  O   -0.248575
    23  C    0.060788
    24  N   -0.335037
    25  C    0.035713
    26  C   -0.028415
    27  C   -0.026968
    28  C    0.071014
    29  C    0.076871
    30  C    0.059540
    31  C   -0.023826
    32  N   -0.307739
    33  C    0.077957
    34  C   -0.172466
    35  C    0.008606
    36  C    0.077176
    37  C    0.127746
    38  C    0.045406
    39  O   -0.188259
    40  C   -0.006747
    41  C    0.213082
    42  O   -0.258563
    43  O   -0.304533
    44  C    0.157491
    45  H   -0.017924
    46  H   -0.016217
    47  H   -0.042657
    48  H    0.000991
    49  H   -0.003681
    50  H    0.025664
    51  H    0.016850
    52  H    0.016932
    53  H    0.011858
    54  H    0.043404
    55  H    0.018078
    56  H    0.018199
    57  H    0.005322
    58  H    0.027038
    59  H    0.042469
    60  H    0.034761
    61  H    0.037292
    62  H    0.038245
    63  H    0.017168
    64  H    0.009896
    65  H    0.023766
    66  H    0.013008
    67  H    0.004934
    68  H    0.005055
    69  H    0.002674
    70  H    0.010561
    71  H    0.021774
    72  H    0.022628
    73  H    0.046646
    74  H    0.008661
    75  H    0.046553
    76  H    0.035644
    77  H    0.043420
    78  H    0.046551
    79  H    0.053764
    80  Mg   0.838125
    81  C   -0.017376
    82  C   -0.088308
    83  C   -0.046197
    84  C   -0.061802
    85  N   -0.254599
    86  C   -0.049445
    87  C   -0.015154
    88  C   -0.090445
    89  C    0.045589
    90  C    0.114596
    91  C    0.062615
    92  C   -0.077610
    93  H    0.034449
    94  N   -0.423092
    95  C    0.162377
    96  C   -0.175719
    97  C   -0.008856
    98  C    0.151370
    99  C    0.099850
   100  C    0.014652
   101  O   -0.254258
   102  C    0.061225
   103  N   -0.350209
   104  C    0.039445
   105  C   -0.025339
   106  C   -0.037172
   107  C    0.089018
   108  C    0.033641
   109  C    0.008902
   110  C    0.002678
   111  N   -0.324465
   112  C    0.078190
   113  C   -0.161475
   114  C    0.002023
   115  C    0.096814
   116  C    0.132271
   117  C    0.042843
   118  O   -0.187643
   119  C    0.000852
   120  C    0.211162
   121  O   -0.251258
   122  O   -0.305608
   123  C    0.152154
   124  H   -0.020725
   125  H   -0.016356
   126  H   -0.035298
   127  H   -0.000836
   128  H   -0.004901
   129  H    0.022516
   130  H    0.014292
   131  H    0.015443
   132  H    0.013863
   133  H    0.037626
   134  H    0.020630
   135  H    0.019300
   136  H    0.008290
   137  H    0.024493
   138  H    0.039099
   139  H    0.037109
   140  H    0.035424
   141  H    0.034342
   142  H    0.016324
   143  H    0.024937
   144  H    0.064973
   145  H    0.010068
   146  H    0.028473
   147  H    0.026115
   148  H    0.006521
   149  H    0.011994
   150  H    0.016629
   151  H    0.028206
   152  H    0.044833
   153  H    0.010861
   154  H    0.050317
   155  H    0.035018
   156  H    0.043724
   157  H    0.049227
   158  H    0.053400
 Sum of Mulliken charges =  -0.00000

 Dipole moment (field-independent basis, Debye):
    X=              1.6054    Y=              5.6964    Z=             -6.1848  Tot=              8.5603
 Quadrupole moment (field-independent basis, Debye-Ang):
   XX=           -468.0073   YY=           -548.8410   ZZ=           -469.8895
   XY=            -29.7965   XZ=             16.3997   YZ=            -11.6103

 Normal termination of Gaussian 16 at Fri Sep 10 07:24:15 2021.
