 Gaussian 16, Revision A.03,
 Gaussian 16:  ES64L-G16RevA.03 25-Dec-2016

 -----------------------------------
 #p cam-b3lyp/Def2SVP td=(nstates=5)
 -----------------------------------

 --------------------------------
 TDDFT excited states in gaussian
 --------------------------------
 Symbolic Z-matrix:
 Charge =  0 Multiplicity = 1

                         Standard orientation:
 ---------------------------------------------------------------------
 Center     Atomic      Atomic             Coordinates (Angstroms)
 Number     Number       Type             X           Y           Z
 ---------------------------------------------------------------------
      1         12           0        7.559174    1.030562    0.540704
      2          6           0        7.979639   -2.419695   -0.314371
      3          6           0        8.547939    1.784697   -2.636825
      4          6           0        7.633830    4.081041    1.404199
      5          6           0        7.712310    0.067481    3.886550
      6          7           0        8.159538   -0.243539   -1.167183
      7          6           0        8.220631   -1.553770   -1.383362
      8          6           0        8.491061   -1.922244   -2.872815
      9          6           0        9.198667   -0.572583   -3.341543
     10          6           0        8.572554    0.388280   -2.346230
     11          6           0       10.710308   -0.574685   -3.137978
     12          6           0        7.168991   -2.182822   -3.670288
     13          6           0        7.349867   -2.860821   -5.031521
     14          1           0        6.341488   -3.808554   -5.481322
     15          7           0        7.546627    2.673353   -0.556534
     16          6           0        7.971136    2.795076   -1.837261
     17          6           0        7.755854    4.211049   -2.205166
     18          6           0        7.348875    4.944168   -0.974313
     19          6           0        7.521104    3.921034    0.025143
     20          6           0        7.890228    4.727071   -3.604957
     21          6           0        6.889298    6.347630   -0.735114
     22          8           0        6.808805    6.846116    0.439452
     23          6           0        6.616787    7.162774   -1.932745
     24          7           0        7.878172    1.980642    2.371884
     25          6           0        7.799280    3.311305    2.481872
     26          6           0        7.781070    3.740260    3.919093
     27          6           0        7.618593    2.403568    4.777352
     28          6           0        7.655920    1.374468    3.620706
     29          6           0        9.017264    4.510553    4.403329
     30          6           0        6.435128    2.348443    5.775746
     31          6           0        5.125908    2.327191    5.019050
     32          7           0        7.623963   -0.846130    1.629223
     33          6           0        7.707762   -1.012144    3.019220
     34          6           0        7.834294   -2.458801    3.274647
     35          6           0        7.831971   -3.036299    2.006446
     36          6           0        7.738036   -2.013112    1.020263
     37          6           0        7.991111   -3.069243    4.550266
     38          6           0        7.911796   -4.277928    1.254221
     39          8           0        7.909623   -5.473442    1.551262
     40          6           0        8.133298   -3.919980   -0.281565
     41          6           0        7.163949   -4.743823   -1.084655
     42          8           0        5.934492   -4.546714   -1.001291
     43          8           0        7.839117   -5.464290   -1.993290
     44          6           0        6.933481   -6.282354   -2.843436
     45          1           0        9.067256    2.148070   -3.525763
     46          1           0        7.552356    5.113193    1.751275
     47          1           0        7.679839   -0.313875    4.908786
     48          1           0        9.166136   -2.766003   -3.016923
     49          1           0        8.919969   -0.299095   -4.359017
     50          1           0       11.036489   -1.454868   -2.584078
     51          1           0       10.929375    0.332504   -2.574497
     52          1           0       11.229614   -0.468361   -4.090760
     53          1           0        6.749533   -1.229629   -3.992061
     54          1           0        6.464235   -2.760102   -3.070794
     55          1           0        8.348018   -3.287346   -5.134861
     56          1           0        7.301800   -2.093563   -5.804311
     57          1           0        8.360539    3.993645   -4.258747
     58          1           0        8.597854    5.555271   -3.572438
     59          1           0        6.938177    5.072601   -4.008119
     60          1           0        7.520773    7.225167   -2.538935
     61          1           0        6.213436    8.106942   -1.568460
     62          1           0        5.871900    6.653224   -2.544670
     63          1           0        6.936893    4.398601    4.120037
     64          1           0        8.495689    2.203904    5.393396
     65          1           0        8.786595    5.491279    4.820069
     66          1           0        9.711049    4.594240    3.567296
     67          1           0        9.625580    3.983394    5.137817
     68          1           0        6.427764    3.238114    6.404536
     69          1           0        6.465938    1.478674    6.432103
     70          1           0        4.944132    3.382242    4.817413
     71          1           0        4.334413    1.906379    5.640068
     72          1           0        5.230178    1.824858    4.057137
     73          1           0        7.335418   -3.939885    4.554459
     74          1           0        7.737212   -2.378262    5.353811
     75          1           0        9.053331   -3.312297    4.528601
     76          1           0        9.169247   -4.164562   -0.514184
     77          1           0        7.263555   -7.317896   -2.760142
     78          1           0        6.942403   -5.826544   -3.833670
     79          1           0        5.900521   -6.367697   -2.504247
     80         12           0       -8.276283    0.215697   -0.217887
     81          6           0       -6.009314   -2.560910   -0.043682
     82          6           0       -5.883634    1.864790   -2.004050
     83          6           0      -10.060881    2.830553   -0.005344
     84          6           0       -9.974283   -1.179789    2.486745
     85          7           0       -6.249502   -0.377146   -0.875875
     86          6           0       -5.518408   -1.479291   -0.804304
     87          6           0       -4.222662   -1.448197   -1.658501
     88          6           0       -4.025117    0.143516   -1.737876
     89          6           0       -5.478655    0.579168   -1.564421
     90          6           0       -3.216127    0.707936   -0.581892
     91          6           0       -4.430521   -2.072947   -3.082755
     92          6           0       -3.140258   -2.357011   -3.854946
     93          1           0       -3.089428   -3.535458   -4.715836
     94          7           0       -8.241680    1.884878   -1.290837
     95          6           0       -7.192297    2.394443   -1.969382
     96          6           0       -7.674171    3.645302   -2.575435
     97          6           0       -9.045167    3.916590   -2.064053
     98          6           0       -9.163558    2.876064   -1.062357
     99          6           0       -6.886602    4.409362   -3.599826
    100          6           0      -10.073871    4.950387   -2.409317
    101          8           0      -11.104120    5.147393   -1.672706
    102          6           0       -9.792306    5.788730   -3.583793
    103          7           0       -9.669042    0.862109    1.183793
    104          6           0      -10.340992    2.013783    1.010397
    105          6           0      -11.479159    2.134866    1.995446
    106          6           0      -11.581610    0.708331    2.711050
    107          6           0      -10.374688    0.006609    2.050520
    108          6           0      -11.328458    3.225943    3.055275
    109          6           0      -12.962484   -0.001763    2.670600
    110          6           0      -13.293439   -0.406306    1.252087
    111          7           0       -8.172499   -1.631150    0.898545
    112          6           0       -8.960429   -2.001144    2.010455
    113          6           0       -8.443704   -3.296185    2.498604
    114          6           0       -7.367822   -3.580865    1.644248
    115          6           0       -7.211471   -2.527197    0.703588
    116          6           0       -8.933680   -4.016265    3.624449
    117          6           0       -6.322168   -4.528029    1.330938
    118          8           0       -6.017896   -5.650452    1.732570
    119          6           0       -5.316671   -3.849336    0.303918
    120          6           0       -5.058112   -4.828084   -0.808602
    121          8           0       -5.974201   -5.165938   -1.578820
    122          8           0       -3.732846   -5.035168   -0.914167
    123          6           0       -3.425439   -5.990626   -2.011628
    124          1           0       -5.120826    2.551187   -2.372651
    125          1           0      -10.772548    3.657888    0.044955
    126          1           0      -10.511002   -1.727425    3.264383
    127          1           0       -3.359551   -1.907155   -1.191430
    128          1           0       -3.649768    0.446865   -2.711760
    129          1           0       -3.007222   -0.041199    0.167315
    130          1           0       -3.817401    1.504332   -0.163241
    131          1           0       -2.304832    1.183156   -0.956120
    132          1           0       -4.881898   -1.320017   -3.741623
    133          1           0       -5.020885   -2.966644   -3.024322
    134          1           0       -2.255233   -2.314878   -3.208483
    135          1           0       -2.983445   -1.551830   -4.576822
    136          1           0       -5.848565    4.058569   -3.652863
    137          1           0       -6.806798    5.440228   -3.238159
    138          1           0       -7.365836    4.415216   -4.581139
    139          1           0       -8.850399    6.311831   -3.436655
    140          1           0      -10.682357    6.405464   -3.722766
    141          1           0       -9.657824    5.137286   -4.454505
    142          1           0      -12.412211    2.339794    1.485017
    143          1           0      -11.357069    0.774549    3.785773
    144          1           0      -12.165198    3.949772    3.058569
    145          1           0      -10.387218    3.733544    2.891154
    146          1           0      -11.221572    2.865661    4.077024
    147          1           0      -13.750754    0.684561    2.989553
    148          1           0      -13.017714   -0.875640    3.311137
    149          1           0      -13.711182    0.510363    0.825132
    150          1           0      -14.023062   -1.213546    1.244278
    151          1           0      -12.384188   -0.647502    0.689295
    152          1           0       -8.987408   -5.055869    3.329779
    153          1           0       -9.904072   -3.642161    3.944069
    154          1           0       -8.148763   -3.796620    4.353112
    155          1           0       -4.406386   -3.602121    0.851498
    156          1           0       -2.837529   -6.802745   -1.572871
    157          1           0       -2.941329   -5.389553   -2.804165
    158          1           0       -4.253426   -6.539225   -2.445133
 ---------------------------------------------------------------------

 SCF Done:  E(RCAM-B3LYP) =  -4069.81171872     A.U. after   19 cycles

 Excitation energies and oscillator strengths:

 Excited State   1:      Singlet-A      1.6692 eV  742.78 nm  f=0.0127  <S**2>=0.000
     309 -> 315       -0.10666
     310 -> 316        0.13515
     311 -> 313       -0.42344
     312 -> 314        0.54023
 This state for optimization and/or second-order correction.
 Total Energy, E(TD-HF/TD-DFT) =  -4069.75037712
 Copying the excited state density for this state as the 1-particle RhoCI density.

 Excited State   2:      Singlet-A      1.6855 eV  735.59 nm  f=0.7411  <S**2>=0.000
     309 -> 315        0.13931
     310 -> 316        0.10849
     311 -> 313        0.53934
     312 -> 314        0.42284

 Excited State   3:      Singlet-A      2.1853 eV  567.34 nm  f=0.0862  <S**2>=0.000
     310 -> 314        0.63630
     312 -> 316       -0.26978

 Excited State   4:      Singlet-A      2.1926 eV  565.46 nm  f=0.1128  <S**2>=0.000
     309 -> 313        0.63426
     311 -> 315       -0.27576

 Excited State   5:      Singlet-A      2.7271 eV  454.64 nm  f=0.0000  <S**2>=0.000
     312 -> 313        0.70699

 The electronic state is 1-A.
 Alpha  occ. eigenvalues --  -46.87925 -46.87569 -19.26394 -19.26163 -19.19136
 Alpha  occ. eigenvalues --  -19.19004 -19.18953 -19.18644 -19.18274 -19.17932
 Alpha  occ. eigenvalues --  -14.42577 -14.42401 -14.41572 -14.41269 -14.39532
 Alpha  occ. eigenvalues --  -14.39262 -14.38710 -14.38506 -10.39195 -10.38932
 Alpha  occ. eigenvalues --  -10.35588 -10.35323 -10.34494 -10.34106 -10.31785
 Alpha  occ. eigenvalues --  -10.31549 -10.31525 -10.31204 -10.31040 -10.30921
 Alpha  occ. eigenvalues --  -10.30690 -10.30629 -10.30331 -10.30307 -10.30264
 Alpha  occ. eigenvalues --  -10.30061 -10.30036 -10.29805 -10.29753 -10.29381
 Alpha  occ. eigenvalues --  -10.29352 -10.29312 -10.28880 -10.28686 -10.28586
 Alpha  occ. eigenvalues --  -10.28514 -10.28490 -10.28308 -10.28240 -10.28018
 Alpha  occ. eigenvalues --  -10.27912 -10.27909 -10.27851 -10.27711 -10.27622
 Alpha  occ. eigenvalues --  -10.27609 -10.27576 -10.27558 -10.27527 -10.27448
 Alpha  occ. eigenvalues --  -10.27404 -10.27382 -10.27380 -10.27304 -10.27269
 Alpha  occ. eigenvalues --  -10.26910 -10.26856 -10.26568 -10.26566 -10.26363
 Alpha  occ. eigenvalues --  -10.26344 -10.26287 -10.26138 -10.26076 -10.25926
 Alpha  occ. eigenvalues --  -10.25883 -10.25848 -10.25760 -10.25533 -10.25333
 Alpha  occ. eigenvalues --  -10.24949 -10.24910 -10.24803 -10.24776 -10.24671
 Alpha  occ. eigenvalues --  -10.24601  -3.16668  -3.16319  -1.91550  -1.91201
 Alpha  occ. eigenvalues --   -1.91136  -1.90979  -1.90790  -1.90627  -1.16744
 Alpha  occ. eigenvalues --   -1.16464  -1.08730  -1.08533  -1.07355  -1.06898
 Alpha  occ. eigenvalues --   -1.06786  -1.06757  -1.04707  -1.04396  -1.03884
 Alpha  occ. eigenvalues --   -1.03570  -1.03358  -1.02949  -1.02534  -1.02019
 Alpha  occ. eigenvalues --   -0.92091  -0.91879  -0.89635  -0.89410  -0.89315
 Alpha  occ. eigenvalues --   -0.89031  -0.88401  -0.88141  -0.87979  -0.87798
 Alpha  occ. eigenvalues --   -0.87699  -0.87587  -0.87408  -0.87044  -0.85111
 Alpha  occ. eigenvalues --   -0.84888  -0.84048  -0.83795  -0.83103  -0.82862
 Alpha  occ. eigenvalues --   -0.82775  -0.82546  -0.81701  -0.81463  -0.80718
 Alpha  occ. eigenvalues --   -0.80328  -0.78923  -0.78552  -0.77339  -0.77054
 Alpha  occ. eigenvalues --   -0.77046  -0.76781  -0.76041  -0.75716  -0.75009
 Alpha  occ. eigenvalues --   -0.74713  -0.72891  -0.72606  -0.71789  -0.71479
 Alpha  occ. eigenvalues --   -0.70019  -0.69683  -0.69000  -0.68719  -0.67763
 Alpha  occ. eigenvalues --   -0.67504  -0.67357  -0.67095  -0.65412  -0.65153
 Alpha  occ. eigenvalues --   -0.64973  -0.64741  -0.64669  -0.64537  -0.64385
 Alpha  occ. eigenvalues --   -0.64117  -0.62411  -0.62140  -0.60570  -0.60260
 Alpha  occ. eigenvalues --   -0.59929  -0.59684  -0.59106  -0.58894  -0.58622
 Alpha  occ. eigenvalues --   -0.58322  -0.57697  -0.57427  -0.57424  -0.57144
 Alpha  occ. eigenvalues --   -0.56429  -0.56109  -0.56095  -0.55746  -0.55645
 Alpha  occ. eigenvalues --   -0.55450  -0.55348  -0.55145  -0.54635  -0.54373
 Alpha  occ. eigenvalues --   -0.54023  -0.53794  -0.53423  -0.53349  -0.53135
 Alpha  occ. eigenvalues --   -0.53035  -0.53034  -0.52891  -0.52787  -0.52583
 Alpha  occ. eigenvalues --   -0.52549  -0.52327  -0.52014  -0.51789  -0.51747
 Alpha  occ. eigenvalues --   -0.51549  -0.51310  -0.51093  -0.50714  -0.50407
 Alpha  occ. eigenvalues --   -0.50147  -0.50049  -0.49887  -0.49788  -0.49642
 Alpha  occ. eigenvalues --   -0.49392  -0.49334  -0.49214  -0.49095  -0.48986
 Alpha  occ. eigenvalues --   -0.48706  -0.48585  -0.48562  -0.48441  -0.48291
 Alpha  occ. eigenvalues --   -0.48247  -0.47819  -0.47493  -0.47418  -0.47028
 Alpha  occ. eigenvalues --   -0.46915  -0.46684  -0.46613  -0.46478  -0.46442
 Alpha  occ. eigenvalues --   -0.46274  -0.46179  -0.45984  -0.45928  -0.45700
 Alpha  occ. eigenvalues --   -0.45314  -0.45124  -0.44691  -0.44635  -0.44402
 Alpha  occ. eigenvalues --   -0.44372  -0.44265  -0.44212  -0.44138  -0.44020
 Alpha  occ. eigenvalues --   -0.43989  -0.43839  -0.43607  -0.43508  -0.43423
 Alpha  occ. eigenvalues --   -0.43277  -0.43143  -0.42814  -0.42813  -0.42767
 Alpha  occ. eigenvalues --   -0.42760  -0.42475  -0.42127  -0.41870  -0.41821
 Alpha  occ. eigenvalues --   -0.41661  -0.41562  -0.41352  -0.41260  -0.40996
 Alpha  occ. eigenvalues --   -0.40961  -0.40886  -0.40685  -0.40635  -0.40599
 Alpha  occ. eigenvalues --   -0.40403  -0.40376  -0.40107  -0.39555  -0.39354
 Alpha  occ. eigenvalues --   -0.38585  -0.38266  -0.37883  -0.37540  -0.37438
 Alpha  occ. eigenvalues --   -0.37393  -0.37177  -0.37092  -0.36826  -0.36626
 Alpha  occ. eigenvalues --   -0.36309  -0.36109  -0.34408  -0.34157  -0.33889
 Alpha  occ. eigenvalues --   -0.33718  -0.33309  -0.33080  -0.31482  -0.31202
 Alpha  occ. eigenvalues --   -0.31158  -0.30877  -0.30132  -0.29832  -0.29577
 Alpha  occ. eigenvalues --   -0.29440  -0.29241  -0.29116  -0.24204  -0.23941
 Alpha  occ. eigenvalues --   -0.21250  -0.21025
 Alpha virt. eigenvalues --   -0.08898  -0.08700  -0.01875  -0.01595  -0.00188
 Alpha virt. eigenvalues --    0.00059   0.02087   0.02310   0.02955   0.03309
 Alpha virt. eigenvalues --    0.04591   0.04833   0.04984   0.05319   0.06042

 Mulliken charges:
               1
     1  Mg   0.837967
     2  C   -0.003146
     3  C   -0.094382
     4  C   -0.045927
     5  C   -0.063796
     6  N   -0.256781
     7  C   -0.052532
     8  C   -0.013932
     9  C   -0.086931
    10  C    0.046088
    11  C    0.104759
    12  C    0.053572
    13  C   -0.071727
    14  H    0.035796
    15  N   -0.433125
    16  C    0.168077
    17  C   -0.177411
    18  C   -0.004237
    19  C    0.148470
    20  C    0.110188
    21  C    0.011915
    22  O   -0.249569
    23  C    0.062687
    24  N   -0.341091
    25  C    0.041164
    26  C   -0.028199
    27  C   -0.024034
    28  C    0.074785
    29  C    0.076097
    30  C    0.035073
    31  C   -0.004529
    32  N   -0.310580
    33  C    0.080454
    34  C   -0.169366
    35  C    0.008606
    36  C    0.082924
    37  C    0.127222
    38  C    0.046314
    39  O   -0.187745
    40  C   -0.005397
    41  C    0.213100
    42  O   -0.257471
    43  O   -0.304668
    44  C    0.157618
    45  H   -0.017534
    46  H   -0.016786
    47  H   -0.041072
    48  H    0.001234
    49  H   -0.004203
    50  H    0.025662
    51  H    0.016568
    52  H    0.016808
    53  H    0.010576
    54  H    0.043796
    55  H    0.018335
    56  H    0.017814
    57  H    0.005899
    58  H    0.027035
    59  H    0.038817
    60  H    0.037633
    61  H    0.035582
    62  H    0.030675
    63  H    0.016444
    64  H    0.009781
    65  H    0.023323
    66  H    0.012611
    67  H    0.005006
    68  H    0.006615
    69  H    0.005139
    70  H    0.008557
    71  H    0.018445
    72  H    0.028528
    73  H    0.048124
    74  H    0.009375
    75  H    0.046283
    76  H    0.035425
    77  H    0.043437
    78  H    0.046226
    79  H    0.053547
    80  Mg   0.837677
    81  C   -0.016838
    82  C   -0.087833
    83  C   -0.045645
    84  C   -0.065069
    85  N   -0.254580
    86  C   -0.049699
    87  C   -0.015223
    88  C   -0.090481
    89  C    0.045779
    90  C    0.114458
    91  C    0.062557
    92  C   -0.077936
    93  H    0.034461
    94  N   -0.423463
    95  C    0.162822
    96  C   -0.174750
    97  C   -0.008003
    98  C    0.152063
    99  C    0.099467
   100  C    0.015432
   101  O   -0.253395
   102  C    0.061256
   103  N   -0.350054
   104  C    0.037454
   105  C   -0.019786
   106  C   -0.034815
   107  C    0.088982
   108  C    0.073719
   109  C    0.034787
   110  C   -0.007636
   111  N   -0.324152
   112  C    0.078565
   113  C   -0.163211
   114  C    0.002474
   115  C    0.096133
   116  C    0.131495
   117  C    0.042391
   118  O   -0.187231
   119  C    0.001005
   120  C    0.211238
   121  O   -0.251580
   122  O   -0.304879
   123  C    0.152178
   124  H   -0.019865
   125  H   -0.015812
   126  H   -0.040583
   127  H    0.000791
   128  H   -0.004722
   129  H    0.023306
   130  H    0.014068
   131  H    0.016381
   132  H    0.013352
   133  H    0.037612
   134  H    0.022453
   135  H    0.018762
   136  H    0.008524
   137  H    0.025908
   138  H    0.039397
   139  H    0.038126
   140  H    0.036142
   141  H    0.033731
   142  H    0.014227
   143  H    0.012344
   144  H    0.024927
   145  H    0.011659
   146  H    0.005562
   147  H    0.006088
   148  H    0.003609
   149  H    0.010823
   150  H    0.017803
   151  H    0.030207
   152  H    0.046055
   153  H    0.008307
   154  H    0.047123
   155  H    0.036129
   156  H    0.044975
   157  H    0.049603
   158  H    0.052856
 Sum of Mulliken charges =  -0.00000

 Dipole moment (field-independent basis, Debye):
    X=              4.6277    Y=              5.8043    Z=             -4.5115  Tot=              8.6867
 Quadrupole moment (field-independent basis, Debye-Ang):
   XX=           -503.0101   YY=           -566.8446   ZZ=           -454.5663
   XY=              3.9539   XZ=            -40.5649   YZ=              3.5380

 Normal termination of Gaussian 16 at Sun Sep 12 04:02:46 2021.
