 Gaussian 16, Revision A.03,
 Gaussian 16:  ES64L-G16RevA.03 25-Dec-2016

 -----------------------------------
 #p cam-b3lyp/Def2SVP td=(nstates=5)
 -----------------------------------

 --------------------------------
 TDDFT excited states in gaussian
 --------------------------------
 Symbolic Z-matrix:
 Charge =  0 Multiplicity = 1

                         Standard orientation:
 ---------------------------------------------------------------------
 Center     Atomic      Atomic             Coordinates (Angstroms)
 Number     Number       Type             X           Y           Z
 ---------------------------------------------------------------------
      1         12           0        3.730460    0.577223    1.593529
      2          6           0        4.840503   -2.325096   -0.183143
      3          6           0        5.586612    2.436913   -0.583469
      4          6           0        3.133057    3.104845    3.413105
      5          6           0        2.917677   -1.536558    4.242486
      6          7           0        5.006870    0.012471   -0.124749
      7          6           0        5.300941   -1.129308   -0.738781
      8          6           0        6.081981   -0.930410   -2.072119
      9          6           0        6.724784    0.498387   -1.776584
     10          6           0        5.693998    1.030479   -0.796644
     11          6           0        8.077203    0.424723   -1.075129
     12          6           0        5.132420   -0.885140   -3.316311
     13          6           0        5.827570   -1.021341   -4.674092
     14          1           0        5.147693   -1.742130   -5.739728
     15          7           0        3.863164    2.506554    1.189896
     16          6           0        4.658900    3.086400    0.259376
     17          6           0        4.395126    4.538875    0.345524
     18          6           0        3.522934    4.773493    1.529724
     19          6           0        3.492539    3.457190    2.114362
     20          6           0        4.906872    5.528872   -0.655362
     21          6           0        2.835803    5.993130    2.057425
     22          8           0        2.317900    6.030158    3.225748
     23          6           0        2.862578    7.187609    1.193976
     24          7           0        3.317888    0.796722    3.628041
     25          6           0        3.038769    1.996128    4.150059
     26          6           0        2.503429    1.872956    5.545830
     27          6           0        2.244623    0.315407    5.784186
     28          6           0        2.783907   -0.222480    4.435809
     29          6           0        3.408496    2.416283    6.660129
     30          6           0        0.819615   -0.100888    6.227437
     31          6           0       -0.161558    0.152508    5.104857
     32          7           0        3.679388   -1.566739    1.927988
     33          6           0        3.330809   -2.226800    3.115206
     34          6           0        3.551535   -3.667085    2.889532
     35          6           0        4.032038   -3.743787    1.583746
     36          6           0        4.131578   -2.432142    1.037880
     37          6           0        3.364995   -4.699424    3.850736
     38          6           0        4.507832   -4.626672    0.531134
     39          8           0        4.562400   -5.848348    0.382734
     40          6           0        5.165314   -3.734327   -0.612222
     41          6           0        4.620202   -4.211157   -1.930856
     42          8           0        3.415041   -4.059765   -2.217272
     43          8           0        5.638393   -4.550767   -2.736148
     44          6           0        5.167479   -5.005001   -4.071837
     45          1           0        6.314092    3.099511   -1.056414
     46          1           0        2.813102    3.939951    4.039735
     47          1           0        2.606121   -2.263637    4.994644
     48          1           0        6.869206   -1.662930   -2.251329
     49          1           0        6.756702    1.122773   -2.669246
     50          1           0        8.316693   -0.596131   -0.777770
     51          1           0        7.985264    1.065181   -0.197716
     52          1           0        8.858037    0.871097   -1.691429
     53          1           0        4.721262    0.119156   -3.418299
     54          1           0        4.351641   -1.642009   -3.233487
     55          1           0        6.851474   -1.379530   -4.563502
     56          1           0        5.933931   -0.025638   -5.104746
     57          1           0        5.652372    5.084187   -1.313412
     58          1           0        5.454497    6.289617   -0.099411
     59          1           0        4.099903    5.995900   -1.220179
     60          1           0        3.898023    7.467597    0.999013
     61          1           0        2.246392    7.934001    1.694040
     62          1           0        2.426266    6.934366    0.227307
     63          1           0        1.562906    2.411823    5.652900
     64          1           0        2.894028   -0.093287    6.558729
     65          1           0        2.932693    3.177917    7.278376
     66          1           0        4.318208    2.799377    6.198658
     67          1           0        3.809352    1.659030    7.333404
     68          1           0        0.496469    0.499149    7.077424
     69          1           0        0.747693   -1.149761    6.515438
     70          1           0       -0.401522    1.208358    5.224986
     71          1           0       -1.050582   -0.466572    5.229705
     72          1           0        0.310545    0.034589    4.129306
     73          1           0        2.859647   -5.512976    3.330422
     74          1           0        2.779580   -4.348410    4.700254
     75          1           0        4.399256   -4.916314    4.117417
     76          1           0        6.243173   -3.875956   -0.539523
     77          1           0        5.582220   -5.999408   -4.237305
     78          1           0        5.437134   -4.220243   -4.778836
     79          1           0        4.100113   -5.209458   -4.162752
     80         12           0       -3.523286    0.327836   -1.609005
     81          6           0       -5.562660   -1.732441    0.506488
     82          6           0       -5.688078    2.881702   -0.956249
     83          6           0       -2.012366    2.039592   -3.812276
     84          6           0       -2.220532   -2.602884   -2.972613
     85          7           0       -5.351529    0.437382   -0.368918
     86          6           0       -5.995822   -0.391862    0.438298
     87          6           0       -7.120817    0.271550    1.277238
     88          6           0       -7.424777    1.526366    0.322305
     89          6           0       -6.062295    1.652896   -0.356153
     90          6           0       -8.464744    1.231741   -0.745877
     91          6           0       -6.619304    0.733410    2.690465
     92          6           0       -7.728723    1.106501    3.676239
     93          1           0       -7.536450    0.796842    5.090320
     94          7           0       -3.499755    2.287824   -1.919565
     95          6           0       -4.450872    3.178735   -1.568974
     96          6           0       -3.969399    4.487053   -2.038714
     97          6           0       -2.734196    4.272060   -2.840450
     98          6           0       -2.711991    2.824610   -2.907393
     99          6           0       -4.622941    5.781687   -1.651121
    100          6           0       -1.744652    5.213733   -3.457100
    101          8           0       -0.877462    4.814170   -4.312180
    102          6           0       -1.881091    6.633635   -3.101105
    103          7           0       -2.451477   -0.196223   -3.311625
    104          6           0       -1.851304    0.740823   -4.066385
    105          6           0       -0.915682    0.113970   -5.072399
    106          6           0       -0.829085   -1.432255   -4.673302
    107          6           0       -1.843681   -1.450290   -3.508970
    108          6           0       -1.333718    0.238529   -6.537365
    109          6           0        0.588646   -2.017301   -4.427419
    110          6           0        1.192828   -1.401663   -3.185917
    111          7           0       -3.676430   -1.785753   -1.187876
    112          6           0       -3.068503   -2.843442   -1.899084
    113          6           0       -3.560141   -4.104847   -1.307830
    114          6           0       -4.444727   -3.690390   -0.300743
    115          6           0       -4.515879   -2.271238   -0.280078
    116          6           0       -3.219864   -5.416282   -1.744241
    117          6           0       -5.342591   -4.130954    0.742542
    118          8           0       -5.624028   -5.218420    1.244481
    119          6           0       -6.202923   -2.885740    1.228002
    120          6           0       -6.186124   -2.867576    2.731964
    121          8           0       -5.126076   -2.664663    3.349803
    122          8           0       -7.452361   -2.875458    3.186890
    123          6           0       -7.487955   -2.846963    4.673415
    124          1           0       -6.425845    3.683334   -1.000578
    125          1           0       -1.387048    2.583819   -4.523807
    126          1           0       -1.786951   -3.557871   -3.277033
    127          1           0       -8.013863   -0.330212    1.396048
    128          1           0       -7.646658    2.418913    0.901530
    129          1           0       -8.742364    0.188261   -0.760938
    130          1           0       -8.009722    1.515791   -1.685718
    131          1           0       -9.330824    1.887767   -0.619900
    132          1           0       -6.119771    1.705873    2.592931
    133          1           0       -5.980481   -0.008253    3.129174
    134          1           0       -8.713627    0.762346    3.337927
    135          1           0       -7.819202    2.195175    3.701057
    136          1           0       -5.605240    5.614826   -1.192154
    137          1           0       -4.844723    6.318527   -2.579812
    138          1           0       -3.981559    6.406739   -1.026133
    139          1           0       -2.872034    6.982657   -3.381595
    140          1           0       -1.031209    7.135006   -3.568228
    141          1           0       -1.810239    6.729611   -2.011894
    142          1           0        0.073364    0.550246   -5.004901
    143          1           0       -1.242410   -2.079978   -5.460347
    144          1           0       -0.569358    0.729091   -7.169170
    145          1           0       -2.268429    0.781646   -6.580600
    146          1           0       -1.589102   -0.700118   -7.026153
    147          1           0        1.253204   -1.760605   -5.256046
    148          1           0        0.598992   -3.097676   -4.329106
    149          1           0        1.606084   -0.458017   -3.554478
    150          1           0        1.973193   -2.042977   -2.781211
    151          1           0        0.417468   -1.157112   -2.450617
    152          1           0       -3.034687   -6.002430   -0.853932
    153          1           0       -2.352354   -5.404244   -2.400784
    154          1           0       -4.134692   -5.687812   -2.277750
    155          1           0       -7.211318   -3.009633    0.831318
    156          1           0       -8.078440   -3.710271    4.995460
    157          1           0       -7.871451   -1.845212    4.943912
    158          1           0       -6.556804   -3.019156    5.200438
 ---------------------------------------------------------------------

 SCF Done:  E(RCAM-B3LYP) =  -4069.81532858     A.U. after   19 cycles

 Excitation energies and oscillator strengths:

 Excited State   1:      Singlet-A      1.6348 eV  758.39 nm  f=0.0035  <S**2>=0.000
     309 -> 315       -0.11218
     310 -> 316        0.11888
     311 -> 313       -0.47028
     312 -> 314        0.50264
 This state for optimization and/or second-order correction.
 Total Energy, E(TD-HF/TD-DFT) =  -4069.75524940
 Copying the excited state density for this state as the 1-particle RhoCI density.

 Excited State   2:      Singlet-A      1.7079 eV  725.95 nm  f=0.6809  <S**2>=0.000
     309 -> 315        0.13365
     310 -> 316        0.12394
     311 -> 313        0.49941
     312 -> 314        0.46722

 Excited State   3:      Singlet-A      2.1785 eV  569.13 nm  f=0.0296  <S**2>=0.000
     309 -> 313        0.28718
     310 -> 314        0.57805
     311 -> 315       -0.11731
     312 -> 316       -0.23902

 Excited State   4:      Singlet-A      2.1964 eV  564.49 nm  f=0.1472  <S**2>=0.000
     309 -> 313        0.57287
     310 -> 314       -0.28230
     311 -> 315       -0.25209
     312 -> 316        0.12679

 Excited State   5:      Singlet-A      2.3413 eV  529.55 nm  f=0.0000  <S**2>=0.000
     312 -> 313        0.70694

 The electronic state is 1-A.
 Alpha  occ. eigenvalues --  -46.87649 -46.87348 -19.26659 -19.26210 -19.19559
 Alpha  occ. eigenvalues --  -19.19010 -19.18715 -19.18559 -19.18132 -19.17799
 Alpha  occ. eigenvalues --  -14.42312 -14.42197 -14.41297 -14.41010 -14.39257
 Alpha  occ. eigenvalues --  -14.39054 -14.38443 -14.38280 -10.39517 -10.38929
 Alpha  occ. eigenvalues --  -10.35350 -10.35246 -10.34371 -10.33976 -10.31995
 Alpha  occ. eigenvalues --  -10.31657 -10.31286 -10.30996 -10.30826 -10.30774
 Alpha  occ. eigenvalues --  -10.30427 -10.30365 -10.30074 -10.30026 -10.30022
 Alpha  occ. eigenvalues --  -10.29768 -10.29766 -10.29526 -10.29488 -10.29131
 Alpha  occ. eigenvalues --  -10.29089 -10.29089 -10.28723 -10.28633 -10.28515
 Alpha  occ. eigenvalues --  -10.28505 -10.28257 -10.28133 -10.28044 -10.27905
 Alpha  occ. eigenvalues --  -10.27705 -10.27650 -10.27577 -10.27442 -10.27364
 Alpha  occ. eigenvalues --  -10.27321 -10.27274 -10.27256 -10.27253 -10.27240
 Alpha  occ. eigenvalues --  -10.27236 -10.27193 -10.27178 -10.26949 -10.26947
 Alpha  occ. eigenvalues --  -10.26822 -10.26743 -10.26515 -10.26370 -10.26334
 Alpha  occ. eigenvalues --  -10.26160 -10.25833 -10.25819 -10.25811 -10.25612
 Alpha  occ. eigenvalues --  -10.25516 -10.25400 -10.25276 -10.25204 -10.25101
 Alpha  occ. eigenvalues --  -10.24707 -10.24652 -10.24578 -10.24379 -10.24197
 Alpha  occ. eigenvalues --  -10.23334  -3.16390  -3.16098  -1.91272  -1.90981
 Alpha  occ. eigenvalues --   -1.90858  -1.90701  -1.90569  -1.90406  -1.17019
 Alpha  occ. eigenvalues --   -1.16500  -1.08626  -1.08413  -1.07120  -1.07115
 Alpha  occ. eigenvalues --   -1.06824  -1.06790  -1.04458  -1.04204  -1.03613
 Alpha  occ. eigenvalues --   -1.03347  -1.03086  -1.02701  -1.02266  -1.01788
 Alpha  occ. eigenvalues --   -0.91913  -0.91701  -0.89326  -0.89126  -0.89050
 Alpha  occ. eigenvalues --   -0.88883  -0.88089  -0.87720  -0.87706  -0.87546
 Alpha  occ. eigenvalues --   -0.87452  -0.87367  -0.87127  -0.86882  -0.84925
 Alpha  occ. eigenvalues --   -0.84748  -0.83751  -0.83350  -0.82824  -0.82679
 Alpha  occ. eigenvalues --   -0.82603  -0.82338  -0.81626  -0.81330  -0.80536
 Alpha  occ. eigenvalues --   -0.80171  -0.78645  -0.78347  -0.77084  -0.76895
 Alpha  occ. eigenvalues --   -0.76845  -0.76529  -0.75878  -0.75566  -0.74749
 Alpha  occ. eigenvalues --   -0.74395  -0.72622  -0.72350  -0.71569  -0.71285
 Alpha  occ. eigenvalues --   -0.69635  -0.69100  -0.68795  -0.68543  -0.67549
 Alpha  occ. eigenvalues --   -0.67319  -0.67174  -0.66992  -0.65242  -0.65019
 Alpha  occ. eigenvalues --   -0.64815  -0.64532  -0.64457  -0.64346  -0.64083
 Alpha  occ. eigenvalues --   -0.63696  -0.62380  -0.62002  -0.60293  -0.60055
 Alpha  occ. eigenvalues --   -0.59719  -0.59535  -0.58885  -0.58670  -0.58429
 Alpha  occ. eigenvalues --   -0.58110  -0.57692  -0.57314  -0.57182  -0.56885
 Alpha  occ. eigenvalues --   -0.56306  -0.56047  -0.55905  -0.55662  -0.55467
 Alpha  occ. eigenvalues --   -0.55298  -0.55235  -0.54881  -0.54539  -0.54047
 Alpha  occ. eigenvalues --   -0.53859  -0.53680  -0.53197  -0.53173  -0.53001
 Alpha  occ. eigenvalues --   -0.52960  -0.52817  -0.52666  -0.52624  -0.52490
 Alpha  occ. eigenvalues --   -0.52143  -0.51780  -0.51609  -0.51567  -0.51474
 Alpha  occ. eigenvalues --   -0.51436  -0.51105  -0.50819  -0.50415  -0.50258
 Alpha  occ. eigenvalues --   -0.49907  -0.49756  -0.49735  -0.49554  -0.49322
 Alpha  occ. eigenvalues --   -0.49218  -0.49140  -0.49028  -0.48966  -0.48806
 Alpha  occ. eigenvalues --   -0.48585  -0.48397  -0.48317  -0.48308  -0.48147
 Alpha  occ. eigenvalues --   -0.47985  -0.47607  -0.47301  -0.47193  -0.46845
 Alpha  occ. eigenvalues --   -0.46669  -0.46522  -0.46387  -0.46274  -0.46244
 Alpha  occ. eigenvalues --   -0.46054  -0.45908  -0.45802  -0.45739  -0.45522
 Alpha  occ. eigenvalues --   -0.45040  -0.44782  -0.44546  -0.44392  -0.44289
 Alpha  occ. eigenvalues --   -0.44150  -0.44079  -0.43980  -0.43905  -0.43899
 Alpha  occ. eigenvalues --   -0.43723  -0.43635  -0.43510  -0.43297  -0.43197
 Alpha  occ. eigenvalues --   -0.43090  -0.42919  -0.42845  -0.42677  -0.42591
 Alpha  occ. eigenvalues --   -0.42437  -0.42086  -0.41837  -0.41614  -0.41457
 Alpha  occ. eigenvalues --   -0.41431  -0.41351  -0.41040  -0.40989  -0.40781
 Alpha  occ. eigenvalues --   -0.40735  -0.40706  -0.40555  -0.40392  -0.40370
 Alpha  occ. eigenvalues --   -0.40241  -0.40041  -0.39899  -0.39144  -0.38672
 Alpha  occ. eigenvalues --   -0.38293  -0.37907  -0.37708  -0.37422  -0.37194
 Alpha  occ. eigenvalues --   -0.37151  -0.36962  -0.36943  -0.36801  -0.36548
 Alpha  occ. eigenvalues --   -0.36132  -0.35807  -0.34253  -0.34097  -0.33940
 Alpha  occ. eigenvalues --   -0.33679  -0.33067  -0.32852  -0.31248  -0.31118
 Alpha  occ. eigenvalues --   -0.30930  -0.30668  -0.30005  -0.29702  -0.29306
 Alpha  occ. eigenvalues --   -0.29183  -0.29054  -0.28905  -0.23955  -0.23717
 Alpha  occ. eigenvalues --   -0.20976  -0.20794
 Alpha virt. eigenvalues --   -0.08636  -0.08490  -0.01607  -0.01369   0.00051
 Alpha virt. eigenvalues --    0.00197   0.02283   0.02431   0.02516   0.04446
 Alpha virt. eigenvalues --    0.04600   0.04775   0.05018   0.05339   0.05936

 Mulliken charges:
               1
     1  Mg   0.838760
     2  C   -0.006044
     3  C   -0.092990
     4  C   -0.045769
     5  C   -0.061928
     6  N   -0.256771
     7  C   -0.052797
     8  C   -0.011338
     9  C   -0.087667
    10  C    0.047078
    11  C    0.104878
    12  C    0.046192
    13  C   -0.071691
    14  H    0.032683
    15  N   -0.433269
    16  C    0.169543
    17  C   -0.175838
    18  C   -0.003910
    19  C    0.148815
    20  C    0.109924
    21  C    0.011878
    22  O   -0.250428
    23  C    0.062016
    24  N   -0.341101
    25  C    0.041493
    26  C   -0.027870
    27  C   -0.024187
    28  C    0.074952
    29  C    0.076388
    30  C    0.034789
    31  C   -0.005697
    32  N   -0.310939
    33  C    0.081175
    34  C   -0.167818
    35  C    0.007431
    36  C    0.083988
    37  C    0.127118
    38  C    0.046490
    39  O   -0.188950
    40  C   -0.006945
    41  C    0.219060
    42  O   -0.253631
    43  O   -0.303390
    44  C    0.156777
    45  H   -0.017822
    46  H   -0.017193
    47  H   -0.039907
    48  H   -0.000315
    49  H   -0.003494
    50  H    0.025125
    51  H    0.016815
    52  H    0.016596
    53  H    0.016630
    54  H    0.042298
    55  H    0.018163
    56  H    0.019534
    57  H    0.006170
    58  H    0.025830
    59  H    0.042557
    60  H    0.037730
    61  H    0.033882
    62  H    0.032379
    63  H    0.016429
    64  H    0.009011
    65  H    0.022600
    66  H    0.012007
    67  H    0.004705
    68  H    0.005105
    69  H    0.006452
    70  H    0.005830
    71  H    0.027464
    72  H    0.028111
    73  H    0.048633
    74  H    0.011217
    75  H    0.045206
    76  H    0.035525
    77  H    0.044831
    78  H    0.047778
    79  H    0.051742
    80  Mg   0.836918
    81  C   -0.017932
    82  C   -0.088190
    83  C   -0.046217
    84  C   -0.061230
    85  N   -0.254677
    86  C   -0.049804
    87  C   -0.015138
    88  C   -0.090385
    89  C    0.045403
    90  C    0.114598
    91  C    0.062583
    92  C   -0.077338
    93  H    0.033383
    94  N   -0.423228
    95  C    0.162609
    96  C   -0.175068
    97  C   -0.008668
    98  C    0.151722
    99  C    0.099411
   100  C    0.014042
   101  O   -0.255608
   102  C    0.061342
   103  N   -0.350713
   104  C    0.038130
   105  C   -0.018720
   106  C   -0.033632
   107  C    0.090031
   108  C    0.074699
   109  C    0.035274
   110  C   -0.030433
   111  N   -0.324647
   112  C    0.079475
   113  C   -0.160282
   114  C    0.001501
   115  C    0.096911
   116  C    0.130876
   117  C    0.042420
   118  O   -0.188284
   119  C    0.000856
   120  C    0.211409
   121  O   -0.252162
   122  O   -0.305430
   123  C    0.152457
   124  H   -0.020737
   125  H   -0.017252
   126  H   -0.036052
   127  H   -0.001182
   128  H   -0.004838
   129  H    0.022054
   130  H    0.014386
   131  H    0.015500
   132  H    0.014431
   133  H    0.036885
   134  H    0.020628
   135  H    0.019656
   136  H    0.008487
   137  H    0.024791
   138  H    0.039377
   139  H    0.038799
   140  H    0.032838
   141  H    0.033709
   142  H    0.013276
   143  H    0.010110
   144  H    0.022404
   145  H    0.010404
   146  H    0.004977
   147  H   -0.002022
   148  H    0.010834
   149  H   -0.000428
   150  H    0.055761
   151  H    0.021057
   152  H    0.047162
   153  H    0.013451
   154  H    0.045338
   155  H    0.034475
   156  H    0.043660
   157  H    0.049331
   158  H    0.052379
 Sum of Mulliken charges =  -0.00000

 Dipole moment (field-independent basis, Debye):
    X=              0.7156    Y=              6.4258    Z=             -1.7848  Tot=              6.7073
 Quadrupole moment (field-independent basis, Debye-Ang):
   XX=           -456.9588   YY=           -538.2137   ZZ=           -484.9837
   XY=            -15.4038   XZ=            -20.9446   YZ=              7.4098

 Normal termination of Gaussian 16 at Wed Sep  8 17:22:59 2021.
