 Gaussian 16, Revision A.03,
 Gaussian 16:  ES64L-G16RevA.03 25-Dec-2016

 -----------------------------------
 #p cam-b3lyp/Def2SVP td=(nstates=5)
 -----------------------------------

 --------------------------------
 TDDFT excited states in gaussian
 --------------------------------
 Symbolic Z-matrix:
 Charge =  0 Multiplicity = 1

                         Standard orientation:
 ---------------------------------------------------------------------
 Center     Atomic      Atomic             Coordinates (Angstroms)
 Number     Number       Type             X           Y           Z
 ---------------------------------------------------------------------
      1         12           0       -8.002244   -0.477458    0.039624
      2          6           0       -8.074926    3.101156    0.018361
      3          6           0       -8.839470   -0.365779   -3.266377
      4          6           0       -8.388918   -3.623314    0.143041
      5          6           0       -8.293987   -0.315699    3.508685
      6          7           0       -8.380034    1.213707   -1.338013
      7          6           0       -8.316761    2.537663   -1.236484
      8          6           0       -8.456757    3.269611   -2.604704
      9          6           0       -9.242587    2.142729   -3.413783
     10          6           0       -8.766053    0.919156   -2.651085
     11          6           0      -10.758843    2.243711   -3.282359
     12          6           0       -7.067898    3.580385   -3.257561
     13          6           0       -7.101351    4.572965   -4.423332
     14          1           0       -5.989696    5.497301   -4.588173
     15          7           0       -8.055221   -1.810359   -1.417571
     16          6           0       -8.403233   -1.586555   -2.707565
     17          6           0       -8.283619   -2.890777   -3.394135
     18          6           0       -8.021389   -3.928037   -2.358074
     19          6           0       -8.172673   -3.156077   -1.151190
     20          6           0       -8.368352   -3.048593   -4.881302
     21          6           0       -7.697774   -5.386237   -2.442077
     22          8           0       -7.736805   -6.151665   -1.418763
     23          6           0       -7.416307   -5.920274   -3.786928
     24          7           0       -8.519545   -1.794913    1.574012
     25          6           0       -8.559844   -3.115455    1.365379
     26          6           0       -8.672263   -3.869181    2.657353
     27          6           0       -8.455180   -2.793296    3.817137
     28          6           0       -8.329944   -1.523020    2.940220
     29          6           0       -9.997834   -4.607855    2.888076
     30          6           0       -7.339534   -3.088954    4.850743
     31          6           0       -5.986190   -3.017986    4.179534
     32          7           0       -7.981037    1.088800    1.542099
     33          6           0       -8.141919    0.931537    2.926317
     34          6           0       -8.163316    2.283203    3.515052
     35          6           0       -8.029157    3.138978    2.423495
     36          6           0       -7.956598    2.371451    1.226027
     37          6           0       -8.352033    2.589724    4.891593
     38          6           0       -7.954981    4.524106    1.987864
     39          8           0       -7.872189    5.610605    2.562458
     40          6           0       -8.104151    4.559536    0.402834
     41          6           0       -7.018435    5.450676   -0.136053
     42          8           0       -5.817980    5.121167   -0.048322
     43          8           0       -7.569593    6.426157   -0.874432
     44          6           0       -6.544616    7.328926   -1.463146
     45          1           0       -9.327780   -0.458392   -4.238445
     46          1           0       -8.417239   -4.710971    0.235981
     47          1           0       -8.297015   -0.189709    4.592922
     48          1           0       -9.047802    4.185047   -2.572042
     49          1           0       -8.921434    2.089764   -4.453868
     50          1           0      -11.045861    2.996829   -2.548632
     51          1           0      -11.089762    1.255338   -2.962819
     52          1           0      -11.221401    2.414701   -4.254767
     53          1           0       -6.709526    2.693159   -3.779538
     54          1           0       -6.358231    3.929786   -2.506817
     55          1           0       -8.051279    5.106618   -4.465299
     56          1           0       -7.066996    4.007395   -5.354541
     57          1           0       -8.731503   -2.140221   -5.360392
     58          1           0       -9.143491   -3.788636   -5.079306
     59          1           0       -7.424144   -3.380648   -5.313206
     60          1           0       -8.280484   -5.750744   -4.429584
     61          1           0       -7.118343   -6.958098   -3.642056
     62          1           0       -6.592693   -5.356185   -4.225577
     63          1           0       -7.901281   -4.635007    2.731675
     64          1           0       -9.351093   -2.659528    4.423867
     65          1           0       -9.878084   -5.676584    3.067468
     66          1           0      -10.639665   -4.425417    2.026647
     67          1           0      -10.606847   -4.211175    3.699966
     68          1           0       -7.448142   -4.097670    5.247785
     69          1           0       -7.340479   -2.398599    5.694343
     70          1           0       -5.880589   -4.008844    3.739216
     71          1           0       -5.204806   -2.833394    4.917488
     72          1           0       -5.984472   -2.296400    3.362346
     73          1           0       -7.627391    3.367248    5.133086
     74          1           0       -8.210359    1.708288    5.516574
     75          1           0       -9.386413    2.932976    4.882068
     76          1           0       -9.098400    4.951188    0.190231
     77          1           0       -6.791518    8.343058   -1.148804
     78          1           0       -6.526517    7.121130   -2.533145
     79          1           0       -5.532705    7.231695   -1.068275
     80         12           0        7.871077   -1.052857    0.200373
     81          6           0        8.762148    2.422933    0.262988
     82          6           0        7.977440   -0.865157   -3.203752
     83          6           0        6.652936   -3.980911    0.099988
     84          6           0        6.736551   -0.678127    3.474223
     85          7           0        8.324312    0.618257   -1.175931
     86          6           0        8.709679    1.877815   -1.036828
     87          6           0        9.135796    2.569857   -2.359355
     88          6           0        8.309622    1.653522   -3.387280
     89          6           0        8.223923    0.373212   -2.558936
     90          6           0        6.897340    2.154812   -3.639252
     91          6           0       10.680702    2.470526   -2.615126
     92          6           0       11.209276    3.384728   -3.722634
     93          1           0       12.536539    3.973025   -3.565292
     94          7           0        7.851483   -2.385976   -1.269664
     95          6           0        7.926467   -2.137976   -2.594108
     96          6           0        7.850523   -3.450514   -3.254123
     97          6           0        7.558946   -4.479675   -2.219455
     98          6           0        7.317258   -3.634275   -1.067520
     99          6           0        8.125366   -3.642656   -4.717327
    100          6           0        7.494174   -5.976376   -2.262938
    101          8           0        6.989542   -6.656745   -1.301028
    102          6           0        7.953357   -6.616662   -3.504185
    103          7           0        6.652288   -2.118415    1.504781
    104          6           0        6.312202   -3.393540    1.247242
    105          6           0        5.665805   -4.039183    2.449622
    106          6           0        5.862376   -3.002604    3.651482
    107          6           0        6.539460   -1.847674    2.881374
    108          6           0        4.181844   -4.376348    2.306283
    109          6           0        6.551005   -3.537700    4.936838
    110          6           0        7.997892   -3.867222    4.648167
    111          7           0        7.922478    0.506016    1.695471
    112          6           0        7.364947    0.462971    2.992151
    113          6           0        7.554361    1.799622    3.592083
    114          6           0        8.193460    2.540198    2.586312
    115          6           0        8.370449    1.728719    1.433204
    116          6           0        7.113349    2.201488    4.884421
    117          6           0        8.749078    3.827037    2.234121
    118          8           0        8.959480    4.877416    2.839232
    119          6           0        9.028305    3.845796    0.669491
    120          6           0       10.413803    4.389277    0.451405
    121          8           0       11.409536    3.760599    0.851274
    122          8           0       10.347017    5.445861   -0.378984
    123          6           0       11.697934    6.012884   -0.634554
    124          1           0        7.760507   -0.859572   -4.272298
    125          1           0        6.310751   -5.016775    0.157972
    126          1           0        6.498383   -0.509642    4.526636
    127          1           0        8.825944    3.603937   -2.451254
    128          1           0        8.871812    1.479525   -4.301085
    129          1           0        6.641674    2.980940   -2.992498
    130          1           0        6.247340    1.310656   -3.449623
    131          1           0        6.768428    2.402882   -4.696687
    132          1           0       10.908539    1.491158   -3.055195
    133          1           0       11.228796    2.645510   -1.709801
    134          1           0       10.479608    4.152867   -4.006345
    135          1           0       11.339585    2.790561   -4.630379
    136          1           0        8.149657   -2.684664   -5.251239
    137          1           0        7.260829   -4.166745   -5.138953
    138          1           0        9.023291   -4.235926   -4.902888
    139          1           0        7.364773   -6.246869   -4.340417
    140          1           0        7.914828   -7.690416   -3.310688
    141          1           0        8.989925   -6.314553   -3.690936
    142          1           0        6.161157   -4.968555    2.702565
    143          1           0        4.899988   -2.615048    4.016794
    144          1           0        3.958575   -5.446032    2.479521
    145          1           0        3.857175   -4.075147    1.319167
    146          1           0        3.514673   -3.808215    2.952280
    147          1           0        6.079048   -4.468933    5.259673
    148          1           0        6.503980   -2.846524    5.771732
    149          1           0        7.941009   -4.870999    4.216564
    150          1           0        8.581851   -3.864873    5.566327
    151          1           0        8.407615   -3.200916    3.880169
    152          1           0        7.922369    2.766766    5.327646
    153          1           0        6.844271    1.343698    5.497246
    154          1           0        6.241157    2.802941    4.614573
    155          1           0        8.265003    4.473465    0.207989
    156          1           0       11.655229    7.073206   -0.367011
    157          1           0       11.930220    5.768177   -1.688074
    158          1           0       12.512509    5.669259   -0.007781
 ---------------------------------------------------------------------

 SCF Done:  E(RCAM-B3LYP) =  -4069.81169719     A.U. after   19 cycles

 Excitation energies and oscillator strengths:

 Excited State   1:      Singlet-A      1.6698 eV  742.50 nm  f=0.0167  <S**2>=0.000
     309 -> 315       -0.10331
     310 -> 316        0.13808
     311 -> 313       -0.40976
     312 -> 314        0.55062
 This state for optimization and/or second-order correction.
 Total Energy, E(TD-HF/TD-DFT) =  -4069.75033252
 Copying the excited state density for this state as the 1-particle RhoCI density.

 Excited State   2:      Singlet-A      1.6853 eV  735.68 nm  f=0.7401  <S**2>=0.000
     309 -> 315        0.14198
     310 -> 316        0.10510
     311 -> 313        0.54980
     312 -> 314        0.40923

 Excited State   3:      Singlet-A      2.1854 eV  567.33 nm  f=0.0629  <S**2>=0.000
     309 -> 313       -0.13304
     310 -> 314        0.62883
     312 -> 316       -0.26677

 Excited State   4:      Singlet-A      2.1929 eV  565.38 nm  f=0.1313  <S**2>=0.000
     309 -> 313        0.62684
     310 -> 314        0.13196
     311 -> 315       -0.27254

 Excited State   5:      Singlet-A      2.7710 eV  447.44 nm  f=0.0000  <S**2>=0.000
     312 -> 313        0.70709

 The electronic state is 1-A.
 Alpha  occ. eigenvalues --  -46.87816 -46.87589 -19.26296 -19.26286 -19.19097
 Alpha  occ. eigenvalues --  -19.19033 -19.18830 -19.18657 -19.18182 -19.17974
 Alpha  occ. eigenvalues --  -14.42470 -14.42427 -14.41469 -14.41286 -14.39422
 Alpha  occ. eigenvalues --  -14.39282 -14.38605 -14.38526 -10.39093 -10.39025
 Alpha  occ. eigenvalues --  -10.35463 -10.35336 -10.34402 -10.34151 -10.31699
 Alpha  occ. eigenvalues --  -10.31690 -10.31425 -10.31237 -10.30958 -10.30929
 Alpha  occ. eigenvalues --  -10.30588 -10.30525 -10.30324 -10.30287 -10.30226
 Alpha  occ. eigenvalues --  -10.30070 -10.29938 -10.29817 -10.29648 -10.29367
 Alpha  occ. eigenvalues --  -10.29330 -10.29273 -10.28772 -10.28658 -10.28610
 Alpha  occ. eigenvalues --  -10.28572 -10.28383 -10.28335 -10.28139 -10.28077
 Alpha  occ. eigenvalues --  -10.27928 -10.27810 -10.27747 -10.27602 -10.27601
 Alpha  occ. eigenvalues --  -10.27521 -10.27505 -10.27467 -10.27441 -10.27422
 Alpha  occ. eigenvalues --  -10.27420 -10.27413 -10.27399 -10.27298 -10.27172
 Alpha  occ. eigenvalues --  -10.26976 -10.26734 -10.26640 -10.26425 -10.26374
 Alpha  occ. eigenvalues --  -10.26254 -10.26209 -10.26069 -10.26039 -10.25958
 Alpha  occ. eigenvalues --  -10.25860 -10.25855 -10.25755 -10.25450 -10.25309
 Alpha  occ. eigenvalues --  -10.24849 -10.24806 -10.24798 -10.24719 -10.24668
 Alpha  occ. eigenvalues --  -10.24617  -3.16559  -3.16338  -1.91441  -1.91221
 Alpha  occ. eigenvalues --   -1.91027  -1.90869  -1.90809  -1.90646  -1.16645
 Alpha  occ. eigenvalues --   -1.16580  -1.08639  -1.08581  -1.07231  -1.06910
 Alpha  occ. eigenvalues --   -1.06881  -1.06655  -1.04601  -1.04425  -1.03779
 Alpha  occ. eigenvalues --   -1.03592  -1.03252  -1.02966  -1.02430  -1.02039
 Alpha  occ. eigenvalues --   -0.91989  -0.91915  -0.89540  -0.89422  -0.89211
 Alpha  occ. eigenvalues --   -0.89088  -0.88306  -0.88147  -0.87886  -0.87714
 Alpha  occ. eigenvalues --   -0.87693  -0.87615  -0.87292  -0.87061  -0.85004
 Alpha  occ. eigenvalues --   -0.84936  -0.83956  -0.83803  -0.82985  -0.82874
 Alpha  occ. eigenvalues --   -0.82668  -0.82591  -0.81602  -0.81529  -0.80614
 Alpha  occ. eigenvalues --   -0.80376  -0.78816  -0.78569  -0.77239  -0.77078
 Alpha  occ. eigenvalues --   -0.76955  -0.76832  -0.75942  -0.75772  -0.74916
 Alpha  occ. eigenvalues --   -0.74728  -0.72793  -0.72626  -0.71690  -0.71509
 Alpha  occ. eigenvalues --   -0.69930  -0.69687  -0.68894  -0.68764  -0.67659
 Alpha  occ. eigenvalues --   -0.67533  -0.67243  -0.67143  -0.65308  -0.65207
 Alpha  occ. eigenvalues --   -0.64872  -0.64700  -0.64640  -0.64587  -0.64289
 Alpha  occ. eigenvalues --   -0.64132  -0.62313  -0.62211  -0.60460  -0.60275
 Alpha  occ. eigenvalues --   -0.59825  -0.59730  -0.59006  -0.58921  -0.58521
 Alpha  occ. eigenvalues --   -0.58355  -0.57599  -0.57482  -0.57326  -0.57167
 Alpha  occ. eigenvalues --   -0.56327  -0.56135  -0.55994  -0.55823  -0.55538
 Alpha  occ. eigenvalues --   -0.55389  -0.55357  -0.55175  -0.54541  -0.54418
 Alpha  occ. eigenvalues --   -0.53917  -0.53850  -0.53317  -0.53241  -0.53160
 Alpha  occ. eigenvalues --   -0.53078  -0.52932  -0.52837  -0.52776  -0.52614
 Alpha  occ. eigenvalues --   -0.52461  -0.52333  -0.51929  -0.51798  -0.51637
 Alpha  occ. eigenvalues --   -0.51599  -0.51214  -0.51130  -0.50592  -0.50422
 Alpha  occ. eigenvalues --   -0.50052  -0.49937  -0.49917  -0.49797  -0.49534
 Alpha  occ. eigenvalues --   -0.49427  -0.49231  -0.49136  -0.49116  -0.49035
 Alpha  occ. eigenvalues --   -0.48610  -0.48490  -0.48478  -0.48461  -0.48301
 Alpha  occ. eigenvalues --   -0.48278  -0.47714  -0.47531  -0.47315  -0.47053
 Alpha  occ. eigenvalues --   -0.46817  -0.46640  -0.46577  -0.46492  -0.46377
 Alpha  occ. eigenvalues --   -0.46201  -0.46179  -0.46010  -0.45837  -0.45748
 Alpha  occ. eigenvalues --   -0.45220  -0.45134  -0.44593  -0.44528  -0.44446
 Alpha  occ. eigenvalues --   -0.44411  -0.44164  -0.44109  -0.44061  -0.44036
 Alpha  occ. eigenvalues --   -0.44012  -0.43877  -0.43510  -0.43486  -0.43406
 Alpha  occ. eigenvalues --   -0.43317  -0.43045  -0.42864  -0.42829  -0.42715
 Alpha  occ. eigenvalues --   -0.42674  -0.42485  -0.42031  -0.41897  -0.41721
 Alpha  occ. eigenvalues --   -0.41597  -0.41556  -0.41395  -0.41160  -0.40919
 Alpha  occ. eigenvalues --   -0.40892  -0.40841  -0.40665  -0.40637  -0.40591
 Alpha  occ. eigenvalues --   -0.40422  -0.40260  -0.40172  -0.39465  -0.39355
 Alpha  occ. eigenvalues --   -0.38490  -0.38278  -0.37773  -0.37595  -0.37340
 Alpha  occ. eigenvalues --   -0.37285  -0.37195  -0.37134  -0.36728  -0.36705
 Alpha  occ. eigenvalues --   -0.36210  -0.36147  -0.34305  -0.34182  -0.33796
 Alpha  occ. eigenvalues --   -0.33784  -0.33204  -0.33104  -0.31360  -0.31215
 Alpha  occ. eigenvalues --   -0.31054  -0.30902  -0.30041  -0.29878  -0.29467
 Alpha  occ. eigenvalues --   -0.29338  -0.29260  -0.29136  -0.24099  -0.23964
 Alpha  occ. eigenvalues --   -0.21146  -0.21046
 Alpha virt. eigenvalues --   -0.08792  -0.08721  -0.01768  -0.01613  -0.00075
 Alpha virt. eigenvalues --    0.00035   0.02185   0.02283   0.03097   0.03290
 Alpha virt. eigenvalues --    0.04696   0.04798   0.05085   0.05231   0.06151

 Mulliken charges:
               1
     1  Mg   0.838662
     2  C   -0.002991
     3  C   -0.094204
     4  C   -0.045846
     5  C   -0.063998
     6  N   -0.256772
     7  C   -0.052477
     8  C   -0.014008
     9  C   -0.086979
    10  C    0.046293
    11  C    0.104808
    12  C    0.053506
    13  C   -0.071728
    14  H    0.035970
    15  N   -0.433148
    16  C    0.168401
    17  C   -0.177204
    18  C   -0.003981
    19  C    0.148690
    20  C    0.110202
    21  C    0.012322
    22  O   -0.249515
    23  C    0.062466
    24  N   -0.341144
    25  C    0.041215
    26  C   -0.028181
    27  C   -0.023992
    28  C    0.074842
    29  C    0.076148
    30  C    0.035126
    31  C   -0.004488
    32  N   -0.310496
    33  C    0.080402
    34  C   -0.169701
    35  C    0.008414
    36  C    0.082987
    37  C    0.127303
    38  C    0.046161
    39  O   -0.188240
    40  C   -0.005343
    41  C    0.212908
    42  O   -0.257115
    43  O   -0.304790
    44  C    0.157632
    45  H   -0.017638
    46  H   -0.016777
    47  H   -0.041469
    48  H    0.000996
    49  H   -0.004146
    50  H    0.025530
    51  H    0.016485
    52  H    0.016637
    53  H    0.011050
    54  H    0.044133
    55  H    0.017972
    56  H    0.017799
    57  H    0.005791
    58  H    0.026861
    59  H    0.039405
    60  H    0.037306
    61  H    0.035797
    62  H    0.031411
    63  H    0.016568
    64  H    0.009530
    65  H    0.023273
    66  H    0.012575
    67  H    0.004789
    68  H    0.006412
    69  H    0.004739
    70  H    0.008840
    71  H    0.017842
    72  H    0.028976
    73  H    0.047681
    74  H    0.009084
    75  H    0.046085
    76  H    0.035194
    77  H    0.043100
    78  H    0.046269
    79  H    0.053782
    80  Mg   0.837962
    81  C   -0.016829
    82  C   -0.087875
    83  C   -0.045518
    84  C   -0.064557
    85  N   -0.254555
    86  C   -0.049702
    87  C   -0.015121
    88  C   -0.090536
    89  C    0.045790
    90  C    0.114402
    91  C    0.062575
    92  C   -0.077789
    93  H    0.034736
    94  N   -0.423460
    95  C    0.162890
    96  C   -0.174825
    97  C   -0.007911
    98  C    0.152067
    99  C    0.099472
   100  C    0.015456
   101  O   -0.253230
   102  C    0.061251
   103  N   -0.350024
   104  C    0.037597
   105  C   -0.019869
   106  C   -0.034873
   107  C    0.088999
   108  C    0.073578
   109  C    0.034726
   110  C   -0.007650
   111  N   -0.324174
   112  C    0.078525
   113  C   -0.162852
   114  C    0.002393
   115  C    0.096280
   116  C    0.131444
   117  C    0.042610
   118  O   -0.187659
   119  C    0.000828
   120  C    0.211221
   121  O   -0.251132
   122  O   -0.305559
   123  C    0.152072
   124  H   -0.019969
   125  H   -0.015622
   126  H   -0.040250
   127  H   -0.000582
   128  H   -0.004594
   129  H    0.022816
   130  H    0.014559
   131  H    0.015909
   132  H    0.013829
   133  H    0.037670
   134  H    0.020775
   135  H    0.019422
   136  H    0.008558
   137  H    0.025807
   138  H    0.039574
   139  H    0.038044
   140  H    0.036238
   141  H    0.033806
   142  H    0.014229
   143  H    0.012803
   144  H    0.025026
   145  H    0.011815
   146  H    0.006017
   147  H    0.006182
   148  H    0.003707
   149  H    0.010845
   150  H    0.017811
   151  H    0.030084
   152  H    0.045917
   153  H    0.008488
   154  H    0.047778
   155  H    0.035357
   156  H    0.043927
   157  H    0.049355
   158  H    0.053499
 Sum of Mulliken charges =  -0.00000

 Dipole moment (field-independent basis, Debye):
    X=             -3.3031    Y=             -2.3384    Z=             -7.9627  Tot=              8.9321
 Quadrupole moment (field-independent basis, Debye-Ang):
   XX=           -502.6530   YY=           -556.0779   ZZ=           -445.8901
   XY=             -2.3408   XZ=            -19.5125   YZ=            -39.2996

 Normal termination of Gaussian 16 at Sat Sep 11 23:54:04 2021.
