 Gaussian 16, Revision A.03,
 Gaussian 16:  ES64L-G16RevA.03 25-Dec-2016

 -----------------------------------
 #p cam-b3lyp/Def2SVP td=(nstates=5)
 -----------------------------------

 --------------------------------
 TDDFT excited states in gaussian
 --------------------------------
 Symbolic Z-matrix:
 Charge =  0 Multiplicity = 1

                         Standard orientation:
 ---------------------------------------------------------------------
 Center     Atomic      Atomic             Coordinates (Angstroms)
 Number     Number       Type             X           Y           Z
 ---------------------------------------------------------------------
      1         12           0       -7.831598   -0.738934   -0.157310
      2          6           0       -8.123593    1.996846    2.132333
      3          6           0       -8.672059    1.444297   -2.641297
      4          6           0       -8.024685   -3.219548   -2.123497
      5          6           0       -8.134850   -2.871699    2.582218
      6          7           0       -8.311540    1.422012   -0.132517
      7          6           0       -8.329642    2.367620    0.801651
      8          6           0       -8.513419    3.802989    0.224317
      9          6           0       -9.228164    3.431313   -1.151544
     10          6           0       -8.677960    2.028557   -1.339898
     11          6           0      -10.747839    3.352920   -1.046938
     12          6           0       -7.145831    4.526114   -0.017600
     13          6           0       -7.239374    6.034054   -0.268043
     14          1           0       -6.186395    6.896140    0.247119
     15          7           0       -7.801836   -0.814565   -2.131200
     16          6           0       -8.162123    0.173596   -2.985027
     17          6           0       -7.962329   -0.370324   -4.345510
     18          6           0       -7.637619   -1.817832   -4.213684
     19          6           0       -7.836704   -2.017077   -2.800869
     20          6           0       -8.036307    0.466870   -5.585423
     21          6           0       -7.225136   -2.859057   -5.205571
     22          8           0       -7.217784   -4.105280   -4.920178
     23          6           0       -6.910620   -2.383391   -6.564932
     24          7           0       -8.268077   -2.758121    0.142698
     25          6           0       -8.227188   -3.630829   -0.870067
     26          6           0       -8.293968   -5.045209   -0.375083
     27          6           0       -8.143989   -4.965455    1.212651
     28          6           0       -8.096349   -3.425381    1.368125
     29          6           0       -9.571886   -5.818408   -0.728776
     30          6           0       -7.012948   -5.806993    1.855288
     31          6           0       -5.666090   -5.256284    1.443230
     32          7           0       -7.907410   -0.516325    2.000407
     33          6           0       -8.059198   -1.538326    2.948643
     34          6           0       -8.163810   -0.890476    4.269027
     35          6           0       -8.081712    0.473079    3.993671
     36          6           0       -7.961482    0.665962    2.587743
     37          6           0       -8.371817   -1.555596    5.509504
     38          6           0       -8.092352    1.813004    4.557893
     39          8           0       -8.076700    2.272881    5.700592
     40          6           0       -8.242436    2.857639    3.365401
     41          6           0       -7.213083    3.935026    3.572712
     42          8           0       -5.994734    3.683061    3.475215
     43          8           0       -7.822571    5.129657    3.616568
     44          6           0       -6.854523    6.245289    3.790928
     45          1           0       -9.153172    1.979462   -3.462315
     46          1           0       -7.986308   -4.109279   -2.755434
     47          1           0       -8.146267   -3.476745    3.490646
     48          1           0       -9.159512    4.451634    0.816135
     49          1           0       -8.903727    4.078192   -1.966412
     50          1           0      -11.080956    3.438880   -0.012740
     51          1           0      -11.017720    2.378288   -1.454064
     52          1           0      -11.219414    4.090254   -1.697116
     53          1           0       -6.733402    4.204455   -0.973894
     54          1           0       -6.459389    4.339850    0.809098
     55          1           0       -8.220214    6.423531    0.006125
     56          1           0       -7.169825    6.206860   -1.342055
     57          1           0       -8.454186    1.451508   -5.379486
     58          1           0       -8.764480   -0.004704   -6.245038
     59          1           0       -7.073246    0.536974   -6.091319
     60          1           0       -7.783170   -1.878955   -6.980563
     61          1           0       -6.549660   -3.253601   -7.112008
     62          1           0       -6.122879   -1.632035   -6.502655
     63          1           0       -7.477518   -5.640721   -0.781532
     64          1           0       -9.046792   -5.297339    1.725947
     65          1           0       -9.386931   -6.742737   -1.276601
     66          1           0      -10.223166   -5.152410   -1.294084
     67          1           0      -10.204580   -6.069369    0.122185
     68          1           0       -7.059736   -6.836902    1.503088
     69          1           0       -7.056748   -5.826583    2.944300
     70          1           0       -5.499652   -5.721380    0.472243
     71          1           0       -4.897952   -5.556469    2.156717
     72          1           0       -5.708124   -4.178423    1.285328
     73          1           0       -7.696371   -1.085931    6.224457
     74          1           0       -8.176741   -2.624300    5.423376
     75          1           0       -9.425295   -1.336013    5.682200
     76          1           0       -9.258701    3.247215    3.415984
     77          1           0       -7.163347    6.802986    4.675143
     78          1           0       -6.823056    6.779530    2.841190
     79          1           0       -5.838798    5.962939    4.070070
     80         12           0        8.032289   -0.540979    0.240069
     81          6           0        7.261780    1.879888   -2.294638
     82          6           0        9.693520    1.938066    1.892106
     83          6           0        9.106774   -2.741577    2.257564
     84          6           0        7.323930   -3.018312   -2.106582
     85          7           0        8.363989    1.592505   -0.239990
     86          6           0        7.971333    2.416266   -1.199980
     87          6           0        8.291362    3.911889   -0.934917
     88          6           0        9.521772    3.718526    0.078775
     89          6           0        9.159662    2.346567    0.643817
     90          6           0       10.866178    3.607249   -0.620896
     91          6           0        7.097383    4.666635   -0.251687
     92          6           0        7.220603    6.191935   -0.244437
     93          1           0        6.005881    6.989060   -0.391056
     94          7           0        8.795359   -0.349697    2.062077
     95          6           0        9.414189    0.734173    2.575450
     96          6           0        9.809067    0.362006    3.942828
     97          6           0        9.519224   -1.084655    4.137440
     98          6           0        9.140217   -1.461111    2.790322
     99          6           0       10.324597    1.358136    4.940502
    100          6           0        9.586027   -1.983686    5.334723
    101          8           0        9.518910   -3.258847    5.223835
    102          6           0        9.825994   -1.332601    6.630865
    103          7           0        8.398550   -2.577777    0.040824
    104          6           0        8.813191   -3.311372    1.088601
    105          6           0        8.744202   -4.788355    0.781800
    106          6           0        7.965115   -4.902070   -0.610210
    107          6           0        7.789211   -3.400326   -0.925169
    108          6           0       10.087973   -5.508653    0.672950
    109          6           0        6.709456   -5.815865   -0.641330
    110          6           0        5.614752   -5.217985    0.212810
    111          7           0        7.230739   -0.600152   -1.765437
    112          6           0        7.041516   -1.741538   -2.575072
    113          6           0        6.580413   -1.266851   -3.895858
    114          6           0        6.555227    0.130228   -3.769236
    115          6           0        6.990576    0.501113   -2.468305
    116          6           0        6.296821   -2.088915   -5.022758
    117          6           0        6.269498    1.376070   -4.443718
    118          8           0        5.785600    1.683426   -5.532348
    119          6           0        6.835014    2.570270   -3.560290
    120          6           0        5.763135    3.620592   -3.458240
    121          8           0        4.698916    3.381638   -2.860791
    122          8           0        6.255390    4.795958   -3.890180
    123          6           0        5.232624    5.871711   -3.797976
    124          1           0       10.429235    2.580373    2.376924
    125          1           0        9.362686   -3.547100    2.949762
    126          1           0        6.988071   -3.733298   -2.860683
    127          1           0        8.612017    4.469267   -1.806858
    128          1           0        9.508446    4.469920    0.864011
    129          1           0       10.758871    3.557974   -1.694294
    130          1           0       11.319756    2.699930   -0.243960
    131          1           0       11.522495    4.424571   -0.308522
    132          1           0        7.121106    4.471088    0.828099
    133          1           0        6.162995    4.381700   -0.694799
    134          1           0        7.997954    6.545943   -0.932445
    135          1           0        7.571384    6.507057    0.741295
    136          1           0       10.585526    2.309619    4.460914
    137          1           0       11.278954    0.971694    5.314320
    138          1           0        9.645658    1.499283    5.784174
    139          1           0       10.763612   -0.783298    6.590971
    140          1           0        9.751527   -2.127547    7.375443
    141          1           0        9.035417   -0.593666    6.802876
    142          1           0        8.182411   -5.315631    1.543029
    143          1           0        8.605352   -5.316498   -1.402798
    144          1           0       10.182372   -6.363871    1.368487
    145          1           0       10.876382   -4.788404    0.846684
    146          1           0       10.332004   -5.883392   -0.319635
    147          1           0        6.941186   -6.792736   -0.209863
    148          1           0        6.325456   -5.988346   -1.641225
    149          1           0        5.878084   -5.552008    1.220872
    150          1           0        4.641719   -5.600859   -0.088264
    151          1           0        5.663396   -4.122895    0.205187
    152          1           0        5.379272   -1.715393   -5.457602
    153          1           0        6.205957   -3.135274   -4.738774
    154          1           0        7.188012   -1.903849   -5.628394
    155          1           0        7.731613    2.946967   -4.054029
    156          1           0        5.139499    6.310435   -4.796243
    157          1           0        5.573537    6.539103   -2.984268
    158          1           0        4.209146    5.574683   -3.601189
 ---------------------------------------------------------------------

 SCF Done:  E(RCAM-B3LYP) =  -4069.81179438     A.U. after   19 cycles

 Excitation energies and oscillator strengths:

 Excited State   1:      Singlet-A      1.6705 eV  742.18 nm  f=0.0557  <S**2>=0.000
     309 -> 315        0.14013
     310 -> 316        0.10079
     311 -> 313        0.55795
     312 -> 314        0.39969
 This state for optimization and/or second-order correction.
 Total Energy, E(TD-HF/TD-DFT) =  -4069.75040319
 Copying the excited state density for this state as the 1-particle RhoCI density.

 Excited State   2:      Singlet-A      1.6850 eV  735.82 nm  f=0.7055  <S**2>=0.000
     309 -> 315       -0.10252
     310 -> 316        0.14378
     311 -> 313       -0.39920
     312 -> 314        0.55716

 Excited State   3:      Singlet-A      2.1857 eV  567.25 nm  f=0.0587  <S**2>=0.000
     309 -> 313        0.62774
     310 -> 314       -0.13809
     311 -> 315       -0.26641

 Excited State   4:      Singlet-A      2.1930 eV  565.35 nm  f=0.1345  <S**2>=0.000
     309 -> 313        0.13712
     310 -> 314        0.62577
     312 -> 316       -0.27203

 Excited State   5:      Singlet-A      2.7772 eV  446.44 nm  f=0.0000  <S**2>=0.000
     312 -> 313        0.70707

 The electronic state is 1-A.
 Alpha  occ. eigenvalues --  -46.87626 -46.87604 -19.26327 -19.26144 -19.19128
 Alpha  occ. eigenvalues --  -19.18869 -19.18652 -19.18636 -19.18018 -19.18016
 Alpha  occ. eigenvalues --  -14.42443 -14.42283 -14.41305 -14.41286 -14.39295
 Alpha  occ. eigenvalues --  -14.39231 -14.38546 -14.38420 -10.39058 -10.38929
 Alpha  occ. eigenvalues --  -10.35329 -10.35268 -10.34239 -10.34193 -10.31748
 Alpha  occ. eigenvalues --  -10.31552 -10.31259 -10.31243 -10.30969 -10.30739
 Alpha  occ. eigenvalues --  -10.30406 -10.30344 -10.30343 -10.30309 -10.30084
 Alpha  occ. eigenvalues --  -10.30042 -10.29843 -10.29764 -10.29464 -10.29380
 Alpha  occ. eigenvalues --  -10.29347 -10.29085 -10.28670 -10.28604 -10.28585
 Alpha  occ. eigenvalues --  -10.28373 -10.28352 -10.28197 -10.28093 -10.27957
 Alpha  occ. eigenvalues --  -10.27951 -10.27629 -10.27616 -10.27561 -10.27464
 Alpha  occ. eigenvalues --  -10.27432 -10.27413 -10.27411 -10.27403 -10.27353
 Alpha  occ. eigenvalues --  -10.27324 -10.27303 -10.27293 -10.27239 -10.27014
 Alpha  occ. eigenvalues --  -10.27007 -10.26634 -10.26526 -10.26343 -10.26209
 Alpha  occ. eigenvalues --  -10.26089 -10.26077 -10.26040 -10.25987 -10.25880
 Alpha  occ. eigenvalues --  -10.25857 -10.25814 -10.25703 -10.25354 -10.25302
 Alpha  occ. eigenvalues --  -10.24824 -10.24670 -10.24659 -10.24637 -10.24625
 Alpha  occ. eigenvalues --  -10.24532  -3.16369  -3.16353  -1.91250  -1.91235
 Alpha  occ. eigenvalues --   -1.90837  -1.90824  -1.90679  -1.90661  -1.16619
 Alpha  occ. eigenvalues --   -1.16491  -1.08625  -1.08478  -1.07037  -1.06914
 Alpha  occ. eigenvalues --   -1.06904  -1.06493  -1.04442  -1.04414  -1.03609
 Alpha  occ. eigenvalues --   -1.03596  -1.03067  -1.02985  -1.02246  -1.02058
 Alpha  occ. eigenvalues --   -0.91939  -0.91811  -0.89440  -0.89363  -0.89102
 Alpha  occ. eigenvalues --   -0.89025  -0.88167  -0.88133  -0.87747  -0.87713
 Alpha  occ. eigenvalues --   -0.87631  -0.87508  -0.87096  -0.87061  -0.84949
 Alpha  occ. eigenvalues --   -0.84818  -0.83823  -0.83786  -0.82871  -0.82790
 Alpha  occ. eigenvalues --   -0.82601  -0.82484  -0.81559  -0.81435  -0.80435
 Alpha  occ. eigenvalues --   -0.80396  -0.78626  -0.78581  -0.77093  -0.77058
 Alpha  occ. eigenvalues --   -0.76853  -0.76780  -0.75796  -0.75768  -0.74755
 Alpha  occ. eigenvalues --   -0.74748  -0.72648  -0.72613  -0.71533  -0.71516
 Alpha  occ. eigenvalues --   -0.69755  -0.69700  -0.68777  -0.68709  -0.67551
 Alpha  occ. eigenvalues --   -0.67477  -0.67144  -0.67047  -0.65223  -0.65124
 Alpha  occ. eigenvalues --   -0.64721  -0.64695  -0.64607  -0.64463  -0.64151
 Alpha  occ. eigenvalues --   -0.64113  -0.62242  -0.62149  -0.60283  -0.60271
 Alpha  occ. eigenvalues --   -0.59746  -0.59641  -0.58943  -0.58828  -0.58378
 Alpha  occ. eigenvalues --   -0.58344  -0.57516  -0.57431  -0.57185  -0.57150
 Alpha  occ. eigenvalues --   -0.56156  -0.56148  -0.55849  -0.55829  -0.55403
 Alpha  occ. eigenvalues --   -0.55353  -0.55202  -0.55190  -0.54444  -0.54375
 Alpha  occ. eigenvalues --   -0.53862  -0.53731  -0.53176  -0.53135  -0.53093
 Alpha  occ. eigenvalues --   -0.53054  -0.52855  -0.52756  -0.52609  -0.52580
 Alpha  occ. eigenvalues --   -0.52343  -0.52286  -0.51844  -0.51765  -0.51606
 Alpha  occ. eigenvalues --   -0.51448  -0.51156  -0.51040  -0.50412  -0.50386
 Alpha  occ. eigenvalues --   -0.49926  -0.49875  -0.49813  -0.49747  -0.49434
 Alpha  occ. eigenvalues --   -0.49348  -0.49155  -0.49061  -0.49053  -0.48940
 Alpha  occ. eigenvalues --   -0.48516  -0.48440  -0.48330  -0.48308  -0.48283
 Alpha  occ. eigenvalues --   -0.48276  -0.47544  -0.47532  -0.47135  -0.47067
 Alpha  occ. eigenvalues --   -0.46658  -0.46638  -0.46503  -0.46392  -0.46220
 Alpha  occ. eigenvalues --   -0.46198  -0.46040  -0.46010  -0.45784  -0.45674
 Alpha  occ. eigenvalues --   -0.45158  -0.45049  -0.44471  -0.44425  -0.44424
 Alpha  occ. eigenvalues --   -0.44338  -0.44081  -0.44025  -0.43984  -0.43930
 Alpha  occ. eigenvalues --   -0.43887  -0.43856  -0.43516  -0.43344  -0.43338
 Alpha  occ. eigenvalues --   -0.43225  -0.42894  -0.42870  -0.42858  -0.42551
 Alpha  occ. eigenvalues --   -0.42504  -0.42497  -0.41910  -0.41853  -0.41624
 Alpha  occ. eigenvalues --   -0.41546  -0.41407  -0.41371  -0.40983  -0.40942
 Alpha  occ. eigenvalues --   -0.40708  -0.40666  -0.40645  -0.40642  -0.40441
 Alpha  occ. eigenvalues --   -0.40418  -0.40171  -0.40061  -0.39366  -0.39288
 Alpha  occ. eigenvalues --   -0.38315  -0.38297  -0.37602  -0.37581  -0.37213
 Alpha  occ. eigenvalues --   -0.37163  -0.37147  -0.37097  -0.36737  -0.36565
 Alpha  occ. eigenvalues --   -0.36170  -0.36038  -0.34201  -0.34122  -0.33825
 Alpha  occ. eigenvalues --   -0.33616  -0.33123  -0.33022  -0.31212  -0.31167
 Alpha  occ. eigenvalues --   -0.30920  -0.30871  -0.29921  -0.29879  -0.29278
 Alpha  occ. eigenvalues --   -0.29272  -0.29161  -0.29158  -0.23983  -0.23915
 Alpha  occ. eigenvalues --   -0.21063  -0.20962
 Alpha virt. eigenvalues --   -0.08739  -0.08607  -0.01629  -0.01583   0.00027
 Alpha virt. eigenvalues --    0.00115   0.02253   0.02358   0.03311   0.03328
 Alpha virt. eigenvalues --    0.04781   0.04881   0.05198   0.05248   0.06230

 Mulliken charges:
               1
     1  Mg   0.839455
     2  C   -0.002778
     3  C   -0.093827
     4  C   -0.045850
     5  C   -0.064062
     6  N   -0.256763
     7  C   -0.052436
     8  C   -0.014133
     9  C   -0.087090
    10  C    0.046533
    11  C    0.104877
    12  C    0.053388
    13  C   -0.071717
    14  H    0.036009
    15  N   -0.433154
    16  C    0.168739
    17  C   -0.176851
    18  C   -0.003787
    19  C    0.148904
    20  C    0.110156
    21  C    0.012590
    22  O   -0.249840
    23  C    0.062256
    24  N   -0.341161
    25  C    0.041284
    26  C   -0.028127
    27  C   -0.023901
    28  C    0.074830
    29  C    0.076273
    30  C    0.035179
    31  C   -0.004482
    32  N   -0.310402
    33  C    0.080391
    34  C   -0.169869
    35  C    0.008188
    36  C    0.083079
    37  C    0.127342
    38  C    0.046029
    39  O   -0.188965
    40  C   -0.005341
    41  C    0.212705
    42  O   -0.256714
    43  O   -0.304907
    44  C    0.157815
    45  H   -0.017698
    46  H   -0.016977
    47  H   -0.041798
    48  H    0.000609
    49  H   -0.003891
    50  H    0.025270
    51  H    0.016351
    52  H    0.016458
    53  H    0.011928
    54  H    0.044388
    55  H    0.017422
    56  H    0.018106
    57  H    0.005821
    58  H    0.026563
    59  H    0.040497
    60  H    0.037071
    61  H    0.035631
    62  H    0.032537
    63  H    0.016542
    64  H    0.009156
    65  H    0.023008
    66  H    0.012477
    67  H    0.004500
    68  H    0.006022
    69  H    0.004512
    70  H    0.008747
    71  H    0.018021
    72  H    0.029456
    73  H    0.047353
    74  H    0.008953
    75  H    0.045678
    76  H    0.034847
    77  H    0.042473
    78  H    0.046417
    79  H    0.053684
    80  Mg   0.838415
    81  C   -0.016725
    82  C   -0.087689
    83  C   -0.045467
    84  C   -0.064859
    85  N   -0.254575
    86  C   -0.049812
    87  C   -0.015184
    88  C   -0.090544
    89  C    0.045892
    90  C    0.114408
    91  C    0.062483
    92  C   -0.077879
    93  H    0.034877
    94  N   -0.423511
    95  C    0.163122
    96  C   -0.174526
    97  C   -0.007676
    98  C    0.152258
    99  C    0.099368
   100  C    0.015773
   101  O   -0.253169
   102  C    0.061083
   103  N   -0.350108
   104  C    0.037580
   105  C   -0.019843
   106  C   -0.034785
   107  C    0.088941
   108  C    0.073701
   109  C    0.034734
   110  C   -0.007714
   111  N   -0.324096
   112  C    0.078478
   113  C   -0.163142
   114  C    0.002039
   115  C    0.096361
   116  C    0.131502
   117  C    0.042343
   118  O   -0.188481
   119  C    0.000912
   120  C    0.211033
   121  O   -0.250675
   122  O   -0.305697
   123  C    0.152174
   124  H   -0.019716
   125  H   -0.015552
   126  H   -0.040531
   127  H   -0.000894
   128  H   -0.004243
   129  H    0.022307
   130  H    0.014391
   131  H    0.016183
   132  H    0.014330
   133  H    0.037880
   134  H    0.020481
   135  H    0.019721
   136  H    0.008736
   137  H    0.026051
   138  H    0.040185
   139  H    0.038116
   140  H    0.036479
   141  H    0.034305
   142  H    0.014518
   143  H    0.012241
   144  H    0.025108
   145  H    0.011550
   146  H    0.005544
   147  H    0.006135
   148  H    0.003598
   149  H    0.010967
   150  H    0.018123
   151  H    0.030336
   152  H    0.045785
   153  H    0.008592
   154  H    0.046685
   155  H    0.034790
   156  H    0.043386
   157  H    0.049603
   158  H    0.053491
 Sum of Mulliken charges =  -0.00000

 Dipole moment (field-independent basis, Debye):
    X=              1.2945    Y=              3.0746    Z=             -1.4742  Tot=              3.6472
 Quadrupole moment (field-independent basis, Debye-Ang):
   XX=           -440.6069   YY=           -460.9306   ZZ=           -538.6650
   XY=             15.0281   XZ=             44.4197   YZ=             -7.5242

 Normal termination of Gaussian 16 at Sat Sep 11 23:17:25 2021.
