 Gaussian 16, Revision A.03,
 Gaussian 16:  ES64L-G16RevA.03 25-Dec-2016

 -----------------------------------
 #p cam-b3lyp/Def2SVP td=(nstates=5)
 -----------------------------------

 --------------------------------
 TDDFT excited states in gaussian
 --------------------------------
 Symbolic Z-matrix:
 Charge =  0 Multiplicity = 1

                         Standard orientation:
 ---------------------------------------------------------------------
 Center     Atomic      Atomic             Coordinates (Angstroms)
 Number     Number       Type             X           Y           Z
 ---------------------------------------------------------------------
      1         12           0      -15.567326   -0.881180    0.357293
      2          6           0      -15.824300    2.639833   -0.233169
      3          6           0      -16.478133   -1.342889   -2.898521
      4          6           0      -15.789528   -3.984113    0.972967
      5          6           0      -15.794394   -0.177159    3.762943
      6          7           0      -16.060275    0.546363   -1.261277
      7          6           0      -16.063035    1.870889   -1.374386
      8          6           0      -16.269052    2.365599   -2.837326
      9          6           0      -17.012661    1.087228   -3.432988
     10          6           0      -16.458015    0.026345   -2.498739
     11          6           0      -18.529023    1.136086   -3.275633
     12          6           0      -14.911960    2.632692   -3.571285
     13          6           0      -15.020762    3.421973   -4.879166
     14          1           0      -13.961783    4.359346   -5.221571
     15          7           0      -15.582175   -2.432245   -0.866156
     16          6           0      -15.968129   -2.435741   -2.164737
     17          6           0      -15.796013   -3.826316   -2.637347
     18          6           0      -15.459201   -4.669680   -1.456928
     19          6           0      -15.624699   -3.721573   -0.384976
     20          6           0      -15.903600   -4.225283   -4.077138
     21          6           0      -15.062882   -6.105395   -1.316260
     22          8           0      -15.041109   -6.697107   -0.183134
     23          6           0      -14.782519   -6.834990   -2.566112
     24          7           0      -15.984021   -1.957494    2.096703
     25          6           0      -15.960738   -3.294806    2.102918
     26          6           0      -16.007222   -3.835217    3.501394
     27          6           0      -15.821528   -2.577621    4.467686
     28          6           0      -15.780121   -1.460567    3.395890
     29          6           0      -17.287954   -4.589092    3.885333
     30          6           0      -14.670790   -2.649854    5.502579
     31          6           0      -13.337215   -2.623803    4.789840
     32          7           0      -15.595248    0.905716    1.589067
     33          6           0      -15.718853    0.965862    2.984695
     34          6           0      -15.797389    2.392114    3.350352
     35          6           0      -15.730253    3.066417    2.132709
     36          6           0      -15.643391    2.120465    1.071614
     37          6           0      -15.972787    2.906915    4.665133
     38          6           0      -15.736504    4.365303    1.479477
     39          8           0      -15.697675    5.532809    1.870524
     40          6           0      -15.920408    4.138036   -0.085884
     41          6           0      -14.893444    4.981249   -0.791323
     42          8           0      -13.676065    4.727415   -0.686805
     43          8           0      -15.509337    5.797936   -1.659794
     44          6           0      -14.544656    6.641713   -2.414502
     45          1           0      -16.981257   -1.613791   -3.828800
     46          1           0      -15.759951   -5.042733    1.239215
     47          1           0      -15.781222    0.121420    4.812767
     48          1           0      -16.905561    3.245308   -2.934237
     49          1           0      -16.711030    0.882819   -4.460099
     50          1           0      -18.838971    1.983028   -2.663634
     51          1           0      -18.801944    0.197479   -2.792907
     52          1           0      -19.019992    1.126216   -4.249095
     53          1           0      -14.519448    1.691008   -3.954984
     54          1           0      -14.205649    3.131606   -2.906803
     55          1           0      -15.997536    3.896294   -4.978370
     56          1           0      -14.976859    2.716162   -5.708686
     57          1           0      -16.322904   -3.424111   -4.684471
     58          1           0      -16.643642   -5.023434   -4.131925
     59          1           0      -14.952809   -4.577410   -4.477556
     60          1           0      -15.667517   -6.812253   -3.202359
     61          1           0      -14.428635   -7.820664   -2.266006
     62          1           0      -13.998343   -6.310478   -3.112834
     63          1           0      -15.196507   -4.541692    3.674776
     64          1           0      -16.710249   -2.390542    5.070886
     65          1           0      -17.109699   -5.608121    4.229585
     66          1           0      -17.956187   -4.578309    3.024728
     67          1           0      -17.899443   -4.096211    4.640691
     68          1           0      -14.719075   -3.585508    6.058607
     69          1           0      -14.689580   -1.833546    6.224755
     70          1           0      -13.190049   -3.666484    4.510571
     71          1           0      -12.551092   -2.286023    5.465952
     72          1           0      -13.389680   -2.043901    3.868186
     73          1           0      -15.284181    3.746624    4.758303
     74          1           0      -15.772953    2.145285    5.418518
     75          1           0      -17.023418    3.194756    4.630791
     76          1           0      -16.937704    4.442804   -0.329501
     77          1           0      -14.836736    7.680365   -2.259174
     78          1           0      -14.538278    6.265494   -3.437645
     79          1           0      -13.521050    6.657367   -2.038570
     80         12           0       16.178184   -0.455440   -0.058539
     81          6           0       14.214128    2.545921    0.057224
     82          6           0       13.900299   -1.682400   -2.281245
     83          6           0       17.630016   -3.268379    0.158189
     84          6           0       17.616411    0.534834    2.957509
     85          7           0       14.337786    0.414710   -0.923433
     86          6           0       13.723977    1.586286   -0.852877
     87          6           0       12.565183    1.767554   -1.869684
     88          6           0       12.214368    0.219457   -2.112966
     89          6           0       13.575091   -0.393472   -1.788280
     90          6           0       11.196037   -0.328967   -1.127276
     91          6           0       13.035788    2.464899   -3.194177
     92          6           0       11.904020    2.951817   -4.101786
     93          1           0       12.099021    4.187131   -4.855751
     94          7           0       16.119316   -2.027624   -1.268218
     95          6           0       15.128019   -2.361607   -2.120893
     96          6           0       15.555987   -3.613054   -2.765031
     97          6           0       16.805220   -4.077903   -2.103189
     98          6           0       16.890445   -3.133069   -1.007697
     99          6           0       14.844273   -4.204642   -3.946932
    100          6           0       17.757703   -5.196645   -2.398865
    101          8           0       18.647658   -5.564553   -1.553016
    102          6           0       17.557404   -5.909794   -3.668824
    103          7           0       17.284226   -1.358568    1.452551
    104          6           0       17.848917   -2.565001    1.269332
    105          6           0       18.818176   -2.888139    2.381323
    106          6           0       18.968539   -1.538458    3.225906
    107          6           0       17.947074   -0.655514    2.475967
    108          6           0       18.406004   -4.027820    3.312790
    109          6           0       20.408362   -0.992527    3.429772
    110          6           0       20.976172   -0.528038    2.107944
    111          7           0       16.113396    1.305703    1.191354
    112          6           0       16.771701    1.500582    2.425349
    113          6           0       16.330662    2.808326    2.952326
    114          6           0       15.421566    3.276872    1.991851
    115          6           0       15.289013    2.319030    0.950486
    116          6           0       16.730506    3.383620    4.191392
    117          6           0       14.535866    4.359203    1.627423
    118          8           0       14.297971    5.477501    2.081885
    119          6           0       13.618974    3.877677    0.421680
    120          6           0       13.623825    4.957422   -0.625528
    121          8           0       14.669522    5.241168   -1.235965
    122          8           0       12.355782    5.324134   -0.886224
    123          6           0       12.307989    6.385397   -1.927014
    124          1           0       13.128942   -2.247177   -2.805559
    125          1           0       18.236490   -4.174251    0.229378
    126          1           0       18.093094    0.958955    3.843838
    127          1           0       11.698108    2.288833   -1.482100
    128          1           0       11.949852    0.032717   -3.150527
    129          1           0       10.963885    0.383431   -0.349632
    130          1           0       11.645310   -1.217893   -0.704191
    131          1           0       10.301513   -0.666903   -1.658275
    132          1           0       13.493554    1.714066   -3.851019
    133          1           0       13.702794    3.277410   -2.980755
    134          1           0       10.937428    2.966328   -3.583668
    135          1           0       11.766403    2.224421   -4.905511
    136          1           0       13.866724   -3.732726   -4.105388
    137          1           0       14.606378   -5.242615   -3.690265
    138          1           0       15.453394   -4.195425   -4.853328
    139          1           0       16.554414   -6.329153   -3.693209
    140          1           0       18.388276   -6.614122   -3.742654
    141          1           0       17.615978   -5.186098   -4.489466
    142          1           0       19.786917   -3.162759    1.982296
    143          1           0       18.589430   -1.655387    4.251785
    144          1           0       19.153112   -4.842299    3.363081
    145          1           0       17.449039   -4.409475    2.982491
    146          1           0       18.195039   -3.732111    4.339075
    147          1           0       21.067326   -1.786970    3.788633
    148          1           0       20.464651   -0.179424    4.145785
    149          1           0       21.350990   -1.453879    1.661384
    150          1           0       21.780493    0.187421    2.266755
    151          1           0       20.185553   -0.142924    1.453532
    152          1           0       16.934232    4.428445    3.998206
    153          1           0       17.601518    2.877265    4.602145
    154          1           0       15.832245    3.204725    4.788372
    155          1           0       12.619833    3.699087    0.820928
    156          1           0       11.752990    7.226591   -1.500327
    157          1           0       11.879569    5.903307   -2.825798
    158          1           0       13.241785    6.863889   -2.198172
 ---------------------------------------------------------------------

 SCF Done:  E(RCAM-B3LYP) =  -4069.81176469     A.U. after   19 cycles

 Excitation energies and oscillator strengths:

 Excited State   1:      Singlet-A      1.6753 eV  740.07 nm  f=0.2072  <S**2>=0.000
     310 -> 316        0.16825
     311 -> 314        0.16754
     312 -> 313        0.66528
     310 <- 316        0.10143
 This state for optimization and/or second-order correction.
 Total Energy, E(TD-HF/TD-DFT) =  -4069.75019869
 Copying the excited state density for this state as the 1-particle RhoCI density.

 Excited State   2:      Singlet-A      1.6801 eV  737.96 nm  f=0.5700  <S**2>=0.000
     309 -> 315        0.17029
     311 -> 314        0.66491
     312 -> 313       -0.16749
     309 <- 315        0.10195

 Excited State   3:      Singlet-A      2.1861 eV  567.16 nm  f=0.0991  <S**2>=0.000
     310 -> 313        0.64230
     312 -> 316       -0.27300

 Excited State   4:      Singlet-A      2.1925 eV  565.49 nm  f=0.1018  <S**2>=0.000
     309 -> 314        0.64052
     311 -> 315       -0.27821

 Excited State   5:      Singlet-A      3.0622 eV  404.89 nm  f=0.0000  <S**2>=0.000
     312 -> 314        0.70710

 The electronic state is 1-A.
 Alpha  occ. eigenvalues --  -46.87810 -46.87659 -19.26341 -19.26295 -19.19154
 Alpha  occ. eigenvalues --  -19.19032 -19.18831 -19.18715 -19.18181 -19.18047
 Alpha  occ. eigenvalues --  -14.42496 -14.42463 -14.41463 -14.41358 -14.39417
 Alpha  occ. eigenvalues --  -14.39351 -14.38600 -14.38598 -10.39091 -10.39084
 Alpha  occ. eigenvalues --  -10.35465 -10.35393 -10.34401 -10.34224 -10.31746
 Alpha  occ. eigenvalues --  -10.31690 -10.31418 -10.31306 -10.31021 -10.30923
 Alpha  occ. eigenvalues --  -10.30583 -10.30521 -10.30397 -10.30359 -10.30221
 Alpha  occ. eigenvalues --  -10.30141 -10.29934 -10.29894 -10.29644 -10.29436
 Alpha  occ. eigenvalues --  -10.29400 -10.29268 -10.28762 -10.28714 -10.28648
 Alpha  occ. eigenvalues --  -10.28553 -10.28403 -10.28378 -10.28136 -10.28130
 Alpha  occ. eigenvalues --  -10.27999 -10.27806 -10.27741 -10.27668 -10.27598
 Alpha  occ. eigenvalues --  -10.27519 -10.27514 -10.27497 -10.27482 -10.27468
 Alpha  occ. eigenvalues --  -10.27465 -10.27462 -10.27417 -10.27377 -10.27170
 Alpha  occ. eigenvalues --  -10.27045 -10.26719 -10.26688 -10.26429 -10.26417
 Alpha  occ. eigenvalues --  -10.26246 -10.26197 -10.26139 -10.26032 -10.26018
 Alpha  occ. eigenvalues --  -10.25934 -10.25853 -10.25849 -10.25448 -10.25399
 Alpha  occ. eigenvalues --  -10.24871 -10.24846 -10.24801 -10.24733 -10.24701
 Alpha  occ. eigenvalues --  -10.24689  -3.16553  -3.16409  -1.91435  -1.91291
 Alpha  occ. eigenvalues --   -1.91021  -1.90880  -1.90863  -1.90717  -1.16644
 Alpha  occ. eigenvalues --   -1.16635  -1.08654  -1.08639  -1.07232  -1.06967
 Alpha  occ. eigenvalues --   -1.06938  -1.06654  -1.04594  -1.04493  -1.03774
 Alpha  occ. eigenvalues --   -1.03662  -1.03247  -1.03038  -1.02425  -1.02110
 Alpha  occ. eigenvalues --   -0.91985  -0.91984  -0.89533  -0.89494  -0.89201
 Alpha  occ. eigenvalues --   -0.89147  -0.88300  -0.88220  -0.87883  -0.87792
 Alpha  occ. eigenvalues --   -0.87686  -0.87682  -0.87289  -0.87120  -0.84996
 Alpha  occ. eigenvalues --   -0.84996  -0.83949  -0.83876  -0.82983  -0.82932
 Alpha  occ. eigenvalues --   -0.82662  -0.82650  -0.81598  -0.81592  -0.80610
 Alpha  occ. eigenvalues --   -0.80440  -0.78811  -0.78635  -0.77232  -0.77142
 Alpha  occ. eigenvalues --   -0.76947  -0.76895  -0.75936  -0.75835  -0.74911
 Alpha  occ. eigenvalues --   -0.74802  -0.72787  -0.72698  -0.71685  -0.71579
 Alpha  occ. eigenvalues --   -0.69920  -0.69758  -0.68887  -0.68824  -0.67655
 Alpha  occ. eigenvalues --   -0.67600  -0.67234  -0.67197  -0.65300  -0.65268
 Alpha  occ. eigenvalues --   -0.64867  -0.64768  -0.64651  -0.64634  -0.64283
 Alpha  occ. eigenvalues --   -0.64203  -0.62310  -0.62274  -0.60457  -0.60340
 Alpha  occ. eigenvalues --   -0.59818  -0.59793  -0.59000  -0.58991  -0.58517
 Alpha  occ. eigenvalues --   -0.58423  -0.57597  -0.57550  -0.57322  -0.57236
 Alpha  occ. eigenvalues --   -0.56323  -0.56202  -0.55991  -0.55881  -0.55534
 Alpha  occ. eigenvalues --   -0.55450  -0.55352  -0.55246  -0.54536  -0.54485
 Alpha  occ. eigenvalues --   -0.53908  -0.53908  -0.53313  -0.53236  -0.53226
 Alpha  occ. eigenvalues --   -0.53139  -0.52928  -0.52899  -0.52771  -0.52667
 Alpha  occ. eigenvalues --   -0.52451  -0.52402  -0.51926  -0.51883  -0.51656
 Alpha  occ. eigenvalues --   -0.51631  -0.51209  -0.51199  -0.50589  -0.50476
 Alpha  occ. eigenvalues --   -0.50045  -0.49978  -0.49933  -0.49868  -0.49529
 Alpha  occ. eigenvalues --   -0.49486  -0.49228  -0.49200  -0.49109  -0.49101
 Alpha  occ. eigenvalues --   -0.48605  -0.48555  -0.48475  -0.48459  -0.48375
 Alpha  occ. eigenvalues --   -0.48338  -0.47708  -0.47593  -0.47310  -0.47117
 Alpha  occ. eigenvalues --   -0.46810  -0.46707  -0.46569  -0.46551  -0.46372
 Alpha  occ. eigenvalues --   -0.46269  -0.46175  -0.46084  -0.45834  -0.45818
 Alpha  occ. eigenvalues --   -0.45214  -0.45209  -0.44590  -0.44521  -0.44511
 Alpha  occ. eigenvalues --   -0.44473  -0.44158  -0.44125  -0.44102  -0.44077
 Alpha  occ. eigenvalues --   -0.44033  -0.43937  -0.43549  -0.43507  -0.43399
 Alpha  occ. eigenvalues --   -0.43383  -0.43040  -0.42926  -0.42898  -0.42711
 Alpha  occ. eigenvalues --   -0.42667  -0.42554  -0.42023  -0.41963  -0.41717
 Alpha  occ. eigenvalues --   -0.41667  -0.41547  -0.41456  -0.41154  -0.40987
 Alpha  occ. eigenvalues --   -0.40883  -0.40839  -0.40721  -0.40697  -0.40584
 Alpha  occ. eigenvalues --   -0.40493  -0.40248  -0.40223  -0.39454  -0.39426
 Alpha  occ. eigenvalues --   -0.38482  -0.38350  -0.37762  -0.37650  -0.37333
 Alpha  occ. eigenvalues --   -0.37277  -0.37265  -0.37197  -0.36766  -0.36725
 Alpha  occ. eigenvalues --   -0.36215  -0.36205  -0.34299  -0.34252  -0.33856
 Alpha  occ. eigenvalues --   -0.33782  -0.33200  -0.33174  -0.31361  -0.31274
 Alpha  occ. eigenvalues --   -0.31049  -0.30971  -0.30040  -0.29951  -0.29463
 Alpha  occ. eigenvalues --   -0.29335  -0.29327  -0.29210  -0.24094  -0.24035
 Alpha  occ. eigenvalues --   -0.21141  -0.21116
 Alpha virt. eigenvalues --   -0.08791  -0.08788  -0.01763  -0.01683  -0.00073
 Alpha virt. eigenvalues --   -0.00028   0.02188   0.02209   0.03105   0.03227
 Alpha virt. eigenvalues --    0.04704   0.04732   0.05086   0.05171   0.06163

 Mulliken charges:
               1
     1  Mg   0.838662
     2  C   -0.002966
     3  C   -0.094138
     4  C   -0.045853
     5  C   -0.063948
     6  N   -0.256784
     7  C   -0.052445
     8  C   -0.014020
     9  C   -0.086999
    10  C    0.046320
    11  C    0.104810
    12  C    0.053473
    13  C   -0.071796
    14  H    0.036110
    15  N   -0.433128
    16  C    0.168404
    17  C   -0.177168
    18  C   -0.004016
    19  C    0.148681
    20  C    0.110178
    21  C    0.012255
    22  O   -0.249638
    23  C    0.062492
    24  N   -0.341103
    25  C    0.041230
    26  C   -0.028187
    27  C   -0.023947
    28  C    0.074832
    29  C    0.076159
    30  C    0.035108
    31  C   -0.004500
    32  N   -0.310483
    33  C    0.080407
    34  C   -0.169688
    35  C    0.008367
    36  C    0.082993
    37  C    0.127306
    38  C    0.046140
    39  O   -0.188376
    40  C   -0.005351
    41  C    0.212904
    42  O   -0.257130
    43  O   -0.304789
    44  C    0.157680
    45  H   -0.017604
    46  H   -0.016848
    47  H   -0.041458
    48  H    0.000966
    49  H   -0.004052
    50  H    0.025494
    51  H    0.016454
    52  H    0.016666
    53  H    0.011167
    54  H    0.044113
    55  H    0.017905
    56  H    0.017927
    57  H    0.005875
    58  H    0.026828
    59  H    0.039487
    60  H    0.037362
    61  H    0.035612
    62  H    0.031447
    63  H    0.016531
    64  H    0.009488
    65  H    0.023208
    66  H    0.012553
    67  H    0.004780
    68  H    0.006376
    69  H    0.004767
    70  H    0.008748
    71  H    0.018154
    72  H    0.028970
    73  H    0.047607
    74  H    0.009130
    75  H    0.046042
    76  H    0.035178
    77  H    0.042992
    78  H    0.046386
    79  H    0.053686
    80  Mg   0.837831
    81  C   -0.016808
    82  C   -0.087771
    83  C   -0.045499
    84  C   -0.064885
    85  N   -0.254573
    86  C   -0.049819
    87  C   -0.015089
    88  C   -0.090493
    89  C    0.045738
    90  C    0.114359
    91  C    0.062510
    92  C   -0.077913
    93  H    0.034912
    94  N   -0.423475
    95  C    0.162905
    96  C   -0.174623
    97  C   -0.007813
    98  C    0.152109
    99  C    0.099366
   100  C    0.015562
   101  O   -0.253200
   102  C    0.061200
   103  N   -0.350044
   104  C    0.037508
   105  C   -0.019822
   106  C   -0.034798
   107  C    0.088906
   108  C    0.073647
   109  C    0.034724
   110  C   -0.007671
   111  N   -0.324120
   112  C    0.078452
   113  C   -0.163140
   114  C    0.002276
   115  C    0.096170
   116  C    0.131492
   117  C    0.042401
   118  O   -0.187787
   119  C    0.000914
   120  C    0.211268
   121  O   -0.251054
   122  O   -0.305592
   123  C    0.152011
   124  H   -0.019647
   125  H   -0.015586
   126  H   -0.040456
   127  H   -0.000569
   128  H   -0.004323
   129  H    0.022526
   130  H    0.014409
   131  H    0.016338
   132  H    0.013885
   133  H    0.037675
   134  H    0.020868
   135  H    0.019570
   136  H    0.008774
   137  H    0.026136
   138  H    0.039775
   139  H    0.038251
   140  H    0.036383
   141  H    0.033893
   142  H    0.014388
   143  H    0.012424
   144  H    0.025127
   145  H    0.011650
   146  H    0.005680
   147  H    0.006254
   148  H    0.003657
   149  H    0.010922
   150  H    0.017930
   151  H    0.030111
   152  H    0.046023
   153  H    0.008498
   154  H    0.046986
   155  H    0.035109
   156  H    0.043999
   157  H    0.049504
   158  H    0.053561
 Sum of Mulliken charges =  -0.00000

 Dipole moment (field-independent basis, Debye):
    X=             -4.5897    Y=             -5.2511    Z=             -5.5007  Tot=              8.8824
 Quadrupole moment (field-independent basis, Debye-Ang):
   XX=           -516.8968   YY=           -567.1234   ZZ=           -448.9119
   XY=            -10.1081   XZ=             48.4297   YZ=            -14.5397

 Normal termination of Gaussian 16 at Sun Sep 12 18:19:59 2021.
