 Gaussian 16, Revision A.03,
 Gaussian 16:  ES64L-G16RevA.03 25-Dec-2016

 -----------------------------------
 #p cam-b3lyp/Def2SVP td=(nstates=5)
 -----------------------------------

 --------------------------------
 TDDFT excited states in gaussian
 --------------------------------
 Symbolic Z-matrix:
 Charge =  0 Multiplicity = 1

                         Standard orientation:
 ---------------------------------------------------------------------
 Center     Atomic      Atomic             Coordinates (Angstroms)
 Number     Number       Type             X           Y           Z
 ---------------------------------------------------------------------
      1         12           0       -4.376609    0.485467   -0.765073
      2          6           0       -4.667099   -2.778591    0.674980
      3          6           0       -5.785823    1.708620    2.091688
      4          6           0       -4.549144    3.313151   -2.190224
      5          6           0       -4.064646   -1.072092   -3.867064
      6          7           0       -5.091213   -0.508786    1.079229
      7          6           0       -5.090899   -1.759203    1.530483
      8          6           0       -5.512461   -1.876501    3.025775
      9          6           0       -6.358748   -0.531472    3.154980
     10          6           0       -5.683093    0.285973    2.068150
     11          6           0       -7.831742   -0.701722    2.797483
     12          6           0       -4.280878   -1.873570    3.992690
     13          6           0       -4.577923   -2.309385    5.430460
     14          1           0       -3.570072   -3.069516    6.154190
     15          7           0       -4.604015    2.293258   -0.001509
     16          6           0       -5.185690    2.605422    1.181493
     17          6           0       -5.110077    4.077714    1.296910
     18          6           0       -4.608280    4.610633   -0.000121
     19          6           0       -4.591738    3.413686   -0.801633
     20          6           0       -5.444653    4.822889    2.552507
     21          6           0       -4.217262    5.982980   -0.449455
     22          8           0       -4.030096    6.267650   -1.681732
     23          6           0       -4.144392    7.020420    0.595271
     24          7           0       -4.536574    1.060014   -2.765558
     25          6           0       -4.533301    2.351060   -3.115090
     26          6           0       -4.371838    2.515032   -4.597312
     27          6           0       -4.019864    1.065322   -5.166705
     28          6           0       -4.127025    0.261247   -3.847519
     29          6           0       -5.589514    3.075267   -5.345251
     30          6           0       -2.724505    0.935189   -6.006662
     31          6           0       -1.516608    1.164199   -5.125959
     32          7           0       -4.186524   -1.554509   -1.481600
     33          6           0       -4.092398   -1.973956   -2.816470
     34          6           0       -4.091511   -3.448397   -2.806940
     35          6           0       -4.202603   -3.786472   -1.459644
     36          6           0       -4.295121   -2.598674   -0.679343
     37          6           0       -4.053991   -4.289170   -3.954166
     38          6           0       -4.289460   -4.875090   -0.499839
     39          8           0       -4.172713   -6.099696   -0.564662
     40          6           0       -4.716147   -4.267991    0.909131
     41          6           0       -3.797386   -4.846714    1.950413
     42          8           0       -2.582531   -4.561451    1.961327
     43          8           0       -4.527178   -5.448424    2.902196
     44          6           0       -3.677540   -6.018587    3.981632
     45          1           0       -6.430569    2.179002    2.836660
     46          1           0       -4.495226    4.269360   -2.714814
     47          1           0       -3.885057   -1.626422   -4.790058
     48          1           0       -6.142615   -2.736232    3.254233
     49          1           0       -6.222380   -0.056596    4.126380
     50          1           0       -8.030426   -1.692034    2.387935
     51          1           0       -8.041411    0.067021    2.053463
     52          1           0       -8.467104   -0.471762    3.653176
     53          1           0       -3.966873   -0.845253    4.171650
     54          1           0       -3.472879   -2.485461    3.590131
     55          1           0       -5.550852   -2.795722    5.506577
     56          1           0       -4.673440   -1.414666    6.045728
     57          1           0       -5.940188    4.180585    3.279443
     58          1           0       -6.196545    5.566976    2.290396
     59          1           0       -4.572580    5.316750    2.981366
     60          1           0       -5.116491    7.111624    1.080301
     61          1           0       -3.763737    7.915359    0.104316
     62          1           0       -3.445928    6.695814    1.367106
     63          1           0       -3.555107    3.197598   -4.828572
     64          1           0       -4.801888    0.682716   -5.823001
     65          1           0       -5.376070    3.981575   -5.912483
     66          1           0       -6.382266    3.246896   -4.617666
     67          1           0       -6.069454    2.373901   -6.027277
     68          1           0       -2.700900    1.694766   -6.787323
     69          1           0       -2.619029   -0.037580   -6.487126
     70          1           0       -1.430435    2.250063   -5.108497
     71          1           0       -0.630462    0.709322   -5.569854
     72          1           0       -1.701653    0.835523   -4.103112
     73          1           0       -3.346349   -5.085957   -3.725383
     74          1           0       -3.752130   -3.734183   -4.842126
     75          1           0       -5.092762   -4.615963   -3.999077
     76          1           0       -5.754009   -4.556132    1.073264
     77          1           0       -3.926058   -7.077011    4.060447
     78          1           0       -3.834900   -5.394993    4.861844
     79          1           0       -2.608074   -6.073127    3.775216
     80         12           0        4.499866    0.886108    0.686190
     81          6           0        4.750612   -2.093860   -1.297734
     82          6           0        3.289678   -1.071140    3.203962
     83          6           0        3.844548    3.538680    2.299214
     84          6           0        4.629145    2.706847   -2.282641
     85          7           0        4.116059   -1.288318    0.815905
     86          6           0        4.307493   -2.329852    0.020366
     87          6           0        4.083929   -3.707641    0.699547
     88          6           0        3.099765   -3.237785    1.878330
     89          6           0        3.547542   -1.783131    2.005354
     90          6           0        1.633335   -3.253083    1.479973
     91          6           0        5.413346   -4.315871    1.269384
     92          6           0        5.326361   -5.790447    1.669178
     93          1           0        6.496385   -6.638676    1.459363
     94          7           0        4.155591    1.160488    2.621325
     95          6           0        3.685907    0.251352    3.501183
     96          6           0        3.590306    0.951995    4.791202
     97          6           0        3.885436    2.393032    4.565324
     98          6           0        3.954412    2.424304    3.118140
     99          6           0        3.324967    0.240310    6.086000
    100          6           0        4.062038    3.553678    5.496940
    101          8           0        4.076931    4.762569    5.071277
    102          6           0        4.123374    3.239175    6.931797
    103          7           0        4.056822    2.827191    0.087636
    104          6           0        3.864908    3.802915    0.992663
    105          6           0        3.834810    5.160832    0.332696
    106          6           0        4.289870    4.913340   -1.180325
    107          6           0        4.424200    3.374921   -1.155761
    108          6           0        2.484883    5.877687    0.347088
    109          6           0        5.489433    5.751837   -1.700565
    110          6           0        6.755911    5.339914   -0.985200
    111          7           0        4.844532    0.438424   -1.399195
    112          6           0        4.829347    1.346627   -2.480410
    113          6           0        5.001823    0.555467   -3.716019
    114          6           0        5.082964   -0.771001   -3.266120
    115          6           0        4.948849   -0.806056   -1.851810
    116          6           0        5.016339    1.074904   -5.041195
    117          6           0        5.240927   -2.150502   -3.666996
    118          8           0        5.482681   -2.724572   -4.728005
    119          6           0        4.906076   -3.080078   -2.421936
    120          6           0        5.996056   -4.109986   -2.304753
    121          8           0        7.159559   -3.770066   -2.026700
    122          8           0        5.446139   -5.337810   -2.324890
    123          6           0        6.486591   -6.393163   -2.200300
    124          1           0        2.690543   -1.554741    3.976017
    125          1           0        3.728686    4.494107    2.816145
    126          1           0        4.778002    3.209707   -3.240572
    127          1           0        3.592906   -4.446393    0.077514
    128          1           0        3.299192   -3.779911    2.799025
    129          1           0        1.503501   -3.465112    0.429097
    130          1           0        1.253878   -2.267697    1.716813
    131          1           0        1.077808   -3.950304    2.113695
    132          1           0        5.621041   -3.867426    2.249439
    133          1           0        6.222833   -4.175612    0.579696
    134          1           0        4.425481   -6.272999    1.271056
    135          1           0        5.205048   -5.849423    2.753533
    136          1           0        2.985770   -0.789151    5.917009
    137          1           0        2.466979    0.735744    6.553201
    138          1           0        4.173965    0.282695    6.771613
    139          1           0        3.211144    2.727098    7.228576
    140          1           0        4.341507    4.186083    7.429453
    141          1           0        4.947600    2.537352    7.101212
    142          1           0        4.537673    5.836059    0.805094
    143          1           0        3.484089    5.147120   -1.891584
    144          1           0        2.526309    6.876880    0.820342
    145          1           0        1.768281    5.245852    0.854837
    146          1           0        2.023031    6.012261   -0.629539
    147          1           0        5.336874    6.810510   -1.476753
    148          1           0        5.643053    5.667903   -2.771244
    149          1           0        6.711305    5.913416   -0.054503
    150          1           0        7.631977    5.607871   -1.572339
    151          1           0        6.729523    4.276870   -0.718921
    152          1           0        5.824876    0.578638   -5.561290
    153          1           0        5.145055    2.155275   -5.043356
    154          1           0        4.018779    0.779699   -5.377334
    155          1           0        3.931552   -3.534362   -2.604987
    156          1           0        6.369404   -7.060399   -3.059805
    157          1           0        6.344800   -6.835412   -1.196280
    158          1           0        7.521966   -6.091236   -2.306559
 ---------------------------------------------------------------------

 SCF Done:  E(RCAM-B3LYP) =  -4069.81301195     A.U. after   19 cycles

 Excitation energies and oscillator strengths:

 Excited State   1:      Singlet-A      1.6587 eV  747.46 nm  f=0.1523  <S**2>=0.000
     309 -> 315       -0.10644
     310 -> 316        0.13098
     311 -> 313       -0.43008
     312 -> 314        0.53565
 This state for optimization and/or second-order correction.
 Total Energy, E(TD-HF/TD-DFT) =  -4069.75205433
 Copying the excited state density for this state as the 1-particle RhoCI density.

 Excited State   2:      Singlet-A      1.6879 eV  734.53 nm  f=0.5306  <S**2>=0.000
     309 -> 315        0.13895
     310 -> 316        0.10916
     311 -> 313        0.53397
     312 -> 314        0.42875

 Excited State   3:      Singlet-A      2.1810 eV  568.48 nm  f=0.0682  <S**2>=0.000
     309 -> 313       -0.21601
     310 -> 314        0.60706
     312 -> 316       -0.25137

 Excited State   4:      Singlet-A      2.1952 eV  564.79 nm  f=0.1215  <S**2>=0.000
     309 -> 313        0.60298
     310 -> 314        0.21316
     311 -> 315       -0.26421

 Excited State   5:      Singlet-A      2.3261 eV  533.00 nm  f=0.0000  <S**2>=0.000
     312 -> 313        0.70708

 The electronic state is 1-A.
 Alpha  occ. eigenvalues --  -46.87937 -46.87392 -19.26672 -19.26039 -19.19459
 Alpha  occ. eigenvalues --  -19.18925 -19.18871 -19.18571 -19.18363 -19.17809
 Alpha  occ. eigenvalues --  -14.42601 -14.42175 -14.41581 -14.41100 -14.39538
 Alpha  occ. eigenvalues --  -14.39098 -14.38733 -14.38340 -10.39479 -10.38796
 Alpha  occ. eigenvalues --  -10.35554 -10.35255 -10.34592 -10.33978 -10.32097
 Alpha  occ. eigenvalues --  -10.31569 -10.31455 -10.31078 -10.30951 -10.30718
 Alpha  occ. eigenvalues --  -10.30696 -10.30644 -10.30315 -10.30165 -10.30096
 Alpha  occ. eigenvalues --  -10.30051 -10.29901 -10.29766 -10.29658 -10.29376
 Alpha  occ. eigenvalues --  -10.29191 -10.29178 -10.28976 -10.28877 -10.28520
 Alpha  occ. eigenvalues --  -10.28309 -10.28253 -10.28220 -10.28137 -10.27930
 Alpha  occ. eigenvalues --  -10.27869 -10.27759 -10.27714 -10.27576 -10.27572
 Alpha  occ. eigenvalues --  -10.27571 -10.27541 -10.27515 -10.27402 -10.27344
 Alpha  occ. eigenvalues --  -10.27309 -10.27305 -10.27253 -10.27194 -10.27180
 Alpha  occ. eigenvalues --  -10.27013 -10.26750 -10.26476 -10.26401 -10.26333
 Alpha  occ. eigenvalues --  -10.26288 -10.26220 -10.26136 -10.25960 -10.25934
 Alpha  occ. eigenvalues --  -10.25690 -10.25682 -10.25516 -10.25220 -10.24981
 Alpha  occ. eigenvalues --  -10.24957 -10.24924 -10.24720 -10.24630 -10.24568
 Alpha  occ. eigenvalues --  -10.24450  -3.16679  -3.16142  -1.91561  -1.91148
 Alpha  occ. eigenvalues --   -1.91025  -1.90990  -1.90612  -1.90450  -1.17023
 Alpha  occ. eigenvalues --   -1.16338  -1.08838  -1.08413  -1.07325  -1.07050
 Alpha  occ. eigenvalues --   -1.06830  -1.06655  -1.04738  -1.04177  -1.03897
 Alpha  occ. eigenvalues --   -1.03388  -1.03371  -1.02789  -1.02550  -1.01850
 Alpha  occ. eigenvalues --   -0.92152  -0.91701  -0.89631  -0.89393  -0.89263
 Alpha  occ. eigenvalues --   -0.88633  -0.88394  -0.88000  -0.87997  -0.87829
 Alpha  occ. eigenvalues --   -0.87564  -0.87387  -0.87375  -0.86935  -0.85180
 Alpha  occ. eigenvalues --   -0.84595  -0.84049  -0.83666  -0.83067  -0.82834
 Alpha  occ. eigenvalues --   -0.82775  -0.82286  -0.81829  -0.81307  -0.80779
 Alpha  occ. eigenvalues --   -0.80167  -0.78919  -0.78416  -0.77369  -0.77141
 Alpha  occ. eigenvalues --   -0.76858  -0.76526  -0.76123  -0.75401  -0.75025
 Alpha  occ. eigenvalues --   -0.74548  -0.72909  -0.72431  -0.71828  -0.71233
 Alpha  occ. eigenvalues --   -0.69989  -0.69539  -0.69057  -0.68450  -0.67802
 Alpha  occ. eigenvalues --   -0.67423  -0.67356  -0.66878  -0.65492  -0.65041
 Alpha  occ. eigenvalues --   -0.64893  -0.64799  -0.64488  -0.64388  -0.64327
 Alpha  occ. eigenvalues --   -0.63962  -0.62557  -0.61998  -0.60557  -0.60137
 Alpha  occ. eigenvalues --   -0.59986  -0.59381  -0.59144  -0.58717  -0.58670
 Alpha  occ. eigenvalues --   -0.58157  -0.57837  -0.57451  -0.57275  -0.57009
 Alpha  occ. eigenvalues --   -0.56478  -0.56255  -0.55950  -0.55670  -0.55588
 Alpha  occ. eigenvalues --   -0.55510  -0.55200  -0.55008  -0.54730  -0.54236
 Alpha  occ. eigenvalues --   -0.54108  -0.53440  -0.53431  -0.53402  -0.53141
 Alpha  occ. eigenvalues --   -0.52993  -0.52892  -0.52853  -0.52622  -0.52518
 Alpha  occ. eigenvalues --   -0.52341  -0.52199  -0.52045  -0.51812  -0.51682
 Alpha  occ. eigenvalues --   -0.51367  -0.51305  -0.50921  -0.50663  -0.50303
 Alpha  occ. eigenvalues --   -0.50140  -0.50045  -0.49718  -0.49689  -0.49610
 Alpha  occ. eigenvalues --   -0.49391  -0.49285  -0.49158  -0.48915  -0.48804
 Alpha  occ. eigenvalues --   -0.48627  -0.48620  -0.48567  -0.48213  -0.48165
 Alpha  occ. eigenvalues --   -0.48095  -0.47855  -0.47440  -0.47284  -0.46944
 Alpha  occ. eigenvalues --   -0.46880  -0.46763  -0.46512  -0.46418  -0.46317
 Alpha  occ. eigenvalues --   -0.46121  -0.46027  -0.46021  -0.45844  -0.45517
 Alpha  occ. eigenvalues --   -0.45317  -0.44974  -0.44770  -0.44653  -0.44307
 Alpha  occ. eigenvalues --   -0.44258  -0.44248  -0.44180  -0.44155  -0.43865
 Alpha  occ. eigenvalues --   -0.43723  -0.43701  -0.43640  -0.43551  -0.43261
 Alpha  occ. eigenvalues --   -0.43188  -0.43036  -0.43005  -0.42764  -0.42641
 Alpha  occ. eigenvalues --   -0.42605  -0.42336  -0.42155  -0.41873  -0.41726
 Alpha  occ. eigenvalues --   -0.41696  -0.41378  -0.41299  -0.41099  -0.41046
 Alpha  occ. eigenvalues --   -0.40963  -0.40686  -0.40628  -0.40503  -0.40477
 Alpha  occ. eigenvalues --   -0.40356  -0.40122  -0.39832  -0.39518  -0.39218
 Alpha  occ. eigenvalues --   -0.38594  -0.38089  -0.37994  -0.37460  -0.37444
 Alpha  occ. eigenvalues --   -0.37303  -0.37033  -0.36993  -0.36832  -0.36490
 Alpha  occ. eigenvalues --   -0.36386  -0.35932  -0.34439  -0.34148  -0.33973
 Alpha  occ. eigenvalues --   -0.33579  -0.33342  -0.32911  -0.31458  -0.31190
 Alpha  occ. eigenvalues --   -0.31127  -0.30688  -0.30230  -0.29708  -0.29581
 Alpha  occ. eigenvalues --   -0.29465  -0.29113  -0.28975  -0.24229  -0.23763
 Alpha  occ. eigenvalues --   -0.21265  -0.20844
 Alpha virt. eigenvalues --   -0.08913  -0.08545  -0.01885  -0.01427  -0.00196
 Alpha virt. eigenvalues --    0.00212   0.02039   0.02434   0.02836   0.03529
 Alpha virt. eigenvalues --    0.04530   0.04735   0.05089   0.05459   0.05896

 Mulliken charges:
               1
     1  Mg   0.838917
     2  C   -0.004214
     3  C   -0.094206
     4  C   -0.045647
     5  C   -0.063170
     6  N   -0.256810
     7  C   -0.052827
     8  C   -0.014035
     9  C   -0.087007
    10  C    0.046172
    11  C    0.104708
    12  C    0.053642
    13  C   -0.071148
    14  H    0.032994
    15  N   -0.433245
    16  C    0.168737
    17  C   -0.176594
    18  C   -0.003521
    19  C    0.148821
    20  C    0.109936
    21  C    0.012329
    22  O   -0.249744
    23  C    0.062147
    24  N   -0.341091
    25  C    0.041530
    26  C   -0.028262
    27  C   -0.024048
    28  C    0.074664
    29  C    0.076097
    30  C    0.034960
    31  C   -0.004631
    32  N   -0.310318
    33  C    0.080056
    34  C   -0.169462
    35  C    0.007885
    36  C    0.082534
    37  C    0.127367
    38  C    0.045231
    39  O   -0.189008
    40  C   -0.005253
    41  C    0.214100
    42  O   -0.260490
    43  O   -0.303623
    44  C    0.158246
    45  H   -0.017378
    46  H   -0.016596
    47  H   -0.040533
    48  H    0.000896
    49  H   -0.004127
    50  H    0.025556
    51  H    0.016966
    52  H    0.016919
    53  H    0.011420
    54  H    0.041603
    55  H    0.018887
    56  H    0.018552
    57  H    0.005762
    58  H    0.027131
    59  H    0.040829
    60  H    0.037532
    61  H    0.035770
    62  H    0.032728
    63  H    0.016496
    64  H    0.009836
    65  H    0.023395
    66  H    0.012513
    67  H    0.005165
    68  H    0.006526
    69  H    0.005870
    70  H    0.007781
    71  H    0.019487
    72  H    0.029033
    73  H    0.047513
    74  H    0.010315
    75  H    0.046149
    76  H    0.035727
    77  H    0.043940
    78  H    0.046684
    79  H    0.050622
    80  Mg   0.837219
    81  C   -0.016928
    82  C   -0.087546
    83  C   -0.046760
    84  C   -0.065401
    85  N   -0.255244
    86  C   -0.048134
    87  C   -0.015380
    88  C   -0.090857
    89  C    0.046505
    90  C    0.115710
    91  C    0.062365
    92  C   -0.077454
    93  H    0.032692
    94  N   -0.423476
    95  C    0.162998
    96  C   -0.175075
    97  C   -0.008936
    98  C    0.152426
    99  C    0.099810
   100  C    0.014682
   101  O   -0.254328
   102  C    0.061502
   103  N   -0.350283
   104  C    0.037707
   105  C   -0.019773
   106  C   -0.034798
   107  C    0.089000
   108  C    0.073394
   109  C    0.034908
   110  C   -0.007528
   111  N   -0.324062
   112  C    0.078605
   113  C   -0.163889
   114  C    0.002125
   115  C    0.096156
   116  C    0.131655
   117  C    0.041704
   118  O   -0.188732
   119  C    0.001334
   120  C    0.211095
   121  O   -0.251719
   122  O   -0.304734
   123  C    0.152402
   124  H   -0.018329
   125  H   -0.016993
   126  H   -0.041246
   127  H    0.001850
   128  H   -0.006192
   129  H    0.024821
   130  H    0.012504
   131  H    0.028009
   132  H    0.012715
   133  H    0.036413
   134  H    0.023272
   135  H    0.018907
   136  H    0.009225
   137  H    0.024240
   138  H    0.039029
   139  H    0.037195
   140  H    0.035376
   141  H    0.034068
   142  H    0.013654
   143  H    0.012917
   144  H    0.023655
   145  H    0.010366
   146  H    0.008020
   147  H    0.005826
   148  H    0.003358
   149  H    0.010496
   150  H    0.017387
   151  H    0.030391
   152  H    0.045559
   153  H    0.008158
   154  H    0.045495
   155  H    0.036858
   156  H    0.043522
   157  H    0.050126
   158  H    0.052702
 Sum of Mulliken charges =  -0.00000

 Dipole moment (field-independent basis, Debye):
    X=             -5.5131    Y=              1.6155    Z=              5.8061  Tot=              8.1679
 Quadrupole moment (field-independent basis, Debye-Ang):
   XX=           -518.2637   YY=           -526.6209   ZZ=           -474.2378
   XY=             -9.3626   XZ=             -0.9462   YZ=            -27.4039

 Normal termination of Gaussian 16 at Fri Sep 10 06:16:02 2021.
