 Gaussian 16, Revision A.03,
 Gaussian 16:  ES64L-G16RevA.03 25-Dec-2016

 -----------------------------------
 #p cam-b3lyp/Def2SVP td=(nstates=5)
 -----------------------------------

 --------------------------------
 TDDFT excited states in gaussian
 --------------------------------
 Symbolic Z-matrix:
 Charge =  0 Multiplicity = 1

                         Standard orientation:
 ---------------------------------------------------------------------
 Center     Atomic      Atomic             Coordinates (Angstroms)
 Number     Number       Type             X           Y           Z
 ---------------------------------------------------------------------
      1         12           0       -4.389197   -0.787946    0.218488
      2          6           0       -4.593284    2.779204    0.432963
      3          6           0       -5.369908   -0.499517   -3.036981
      4          6           0       -4.656041   -3.946747    0.132508
      5          6           0       -4.538717   -0.858260    3.699631
      6          7           0       -4.886759    0.971159   -1.029962
      7          6           0       -4.867587    2.287461   -0.845157
      8          6           0       -5.092319    3.098735   -2.156150
      9          6           0       -5.870222    1.995575   -3.004620
     10          6           0       -5.317314    0.745658   -2.342860
     11          6           0       -7.382184    2.028555   -2.806163
     12          6           0       -3.744778    3.504472   -2.842622
     13          6           0       -3.864029    4.566974   -3.939081
     14          1           0       -2.794877    5.542732   -4.087932
     15          7           0       -4.455470   -2.026715   -1.319013
     16          6           0       -4.866014   -1.735281   -2.576712
     17          6           0       -4.728211   -2.987606   -3.350903
     18          6           0       -4.384433   -4.077471   -2.395861
     19          6           0       -4.512281   -3.390192   -1.136226
     20          6           0       -4.870355   -3.053903   -4.840584
     21          6           0       -4.011680   -5.513606   -2.587449
     22          8           0       -3.979154   -6.343384   -1.615347
     23          6           0       -3.768411   -5.949768   -3.974397
     24          7           0       -4.792284   -2.219384    1.683459
     25          6           0       -4.793203   -3.524584    1.391162
     26          6           0       -4.822939   -4.362621    2.634846
     27          6           0       -4.596098   -3.354848    3.852504
     28          6           0       -4.554750   -2.027543    3.055746
     29          6           0       -6.109643   -5.165792    2.870047
     30          6           0       -3.427419   -3.671601    4.819083
     31          6           0       -2.107366   -3.505228    4.100142
     32          7           0       -4.361234    0.679411    1.817589
     33          6           0       -4.457201    0.428422    3.193986
     34          6           0       -4.502838    1.738116    3.869773
     35          6           0       -4.446589    2.666048    2.831686
     36          6           0       -4.397102    1.979509    1.584887
     37          6           0       -4.643850    1.949018    5.269798
     38          6           0       -4.441628    4.077874    2.484443
     39          8           0       -4.374163    5.128117    3.124702
     40          6           0       -4.659326    4.207973    0.912340
     41          6           0       -3.630783    5.173355    0.389419
     42          8           0       -2.416455    4.886205    0.407285
     43          8           0       -4.248108    6.171403   -0.261235
     44          6           0       -3.282753    7.149165   -0.830643
     45          1           0       -5.895448   -0.549293   -3.992633
     46          1           0       -4.640663   -5.038383    0.155570
     47          1           0       -4.500187   -0.801561    4.789014
     48          1           0       -5.714455    3.986403   -2.040322
     49          1           0       -5.591915    2.021352   -4.057997
     50          1           0       -7.665007    2.721763   -2.014080
     51          1           0       -7.662907    1.009694   -2.538562
     52          1           0       -7.891648    2.242678   -3.746043
     53          1           0       -3.376806    2.666883   -3.435161
     54          1           0       -3.017023    3.833038   -2.099828
     55          1           0       -4.833727    5.064605   -3.908094
     56          1           0       -3.848725    4.063433   -4.905731
     57          1           0       -5.286482   -2.131873   -5.244617
     58          1           0       -5.625691   -3.809672   -5.055036
     59          1           0       -3.933897   -3.320643   -5.330715
     60          1           0       -4.664772   -5.773760   -4.569467
     61          1           0       -3.426870   -6.982229   -3.909408
     62          1           0       -2.985353   -5.327155   -4.408127
     63          1           0       -4.022055   -5.100839    2.628199
     64          1           0       -5.469657   -3.295049    4.502113
     65          1           0       -5.943438   -6.238243    2.974596
     66          1           0       -6.793791   -4.954318    2.048761
     67          1           0       -6.697617   -4.845600    3.729803
     68          1           0       -3.482138   -4.706962    5.153715
     69          1           0       -3.417650   -3.036753    5.705155
     70          1           0       -1.984509   -4.461242    3.592426
     71          1           0       -1.302535   -3.337392    4.816585
     72          1           0       -2.166772   -2.733714    3.332208
     73          1           0       -3.938447    2.737426    5.532075
     74          1           0       -4.443625    1.035914    5.829936
     75          1           0       -5.689537    2.251412    5.324139
     76          1           0       -5.675355    4.573094    0.765733
     77          1           0       -3.552900    8.130850   -0.441352
     78          1           0       -3.302645    7.010574   -1.911754
     79          1           0       -2.252077    7.066767   -0.483861
     80         12           0        4.608700   -0.763699   -0.077505
     81          6           0        4.238596    2.798447    0.153178
     82          6           0        3.479477   -0.523240   -3.287121
     83          6           0        4.494008   -3.933214   -0.169476
     84          6           0        4.601437   -0.850684    3.406466
     85          7           0        3.973623    0.969070   -1.296720
     86          6           0        3.933964    2.281585   -1.123332
     87          6           0        3.623925    3.091362   -2.410847
     88          6           0        2.858222    1.946415   -3.236480
     89          6           0        3.497299    0.715276   -2.597299
     90          6           0        1.363846    1.904906   -2.963587
     91          6           0        4.926069    3.559603   -3.150554
     92          6           0        4.704159    4.611848   -4.239265
     93          1           0        5.723861    5.639124   -4.432573
     94          7           0        4.540966   -2.001931   -1.626945
     95          6           0        4.072024   -1.733110   -2.863525
     96          6           0        4.223723   -2.978978   -3.630968
     97          6           0        4.667616   -4.052081   -2.700314
     98          6           0        4.562403   -3.360496   -1.431166
     99          6           0        4.031515   -3.047071   -5.118194
    100          6           0        5.101229   -5.470473   -2.915583
    101          8           0        5.215639   -6.294902   -1.940872
    102          6           0        5.297654   -5.891451   -4.310456
    103          7           0        4.343069   -2.208263    1.393896
    104          6           0        4.387392   -3.517980    1.092876
    105          6           0        4.447559   -4.363218    2.342809
    106          6           0        4.679386   -3.335302    3.545812
    107          6           0        4.621425   -2.007583    2.758908
    108          6           0        3.210322   -5.213184    2.631290
    109          6           0        5.902019   -3.595246    4.467898
    110          6           0        7.184667   -3.376804    3.698162
    111          7           0        4.636676    0.696312    1.514864
    112          6           0        4.603508    0.444239    2.903905
    113          6           0        4.522787    1.754093    3.582284
    114          6           0        4.491126    2.683653    2.531848
    115          6           0        4.527712    2.000303    1.286371
    116          6           0        4.440193    1.958966    4.988452
    117          6           0        4.424349    4.087076    2.193268
    118          8           0        4.460457    5.137603    2.832655
    119          6           0        4.130255    4.217967    0.636741
    120          6           0        5.088354    5.227510    0.066302
    121          8           0        6.310540    4.998418    0.047012
    122          8           0        4.390290    6.194945   -0.555916
    123          6           0        5.297323    7.214223   -1.147662
    124          1           0        2.923350   -0.588028   -4.222764
    125          1           0        4.563166   -5.023134   -0.142032
    126          1           0        4.693940   -0.788094    4.492836
    127          1           0        2.971622    3.944044   -2.265159
    128          1           0        3.099121    1.994805   -4.295253
    129          1           0        1.080842    2.577470   -2.167527
    130          1           0        1.142998    0.881327   -2.690553
    131          1           0        0.806905    2.097937   -3.884935
    132          1           0        5.306764    2.732473   -3.763482
    133          1           0        5.656260    3.913802   -2.449132
    134          1           0        3.707923    5.066272   -4.176369
    135          1           0        4.709981    4.112255   -5.211070
    136          1           0        3.547618   -2.140958   -5.503162
    137          1           0        3.306202   -3.845029   -5.310664
    138          1           0        4.956572   -3.273904   -5.652504
    139          1           0        4.371560   -5.752978   -4.863288
    140          1           0        5.692211   -6.907942   -4.256132
    141          1           0        6.041705   -5.233391   -4.773026
    142          1           0        5.282131   -5.052473    2.303760
    143          1           0        3.828415   -3.324992    4.242652
    144          1           0        3.434501   -6.292524    2.725251
    145          1           0        2.487590   -5.041991    1.844595
    146          1           0        2.653051   -4.929974    3.522604
    147          1           0        5.912166   -4.636664    4.798808
    148          1           0        5.911724   -2.974528    5.357620
    149          1           0        7.326643   -4.329731    3.179649
    150          1           0        8.008982   -3.170669    4.377898
    151          1           0        7.057767   -2.601347    2.933818
    152          1           0        5.110239    2.775065    5.224068
    153          1           0        4.702332    1.057100    5.537713
    154          1           0        3.379878    2.206342    5.087552
    155          1           0        3.091385    4.530678    0.524792
    156          1           0        4.992999    8.185146   -0.744690
    157          1           0        5.225021    7.078472   -2.243147
    158          1           0        6.341575    7.183549   -0.859500
 ---------------------------------------------------------------------

 SCF Done:  E(RCAM-B3LYP) =  -4069.81129871     A.U. after   19 cycles

 Excitation energies and oscillator strengths:

 Excited State   1:      Singlet-A      1.6473 eV  752.63 nm  f=0.0012  <S**2>=0.000
     309 -> 315       -0.11440
     310 -> 316        0.12119
     311 -> 313       -0.46963
     312 -> 314        0.50241
 This state for optimization and/or second-order correction.
 Total Energy, E(TD-HF/TD-DFT) =  -4069.75076023
 Copying the excited state density for this state as the 1-particle RhoCI density.

 Excited State   2:      Singlet-A      1.7045 eV  727.39 nm  f=0.6969  <S**2>=0.000
     309 -> 315        0.13323
     310 -> 316        0.12334
     311 -> 313        0.49972
     312 -> 314        0.46718

 Excited State   3:      Singlet-A      2.1801 eV  568.70 nm  f=0.0142  <S**2>=0.000
     309 -> 313       -0.31563
     310 -> 314        0.56274
     311 -> 315        0.13032
     312 -> 316       -0.23389

 Excited State   4:      Singlet-A      2.1963 eV  564.52 nm  f=0.1597  <S**2>=0.000
     309 -> 313        0.55771
     310 -> 314        0.31094
     311 -> 315       -0.24618
     312 -> 316       -0.13852

 Excited State   5:      Singlet-A      2.3417 eV  529.46 nm  f=0.0000  <S**2>=0.000
     312 -> 313        0.70708

 The electronic state is 1-A.
 Alpha  occ. eigenvalues --  -46.87912 -46.87425 -19.26383 -19.26074 -19.19127
 Alpha  occ. eigenvalues --  -19.18905 -19.18888 -19.18523 -19.18240 -19.17733
 Alpha  occ. eigenvalues --  -14.42576 -14.42262 -14.41562 -14.41128 -14.39517
 Alpha  occ. eigenvalues --  -14.39122 -14.38694 -14.38350 -10.39186 -10.38806
 Alpha  occ. eigenvalues --  -10.35540 -10.35206 -10.34463 -10.33902 -10.31768
 Alpha  occ. eigenvalues --  -10.31534 -10.31530 -10.31055 -10.31045 -10.30787
 Alpha  occ. eigenvalues --  -10.30683 -10.30608 -10.30321 -10.30152 -10.30111
 Alpha  occ. eigenvalues --  -10.30018 -10.29944 -10.29735 -10.29653 -10.29367
 Alpha  occ. eigenvalues --  -10.29223 -10.29165 -10.28929 -10.28813 -10.28515
 Alpha  occ. eigenvalues --  -10.28477 -10.28464 -10.28278 -10.28153 -10.27895
 Alpha  occ. eigenvalues --  -10.27894 -10.27853 -10.27755 -10.27694 -10.27639
 Alpha  occ. eigenvalues --  -10.27603 -10.27540 -10.27520 -10.27451 -10.27349
 Alpha  occ. eigenvalues --  -10.27346 -10.27255 -10.27240 -10.27229 -10.27184
 Alpha  occ. eigenvalues --  -10.26964 -10.26684 -10.26520 -10.26501 -10.26370
 Alpha  occ. eigenvalues --  -10.26297 -10.26285 -10.26130 -10.25992 -10.25903
 Alpha  occ. eigenvalues --  -10.25715 -10.25712 -10.25579 -10.25512 -10.25207
 Alpha  occ. eigenvalues --  -10.24930 -10.24892 -10.24818 -10.24612 -10.24587
 Alpha  occ. eigenvalues --  -10.24452  -3.16655  -3.16175  -1.91536  -1.91123
 Alpha  occ. eigenvalues --   -1.91058  -1.90965  -1.90646  -1.90483  -1.16733
 Alpha  occ. eigenvalues --   -1.16368  -1.08695  -1.08329  -1.07303  -1.06778
 Alpha  occ. eigenvalues --   -1.06746  -1.06671  -1.04707  -1.04253  -1.03874
 Alpha  occ. eigenvalues --   -1.03428  -1.03342  -1.02806  -1.02521  -1.01871
 Alpha  occ. eigenvalues --   -0.92081  -0.91712  -0.89628  -0.89356  -0.89282
 Alpha  occ. eigenvalues --   -0.88910  -0.88393  -0.88018  -0.87964  -0.87807
 Alpha  occ. eigenvalues --   -0.87539  -0.87460  -0.87392  -0.86932  -0.85141
 Alpha  occ. eigenvalues --   -0.84775  -0.84040  -0.83676  -0.83079  -0.82786
 Alpha  occ. eigenvalues --   -0.82761  -0.82432  -0.81694  -0.81349  -0.80711
 Alpha  occ. eigenvalues --   -0.80208  -0.78912  -0.78424  -0.77350  -0.77071
 Alpha  occ. eigenvalues --   -0.76930  -0.76672  -0.76047  -0.75590  -0.75001
 Alpha  occ. eigenvalues --   -0.74589  -0.72883  -0.72464  -0.71786  -0.71340
 Alpha  occ. eigenvalues --   -0.70018  -0.69576  -0.69019  -0.68605  -0.67752
 Alpha  occ. eigenvalues --   -0.67392  -0.67371  -0.67004  -0.65438  -0.65032
 Alpha  occ. eigenvalues --   -0.64966  -0.64743  -0.64538  -0.64420  -0.64378
 Alpha  occ. eigenvalues --   -0.63995  -0.62399  -0.62030  -0.60554  -0.60138
 Alpha  occ. eigenvalues --   -0.59950  -0.59554  -0.59099  -0.58756  -0.58613
 Alpha  occ. eigenvalues --   -0.58183  -0.57683  -0.57413  -0.57256  -0.57005
 Alpha  occ. eigenvalues --   -0.56419  -0.56096  -0.55977  -0.55646  -0.55632
 Alpha  occ. eigenvalues --   -0.55440  -0.55234  -0.55024  -0.54627  -0.54263
 Alpha  occ. eigenvalues --   -0.54062  -0.53681  -0.53409  -0.53358  -0.53032
 Alpha  occ. eigenvalues --   -0.53014  -0.52918  -0.52891  -0.52675  -0.52550
 Alpha  occ. eigenvalues --   -0.52484  -0.52223  -0.51995  -0.51771  -0.51616
 Alpha  occ. eigenvalues --   -0.51444  -0.51304  -0.50956  -0.50702  -0.50318
 Alpha  occ. eigenvalues --   -0.50150  -0.50041  -0.49771  -0.49669  -0.49647
 Alpha  occ. eigenvalues --   -0.49327  -0.49274  -0.49230  -0.48957  -0.48842
 Alpha  occ. eigenvalues --   -0.48703  -0.48561  -0.48541  -0.48314  -0.48171
 Alpha  occ. eigenvalues --   -0.48120  -0.47820  -0.47410  -0.47382  -0.46921
 Alpha  occ. eigenvalues --   -0.46919  -0.46714  -0.46492  -0.46468  -0.46338
 Alpha  occ. eigenvalues --   -0.46262  -0.46058  -0.45921  -0.45848  -0.45564
 Alpha  occ. eigenvalues --   -0.45304  -0.44994  -0.44680  -0.44641  -0.44275
 Alpha  occ. eigenvalues --   -0.44258  -0.44255  -0.44233  -0.44124  -0.43889
 Alpha  occ. eigenvalues --   -0.43877  -0.43708  -0.43597  -0.43519  -0.43316
 Alpha  occ. eigenvalues --   -0.43154  -0.43136  -0.42801  -0.42761  -0.42688
 Alpha  occ. eigenvalues --   -0.42640  -0.42359  -0.42135  -0.41813  -0.41759
 Alpha  occ. eigenvalues --   -0.41690  -0.41402  -0.41259  -0.41244  -0.41020
 Alpha  occ. eigenvalues --   -0.40948  -0.40752  -0.40683  -0.40533  -0.40493
 Alpha  occ. eigenvalues --   -0.40440  -0.40281  -0.40029  -0.39558  -0.39251
 Alpha  occ. eigenvalues --   -0.38590  -0.38151  -0.37940  -0.37455  -0.37435
 Alpha  occ. eigenvalues --   -0.37413  -0.37055  -0.36971  -0.36818  -0.36521
 Alpha  occ. eigenvalues --   -0.36307  -0.35992  -0.34399  -0.34014  -0.33878
 Alpha  occ. eigenvalues --   -0.33593  -0.33298  -0.32939  -0.31435  -0.31149
 Alpha  occ. eigenvalues --   -0.31081  -0.30731  -0.30100  -0.29631  -0.29556
 Alpha  occ. eigenvalues --   -0.29418  -0.29105  -0.28947  -0.24195  -0.23790
 Alpha  occ. eigenvalues --   -0.21242  -0.20883
 Alpha virt. eigenvalues --   -0.08884  -0.08553  -0.01862  -0.01456  -0.00168
 Alpha virt. eigenvalues --    0.00193   0.02110   0.02474   0.02818   0.03499
 Alpha virt. eigenvalues --    0.04566   0.04935   0.05000   0.05449   0.05946

 Mulliken charges:
               1
     1  Mg   0.838431
     2  C   -0.003443
     3  C   -0.095243
     4  C   -0.045328
     5  C   -0.063773
     6  N   -0.256653
     7  C   -0.052962
     8  C   -0.013758
     9  C   -0.086829
    10  C    0.045867
    11  C    0.104785
    12  C    0.053539
    13  C   -0.071332
    14  H    0.034496
    15  N   -0.433170
    16  C    0.168142
    17  C   -0.177885
    18  C   -0.003865
    19  C    0.148822
    20  C    0.110334
    21  C    0.012826
    22  O   -0.248752
    23  C    0.062598
    24  N   -0.341075
    25  C    0.041077
    26  C   -0.028307
    27  C   -0.024014
    28  C    0.074902
    29  C    0.076042
    30  C    0.035093
    31  C   -0.004863
    32  N   -0.310638
    33  C    0.080664
    34  C   -0.169219
    35  C    0.008896
    36  C    0.083115
    37  C    0.127111
    38  C    0.046726
    39  O   -0.186940
    40  C   -0.005627
    41  C    0.213591
    42  O   -0.257805
    43  O   -0.304771
    44  C    0.157079
    45  H   -0.017820
    46  H   -0.016398
    47  H   -0.041206
    48  H    0.001463
    49  H   -0.004891
    50  H    0.025810
    51  H    0.016794
    52  H    0.016651
    53  H    0.009530
    54  H    0.043348
    55  H    0.019123
    56  H    0.017130
    57  H    0.005375
    58  H    0.027215
    59  H    0.037964
    60  H    0.037186
    61  H    0.036444
    62  H    0.030217
    63  H    0.016906
    64  H    0.009757
    65  H    0.023543
    66  H    0.012612
    67  H    0.004894
    68  H    0.006529
    69  H    0.004785
    70  H    0.009263
    71  H    0.016744
    72  H    0.029756
    73  H    0.048640
    74  H    0.009067
    75  H    0.046280
    76  H    0.035364
    77  H    0.044027
    78  H    0.045328
    79  H    0.054625
    80  Mg   0.837583
    81  C   -0.015693
    82  C   -0.088126
    83  C   -0.045419
    84  C   -0.065287
    85  N   -0.254555
    86  C   -0.048172
    87  C   -0.015217
    88  C   -0.091179
    89  C    0.046003
    90  C    0.112401
    91  C    0.062659
    92  C   -0.077127
    93  H    0.034013
    94  N   -0.423360
    95  C    0.162745
    96  C   -0.175659
    97  C   -0.008064
    98  C    0.151744
    99  C    0.099977
   100  C    0.015277
   101  O   -0.253376
   102  C    0.061453
   103  N   -0.350035
   104  C    0.037228
   105  C   -0.019669
   106  C   -0.034665
   107  C    0.089307
   108  C    0.073565
   109  C    0.034855
   110  C   -0.007563
   111  N   -0.324563
   112  C    0.079282
   113  C   -0.162599
   114  C    0.004049
   115  C    0.095890
   116  C    0.130935
   117  C    0.044584
   118  O   -0.186499
   119  C   -0.000498
   120  C    0.210560
   121  O   -0.252056
   122  O   -0.304551
   123  C    0.152369
   124  H   -0.021593
   125  H   -0.015860
   126  H   -0.040971
   127  H    0.001545
   128  H   -0.006177
   129  H    0.031662
   130  H    0.013208
   131  H    0.012526
   132  H    0.013291
   133  H    0.037644
   134  H    0.020381
   135  H    0.018560
   136  H    0.007466
   137  H    0.024197
   138  H    0.039087
   139  H    0.037338
   140  H    0.035936
   141  H    0.033497
   142  H    0.013951
   143  H    0.011554
   144  H    0.024718
   145  H    0.013010
   146  H    0.004608
   147  H    0.005695
   148  H    0.003306
   149  H    0.010778
   150  H    0.017530
   151  H    0.030435
   152  H    0.045777
   153  H    0.007389
   154  H    0.049435
   155  H    0.042423
   156  H    0.043664
   157  H    0.048489
   158  H    0.053015
 Sum of Mulliken charges =  -0.00000

 Dipole moment (field-independent basis, Debye):
    X=             -4.5240    Y=             -2.1680    Z=             -7.0198  Tot=              8.6282
 Quadrupole moment (field-independent basis, Debye-Ang):
   XX=           -518.4893   YY=           -551.8305   ZZ=           -448.7900
   XY=             -6.2507   XZ=              5.6922   YZ=            -47.4639

 Normal termination of Gaussian 16 at Fri Sep 10 04:23:51 2021.
