 Gaussian 16, Revision A.03,
 Gaussian 16:  ES64L-G16RevA.03 25-Dec-2016

 -----------------------------------
 #p cam-b3lyp/Def2SVP td=(nstates=5)
 -----------------------------------

 --------------------------------
 TDDFT excited states in gaussian
 --------------------------------
 Symbolic Z-matrix:
 Charge =  0 Multiplicity = 1

                         Standard orientation:
 ---------------------------------------------------------------------
 Center     Atomic      Atomic             Coordinates (Angstroms)
 Number     Number       Type             X           Y           Z
 ---------------------------------------------------------------------
      1         12           0      -15.922197   -0.644058    0.082462
      2          6           0      -16.096981    2.931075    0.073022
      3          6           0      -16.788732   -0.546661   -3.216431
      4          6           0      -16.218240   -3.799950    0.179054
      5          6           0      -16.190619   -0.500800    3.554218
      6          7           0      -16.359047    1.039655   -1.286815
      7          6           0      -16.332710    2.364575   -1.181631
      8          6           0      -16.504465    3.096219   -2.546391
      9          6           0      -17.264327    1.949751   -3.352751
     10          6           0      -16.747027    0.738045   -2.597705
     11          6           0      -18.781743    2.007069   -3.208994
     12          6           0      -15.130301    3.448375   -3.209258
     13          6           0      -15.201363    4.442991   -4.371601
     14          1           0      -14.117852    5.399129   -4.542344
     15          7           0      -15.948852   -1.973674   -1.378449
     16          6           0      -16.313425   -1.756125   -2.664934
     17          6           0      -16.162206   -3.054399   -3.356526
     18          6           0      -15.862234   -4.086775   -2.325842
     19          6           0      -16.025775   -3.322965   -1.115376
     20          6           0      -16.254324   -3.210230   -4.843463
     21          6           0      -15.497886   -5.534903   -2.416990
     22          8           0      -15.506891   -6.304112   -1.395809
     23          6           0      -15.212105   -6.056772   -3.765702
     24          7           0      -16.389437   -1.980197    1.616755
     25          6           0      -16.393765   -3.300737    1.404298
     26          6           0      -16.474305   -4.061126    2.694748
     27          6           0      -16.278678   -2.982875    3.856150
     28          6           0      -16.196717   -1.706992    2.982265
     29          6           0      -17.776400   -4.837970    2.933650
     30          6           0      -15.146814   -3.249610    4.879945
     31          6           0      -13.801463   -3.138121    4.198255
     32          7           0      -15.933585    0.917781    1.589636
     33          6           0      -16.078822    0.751958    2.974585
     34          6           0      -16.134004    2.100742    3.567716
     35          6           0      -16.033034    2.963174    2.477826
     36          6           0      -15.948235    2.201523    1.277414
     37          6           0      -16.320339    2.397742    4.946667
     38          6           0      -16.001848    4.351118    2.045975
     39          8           0      -15.945444    5.437856    2.623307
     40          6           0      -16.164664    4.386900    0.462296
     41          6           0      -15.109133    5.310207   -0.082377
     42          8           0      -13.899112    5.014810   -0.005202
     43          8           0      -15.693761    6.271723   -0.813295
     44          6           0      -14.699672    7.205065   -1.407275
     45          1           0      -17.281980   -0.650327   -4.184884
     46          1           0      -16.214814   -4.888238    0.268797
     47          1           0      -16.188547   -0.378109    4.638835
     48          1           0      -17.121072    3.994329   -2.506167
     49          1           0      -16.950141    1.908998   -4.395512
     50          1           0      -19.084214    2.749554   -2.470653
     51          1           0      -19.081795    1.008735   -2.889949
     52          1           0      -19.256763    2.167634   -4.177164
     53          1           0      -14.750991    2.573254   -3.736845
     54          1           0      -14.424884    3.815680   -2.463069
     55          1           0      -16.166416    4.949458   -4.404359
     56          1           0      -15.158372    3.881349   -5.304827
     57          1           0      -16.647037   -2.311190   -5.316802
     58          1           0      -17.009624   -3.971496   -5.037641
     59          1           0      -15.304529   -3.513964   -5.283881
     60          1           0      -16.085883   -5.910082   -4.400951
     61          1           0      -14.883540   -7.086095   -3.626458
     62          1           0      -14.408439   -5.468150   -4.209091
     63          1           0      -15.681246   -4.804869    2.760548
     64          1           0      -17.173147   -2.876479    4.470381
     65          1           0      -17.624815   -5.903368    3.108727
     66          1           0      -18.430052   -4.671398    2.077913
     67          1           0      -18.389943   -4.461186    3.751585
     68          1           0      -15.223451   -4.262166    5.274664
     69          1           0      -15.160667   -2.562025    5.725691
     70          1           0      -13.671206   -4.124277    3.754001
     71          1           0      -13.019767   -2.933475    4.930567
     72          1           0      -13.826854   -2.414401    3.383350
     73          1           0      -15.616233    3.194907    5.184850
     74          1           0      -16.148605    1.518886    5.567732
     75          1           0      -17.364123    2.711385    4.946422
     76          1           0      -17.171340    4.750659    0.258814
     77          1           0      -14.972842    8.210823   -1.087801
     78          1           0      -14.684236    7.000991   -2.478032
     79          1           0      -13.682270    7.135579   -1.020747
     80         12           0       15.836614   -0.890071    0.153760
     81          6           0       16.628763    2.609518    0.220232
     82          6           0       15.910303   -0.689483   -3.250501
     83          6           0       14.701621   -3.851358    0.053826
     84          6           0       14.718136   -0.557385    3.437655
     85          7           0       16.231008    0.797294   -1.220835
     86          6           0       16.581433    2.066917   -1.080834
     87          6           0       16.977047    2.774683   -2.404516
     88          6           0       16.169105    1.838162   -3.428734
     89          6           0       16.126561    0.553519   -2.603764
     90          6           0       14.741139    2.299707   -3.667925
     91          6           0       18.522055    2.720193   -2.672837
     92          6           0       19.015476    3.652329   -3.781629
     93          1           0       20.326656    4.277767   -3.632960
     94          7           0       15.843233   -2.218907   -1.320264
     95          6           0       15.900503   -1.965009   -2.644475
     96          6           0       15.856700   -3.277257   -3.307983
     97          6           0       15.602867   -4.317319   -2.274282
     98          6           0       15.346429   -3.482516   -1.117815
     99          6           0       16.125172   -3.457209   -4.773922
    100          6           0       15.580419   -5.815125   -2.321954
    101          8           0       15.103102   -6.512409   -1.358216
    102          6           0       16.047697   -6.438435   -3.568808
    103          7           0       14.659173   -1.993750    1.464433
    104          6           0       14.353504   -3.277298    1.205592
    105          6           0       13.735422   -3.944615    2.411024
    106          6           0       13.911994   -2.906360    3.614539
    107          6           0       14.549714   -1.730343    2.842716
    108          6           0       12.260558   -4.323540    2.278394
    109          6           0       14.625879   -3.425338    4.892702
    110          6           0       16.079207   -3.712631    4.591542
    111          7           0       15.855550    0.665276    1.653288
    112          6           0       15.309891    0.602569    2.954206
    113          6           0       15.465945    1.942315    3.556822
    114          6           0       16.075603    2.703745    2.548348
    115          6           0       16.266395    1.901016    1.391322
    116          6           0       15.024023    2.327673    4.853870
    117          6           0       16.591481    4.006933    2.195803
    118          8           0       16.776721    5.061108    2.802532
    119          6           0       16.857522    4.038209    0.629076
    120          6           0       18.225180    4.621604    0.401728
    121          8           0       19.241584    4.020413    0.791712
    122          8           0       18.121654    5.678270   -0.424782
    123          6           0       19.453785    6.284329   -0.689269
    124          1           0       15.684743   -0.686970   -4.317270
    125          1           0       14.389564   -4.896731    0.111271
    126          1           0       14.483716   -0.398829    4.492449
    127          1           0       16.637131    3.799770   -2.490706
    128          1           0       16.728673    1.682932   -4.347510
    129          1           0       14.467231    3.116327   -3.016577
    130          1           0       14.116996    1.436817   -3.475809
    131          1           0       14.596742    2.547081   -4.723520
    132          1           0       18.774171    1.749008   -3.117775
    133          1           0       19.072181    2.908103   -1.771347
    134          1           0       18.261968    4.400172   -4.057131
    135          1           0       19.155382    3.064755   -4.692243
    136          1           0       16.117877   -2.497362   -5.304997
    137          1           0       15.272566   -4.004515   -5.190321
    138          1           0       17.038109   -4.024097   -4.968455
    139          1           0       15.442131   -6.083148   -4.399175
    140          1           0       16.041319   -7.513410   -3.378388
    141          1           0       17.073706   -6.106347   -3.762820
    142          1           0       14.259064   -4.860216    2.657111
    143          1           0       12.941923   -2.547472    3.988686
    144          1           0       12.069264   -5.399656    2.450036
    145          1           0       11.919539   -4.028843    1.294834
    146          1           0       11.582679   -3.776550    2.931443
    147          1           0       14.183250   -4.370594    5.216333
    148          1           0       14.565861   -2.738229    5.730116
    149          1           0       16.047489   -4.716359    4.157250
    150          1           0       16.670201   -3.696308    5.505046
    151          1           0       16.463611   -3.032675    3.822417
    152          1           0       15.820144    2.914496    5.292444
    153          1           0       14.784425    1.460775    5.466112
    154          1           0       14.132924    2.904793    4.592838
    155          1           0       16.072971    4.645191    0.175621
    156          1           0       19.383021    7.342218   -0.418066
    157          1           0       19.684500    6.049426   -1.745368
    158          1           0       20.282806    5.962247   -0.070057
 ---------------------------------------------------------------------

 SCF Done:  E(RCAM-B3LYP) =  -4069.81177080     A.U. after   19 cycles

 Excitation energies and oscillator strengths:

 Excited State   1:      Singlet-A      1.6753 eV  740.07 nm  f=0.2123  <S**2>=0.000
     310 -> 316        0.16861
     311 -> 314       -0.16230
     312 -> 313        0.66658
     310 <- 316        0.10165
 This state for optimization and/or second-order correction.
 Total Energy, E(TD-HF/TD-DFT) =  -4069.75020464
 Copying the excited state density for this state as the 1-particle RhoCI density.

 Excited State   2:      Singlet-A      1.6801 eV  737.95 nm  f=0.5652  <S**2>=0.000
     309 -> 315        0.17063
     311 -> 314        0.66621
     312 -> 313        0.16225
     309 <- 315        0.10216

 Excited State   3:      Singlet-A      2.1861 eV  567.15 nm  f=0.0960  <S**2>=0.000
     310 -> 313        0.64214
     312 -> 316       -0.27296

 Excited State   4:      Singlet-A      2.1925 eV  565.48 nm  f=0.1043  <S**2>=0.000
     309 -> 314        0.64036
     311 -> 315       -0.27816

 Excited State   5:      Singlet-A      3.0646 eV  404.57 nm  f=0.0000  <S**2>=0.000
     311 -> 313        0.70711

 The electronic state is 1-A.
 Alpha  occ. eigenvalues --  -46.87790 -46.87660 -19.26349 -19.26277 -19.19161
 Alpha  occ. eigenvalues --  -19.19012 -19.18808 -19.18715 -19.18162 -19.18051
 Alpha  occ. eigenvalues --  -14.42498 -14.42443 -14.41442 -14.41359 -14.39396
 Alpha  occ. eigenvalues --  -14.39352 -14.38599 -14.38580 -10.39091 -10.39072
 Alpha  occ. eigenvalues --  -10.35442 -10.35392 -10.34382 -10.34228 -10.31756
 Alpha  occ. eigenvalues --  -10.31672 -10.31398 -10.31309 -10.31024 -10.30902
 Alpha  occ. eigenvalues --  -10.30563 -10.30500 -10.30397 -10.30360 -10.30200
 Alpha  occ. eigenvalues --  -10.30140 -10.29913 -10.29893 -10.29624 -10.29437
 Alpha  occ. eigenvalues --  -10.29401 -10.29247 -10.28742 -10.28720 -10.28656
 Alpha  occ. eigenvalues --  -10.28533 -10.28405 -10.28358 -10.28141 -10.28110
 Alpha  occ. eigenvalues --  -10.28001 -10.27786 -10.27720 -10.27669 -10.27578
 Alpha  occ. eigenvalues --  -10.27516 -10.27494 -10.27484 -10.27475 -10.27469
 Alpha  occ. eigenvalues --  -10.27465 -10.27442 -10.27396 -10.27374 -10.27151
 Alpha  occ. eigenvalues --  -10.27050 -10.26698 -10.26694 -10.26417 -10.26404
 Alpha  occ. eigenvalues --  -10.26228 -10.26176 -10.26135 -10.26025 -10.26012
 Alpha  occ. eigenvalues --  -10.25934 -10.25848 -10.25836 -10.25428 -10.25394
 Alpha  occ. eigenvalues --  -10.24872 -10.24826 -10.24781 -10.24730 -10.24689
 Alpha  occ. eigenvalues --  -10.24679  -3.16532  -3.16410  -1.91414  -1.91292
 Alpha  occ. eigenvalues --   -1.91001  -1.90881  -1.90843  -1.90718  -1.16643
 Alpha  occ. eigenvalues --   -1.16625  -1.08658  -1.08620  -1.07210  -1.06967
 Alpha  occ. eigenvalues --   -1.06946  -1.06635  -1.04574  -1.04495  -1.03753
 Alpha  occ. eigenvalues --   -1.03663  -1.03227  -1.03038  -1.02404  -1.02111
 Alpha  occ. eigenvalues --   -0.91987  -0.91965  -0.89512  -0.89493  -0.89181
 Alpha  occ. eigenvalues --   -0.89152  -0.88280  -0.88219  -0.87863  -0.87793
 Alpha  occ. eigenvalues --   -0.87684  -0.87666  -0.87267  -0.87121  -0.85000
 Alpha  occ. eigenvalues --   -0.84975  -0.83929  -0.83875  -0.82961  -0.82932
 Alpha  occ. eigenvalues --   -0.82653  -0.82642  -0.81596  -0.81578  -0.80589
 Alpha  occ. eigenvalues --   -0.80443  -0.78790  -0.78636  -0.77212  -0.77144
 Alpha  occ. eigenvalues --   -0.76927  -0.76898  -0.75916  -0.75839  -0.74891
 Alpha  occ. eigenvalues --   -0.74802  -0.72767  -0.72699  -0.71665  -0.71580
 Alpha  occ. eigenvalues --   -0.69900  -0.69756  -0.68866  -0.68828  -0.67634
 Alpha  occ. eigenvalues --   -0.67602  -0.67213  -0.67201  -0.65280  -0.65272
 Alpha  occ. eigenvalues --   -0.64847  -0.64770  -0.64654  -0.64614  -0.64262
 Alpha  occ. eigenvalues --   -0.64203  -0.62290  -0.62278  -0.60435  -0.60340
 Alpha  occ. eigenvalues --   -0.59797  -0.59797  -0.58992  -0.58980  -0.58497
 Alpha  occ. eigenvalues --   -0.58425  -0.57577  -0.57554  -0.57302  -0.57236
 Alpha  occ. eigenvalues --   -0.56303  -0.56204  -0.55971  -0.55886  -0.55513
 Alpha  occ. eigenvalues --   -0.55452  -0.55332  -0.55247  -0.54516  -0.54487
 Alpha  occ. eigenvalues --   -0.53913  -0.53888  -0.53292  -0.53227  -0.53215
 Alpha  occ. eigenvalues --   -0.53142  -0.52908  -0.52902  -0.52750  -0.52669
 Alpha  occ. eigenvalues --   -0.52431  -0.52400  -0.51907  -0.51883  -0.51659
 Alpha  occ. eigenvalues --   -0.51610  -0.51201  -0.51189  -0.50566  -0.50476
 Alpha  occ. eigenvalues --   -0.50024  -0.49980  -0.49912  -0.49866  -0.49508
 Alpha  occ. eigenvalues --   -0.49488  -0.49208  -0.49203  -0.49104  -0.49089
 Alpha  occ. eigenvalues --   -0.48586  -0.48558  -0.48454  -0.48438  -0.48375
 Alpha  occ. eigenvalues --   -0.48339  -0.47688  -0.47595  -0.47290  -0.47118
 Alpha  occ. eigenvalues --   -0.46790  -0.46709  -0.46554  -0.46549  -0.46352
 Alpha  occ. eigenvalues --   -0.46270  -0.46155  -0.46085  -0.45822  -0.45815
 Alpha  occ. eigenvalues --   -0.45208  -0.45194  -0.44570  -0.44514  -0.44500
 Alpha  occ. eigenvalues --   -0.44476  -0.44138  -0.44127  -0.44081  -0.44078
 Alpha  occ. eigenvalues --   -0.44012  -0.43940  -0.43553  -0.43487  -0.43386
 Alpha  occ. eigenvalues --   -0.43379  -0.43020  -0.42930  -0.42901  -0.42692
 Alpha  occ. eigenvalues --   -0.42647  -0.42553  -0.42002  -0.41964  -0.41697
 Alpha  occ. eigenvalues --   -0.41669  -0.41527  -0.41459  -0.41134  -0.40989
 Alpha  occ. eigenvalues --   -0.40862  -0.40817  -0.40723  -0.40699  -0.40564
 Alpha  occ. eigenvalues --   -0.40492  -0.40228  -0.40228  -0.39433  -0.39424
 Alpha  occ. eigenvalues --   -0.38462  -0.38349  -0.37742  -0.37655  -0.37313
 Alpha  occ. eigenvalues --   -0.37265  -0.37257  -0.37200  -0.36771  -0.36706
 Alpha  occ. eigenvalues --   -0.36217  -0.36185  -0.34279  -0.34253  -0.33862
 Alpha  occ. eigenvalues --   -0.33763  -0.33179  -0.33175  -0.31338  -0.31274
 Alpha  occ. eigenvalues --   -0.31028  -0.30973  -0.30021  -0.29955  -0.29442
 Alpha  occ. eigenvalues --   -0.29327  -0.29315  -0.29211  -0.24073  -0.24036
 Alpha  occ. eigenvalues --   -0.21121  -0.21117
 Alpha virt. eigenvalues --   -0.08792  -0.08767  -0.01743  -0.01683  -0.00051
 Alpha virt. eigenvalues --   -0.00029   0.02208   0.02208   0.03130   0.03225
 Alpha virt. eigenvalues --    0.04725   0.04729   0.05106   0.05165   0.06181

 Mulliken charges:
               1
     1  Mg   0.838748
     2  C   -0.002979
     3  C   -0.094120
     4  C   -0.045876
     5  C   -0.063977
     6  N   -0.256771
     7  C   -0.052458
     8  C   -0.014023
     9  C   -0.086994
    10  C    0.046315
    11  C    0.104812
    12  C    0.053476
    13  C   -0.071810
    14  H    0.036130
    15  N   -0.433138
    16  C    0.168430
    17  C   -0.177165
    18  C   -0.004003
    19  C    0.148710
    20  C    0.110184
    21  C    0.012282
    22  O   -0.249621
    23  C    0.062472
    24  N   -0.341169
    25  C    0.041254
    26  C   -0.028165
    27  C   -0.024011
    28  C    0.074890
    29  C    0.076173
    30  C    0.035130
    31  C   -0.004507
    32  N   -0.310474
    33  C    0.080416
    34  C   -0.169710
    35  C    0.008363
    36  C    0.082999
    37  C    0.127309
    38  C    0.046120
    39  O   -0.188425
    40  C   -0.005318
    41  C    0.212859
    42  O   -0.257091
    43  O   -0.304795
    44  C    0.157683
    45  H   -0.017614
    46  H   -0.016838
    47  H   -0.041483
    48  H    0.000938
    49  H   -0.004041
    50  H    0.025476
    51  H    0.016448
    52  H    0.016649
    53  H    0.011200
    54  H    0.044131
    55  H    0.017871
    56  H    0.017939
    57  H    0.005866
    58  H    0.026816
    59  H    0.039542
    60  H    0.037339
    61  H    0.035649
    62  H    0.031500
    63  H    0.016557
    64  H    0.009463
    65  H    0.023210
    66  H    0.012540
    67  H    0.004753
    68  H    0.006369
    69  H    0.004738
    70  H    0.008779
    71  H    0.018156
    72  H    0.028981
    73  H    0.047586
    74  H    0.009118
    75  H    0.046009
    76  H    0.035148
    77  H    0.042955
    78  H    0.046392
    79  H    0.053701
    80  Mg   0.837835
    81  C   -0.016858
    82  C   -0.087793
    83  C   -0.045508
    84  C   -0.064853
    85  N   -0.254566
    86  C   -0.049833
    87  C   -0.015108
    88  C   -0.090498
    89  C    0.045756
    90  C    0.114376
    91  C    0.062541
    92  C   -0.077906
    93  H    0.034902
    94  N   -0.423484
    95  C    0.162917
    96  C   -0.174638
    97  C   -0.007803
    98  C    0.152108
    99  C    0.099373
   100  C    0.015575
   101  O   -0.253172
   102  C    0.061194
   103  N   -0.350070
   104  C    0.037545
   105  C   -0.019835
   106  C   -0.034843
   107  C    0.088935
   108  C    0.073633
   109  C    0.034740
   110  C   -0.007687
   111  N   -0.324109
   112  C    0.078436
   113  C   -0.163104
   114  C    0.002236
   115  C    0.096231
   116  C    0.131489
   117  C    0.042413
   118  O   -0.187827
   119  C    0.000919
   120  C    0.211248
   121  O   -0.251011
   122  O   -0.305630
   123  C    0.152025
   124  H   -0.019673
   125  H   -0.015557
   126  H   -0.040406
   127  H   -0.000634
   128  H   -0.004341
   129  H    0.022485
   130  H    0.014440
   131  H    0.016267
   132  H    0.013910
   133  H    0.037680
   134  H    0.020795
   135  H    0.019583
   136  H    0.008751
   137  H    0.026133
   138  H    0.039782
   139  H    0.038241
   140  H    0.036395
   141  H    0.033892
   142  H    0.014395
   143  H    0.012484
   144  H    0.025157
   145  H    0.011646
   146  H    0.005744
   147  H    0.006291
   148  H    0.003679
   149  H    0.010929
   150  H    0.017941
   151  H    0.030084
   152  H    0.046019
   153  H    0.008540
   154  H    0.047010
   155  H    0.035055
   156  H    0.043929
   157  H    0.049483
   158  H    0.053580
 Sum of Mulliken charges =  -0.00000

 Dipole moment (field-independent basis, Debye):
    X=             -3.2554    Y=             -2.4677    Z=             -8.0313  Tot=              9.0105
 Quadrupole moment (field-independent basis, Debye-Ang):
   XX=           -489.6409   YY=           -555.9831   ZZ=           -445.6985
   XY=              3.2011   XZ=            -20.9130   YZ=            -40.1520

 Normal termination of Gaussian 16 at Sun Sep 12 14:25:59 2021.
