 Gaussian 16, Revision A.03,
 Gaussian 16:  ES64L-G16RevA.03 25-Dec-2016

 -----------------------------------
 #p cam-b3lyp/Def2SVP td=(nstates=5)
 -----------------------------------

 --------------------------------
 TDDFT excited states in gaussian
 --------------------------------
 Symbolic Z-matrix:
 Charge =  0 Multiplicity = 1

                         Standard orientation:
 ---------------------------------------------------------------------
 Center     Atomic      Atomic             Coordinates (Angstroms)
 Number     Number       Type             X           Y           Z
 ---------------------------------------------------------------------
      1         12           0        4.009118   -1.469526    0.561321
      2          6           0        4.970277    1.706498   -0.780788
      3          6           0        4.759177   -0.224792    3.648571
      4          6           0        3.602653   -4.393630    1.719347
      5          6           0        4.424491   -2.782386   -2.640167
      6          7           0        4.759307    0.505827    1.221507
      7          6           0        5.030534    1.656541    0.613672
      8          6           0        5.311842    2.826640    1.603171
      9          6           0        5.770324    1.978028    2.872678
     10          6           0        5.024585    0.687087    2.584115
     11          6           0        7.266896    1.684855    2.901391
     12          6           0        4.027241    3.667753    1.909861
     13          6           0        4.275727    5.011591    2.601025
     14          1           0        3.425349    6.142128    2.260303
     15          7           0        3.689492   -2.081505    2.412313
     16          6           0        4.047702   -1.440138    3.550566
     17          6           0        3.588711   -2.298510    4.663763
     18          6           0        3.104150   -3.580175    4.080130
     19          6           0        3.475121   -3.411132    2.698398
     20          6           0        3.591719   -1.860084    6.096077
     21          6           0        2.425401   -4.773085    4.675443
     22          8           0        2.299863   -5.873436    4.036662
     23          6           0        1.983976   -4.646724    6.076235
     24          7           0        4.222749   -3.370340   -0.274683
     25          6           0        3.927270   -4.470000    0.427047
     26          6           0        3.882868   -5.683822   -0.453068
     27          6           0        3.971662   -5.145286   -1.953683
     28          6           0        4.143401   -3.635873   -1.652940
     29          6           0        4.988346   -6.722251   -0.217281
     30          6           0        2.845549   -5.580421   -2.924738
     31          6           0        1.535109   -4.952988   -2.505009
     32          7           0        4.418835   -0.675071   -1.416561
     33          6           0        4.572382   -1.405918   -2.603557
     34          6           0        4.945493   -0.444662   -3.657523
     35          6           0        4.999618    0.784181   -3.002650
     36          6           0        4.706218    0.598156   -1.621490
     37          6           0        5.241301   -0.765934   -5.011671
     38          6           0        5.261182    2.207414   -3.143535
     39          8           0        5.467000    2.961164   -4.095897
     40          6           0        5.372091    2.843009   -1.687669
     41          6           0        4.528569    4.088589   -1.670057
     42          8           0        3.286659    4.021686   -1.772773
     43          8           0        5.285407    5.132823   -1.299502
     44          6           0        4.502251    6.395529   -1.233212
     45          1           0        5.182891   -0.023128    4.634340
     46          1           0        3.361639   -5.404636    2.054334
     47          1           0        4.487760   -3.106414   -3.680578
     48          1           0        6.112930    3.499116    1.295833
     49          1           0        5.418443    2.418566    3.805324
     50          1           0        7.751944    1.997601    1.976816
     51          1           0        7.349613    0.605260    3.028378
     52          1           0        7.731327    2.126749    3.783326
     53          1           0        3.445365    3.166212    2.683126
     54          1           0        3.447279    3.831607    1.000948
     55          1           0        5.327167    5.296270    2.552650
     56          1           0        4.076727    4.889961    3.665828
     57          1           0        4.156753   -0.938733    6.231704
     58          1           0        4.152523   -2.607673    6.656717
     59          1           0        2.583374   -1.776366    6.501743
     60          1           0        2.845662   -4.426028    6.706584
     61          1           0        1.440880   -5.563198    6.304207
     62          1           0        1.315412   -3.789408    6.159790
     63          1           0        2.947702   -6.226993   -0.323239
     64          1           0        4.888530   -5.465081   -2.449424
     65          1           0        4.611005   -7.718893    0.012988
     66          1           0        5.632148   -6.353788    0.580869
     67          1           0        5.698427   -6.828087   -1.037037
     68          1           0        2.710046   -6.660822   -2.888427
     69          1           0        3.040946   -5.305329   -3.961269
     70          1           0        1.174313   -5.634560   -1.735516
     71          1           0        0.844324   -4.914983   -3.347970
     72          1           0        1.691355   -3.982544   -2.033509
     73          1           0        4.739881   -0.013466   -5.620225
     74          1           0        4.901287   -1.770150   -5.263749
     75          1           0        6.327943   -0.682045   -5.006369
     76          1           0        6.426513    3.060249   -1.519969
     77          1           0        5.002276    7.117623   -1.878805
     78          1           0        4.404397    6.644352   -0.176370
     79          1           0        3.508933    6.370833   -1.682710
     80         12           0       -4.777646    0.169601   -0.514975
     81          6           0       -2.088470    2.541768   -0.372705
     82          6           0       -6.288916    1.959270    1.964498
     83          6           0       -6.940093   -2.142356   -0.300362
     84          6           0       -2.583153   -2.012727   -2.117258
     85          7           0       -4.168633    1.996464    0.573125
     86          6           0       -3.154891    2.845679    0.498956
     87          6           0       -3.329278    4.131432    1.351026
     88          6           0       -4.366060    3.561506    2.436909
     89          6           0       -5.011932    2.457468    1.602266
     90          6           0       -3.689012    2.919403    3.636350
     91          6           0       -3.951276    5.313913    0.528301
     92          6           0       -3.864423    6.683712    1.204958
     93          1           0       -3.655374    7.861669    0.367579
     94          7           0       -6.592107    0.178841    0.288898
     95          6           0       -7.043213    0.987950    1.270285
     96          6           0       -8.435300    0.582053    1.518292
     97          6           0       -8.716921   -0.640885    0.718401
     98          6           0       -7.392049   -0.933948    0.209570
     99          6           0       -9.374136    1.377902    2.377736
    100          6           0       -9.968733   -1.425101    0.465069
    101          8           0       -9.937117   -2.589994   -0.068637
    102          6           0      -11.224089   -0.829217    0.945156
    103          7           0       -4.710069   -1.866933   -0.927648
    104          6           0       -5.806011   -2.635174   -0.798669
    105          6           0       -5.591476   -3.998745   -1.411065
    106          6           0       -4.201125   -3.903456   -2.195562
    107          6           0       -3.791011   -2.465236   -1.809908
    108          6           0       -5.542134   -5.168849   -0.428812
    109          6           0       -4.213900   -4.290186   -3.699880
    110          6           0       -5.017334   -3.279191   -4.485867
    111          7           0       -2.771378    0.285715   -1.308376
    112          6           0       -2.032766   -0.753451   -1.915537
    113          6           0       -0.680060   -0.225165   -2.186705
    114          6           0       -0.718784    1.087808   -1.693670
    115          6           0       -1.998506    1.352076   -1.135138
    116          6           0        0.396159   -0.953057   -2.768122
    117          6           0        0.035287    2.306827   -1.509141
    118          8           0        1.146073    2.702721   -1.860084
    119          6           0       -0.777675    3.260885   -0.531761
    120          6           0       -0.802463    4.636466   -1.139772
    121          8           0       -1.402374    4.844110   -2.209170
    122          8           0       -0.303100    5.518443   -0.254823
    123          6           0       -0.317000    6.898907   -0.807940
    124          1           0       -6.740385    2.313963    2.891452
    125          1           0       -7.683983   -2.940874   -0.350140
    126          1           0       -1.871733   -2.598909   -2.702883
    127          1           0       -2.427633    4.476143    1.842940
    128          1           0       -5.102582    4.312078    2.711765
    129          1           0       -2.619709    2.846646    3.504250
    130          1           0       -4.126744    1.934042    3.728638
    131          1           0       -3.956587    3.454986    4.551709
    132          1           0       -5.041368    5.190786    0.492582
    133          1           0       -3.516969    5.366490   -0.451103
    134          1           0       -3.163902    6.682895    2.048884
    135          1           0       -4.832174    6.907880    1.660166
    136          1           0       -8.838762    2.134514    2.964527
    137          1           0       -9.781484    0.690920    3.127401
    138          1           0      -10.200077    1.811391    1.809787
    139          1           0      -11.159865   -0.667753    2.018592
    140          1           0      -12.016104   -1.492918    0.592880
    141          1           0      -11.341168    0.158208    0.484832
    142          1           0       -6.378194   -4.233539   -2.117495
    143          1           0       -3.442837   -4.572974   -1.763614
    144          1           0       -6.290755   -5.953734   -0.646986
    145          1           0       -5.678822   -4.780575    0.571738
    146          1           0       -4.577575   -5.667953   -0.353179
    147          1           0       -4.708058   -5.254911   -3.838703
    148          1           0       -3.222740   -4.370676   -4.133595
    149          1           0       -6.047040   -3.623510   -4.350833
    150          1           0       -4.730502   -3.294385   -5.535411
    151          1           0       -4.941748   -2.281851   -4.037251
    152          1           0        0.863208   -0.295415   -3.489141
    153          1           0        0.048276   -1.872485   -3.234376
    154          1           0        1.002710   -1.147426   -1.879532
    155          1           0       -0.270869    3.249204    0.433945
    156          1           0        0.707684    7.278218   -0.746050
    157          1           0       -1.090950    7.442768   -0.234380
    158          1           0       -0.521125    7.012809   -1.866150
 ---------------------------------------------------------------------

 SCF Done:  E(RCAM-B3LYP) =  -4069.80276012     A.U. after   19 cycles

 Excitation energies and oscillator strengths:

 Excited State   1:      Singlet-A      1.6437 eV  754.32 nm  f=0.2256  <S**2>=0.000
     309 -> 315       -0.11138
     310 -> 316        0.11926
     311 -> 313       -0.43670
     311 -> 314       -0.17752
     312 -> 313       -0.18781
     312 -> 314        0.46423
 This state for optimization and/or second-order correction.
 Total Energy, E(TD-HF/TD-DFT) =  -4069.74235674
 Copying the excited state density for this state as the 1-particle RhoCI density.

 Excited State   2:      Singlet-A      1.7052 eV  727.10 nm  f=0.5376  <S**2>=0.000
     309 -> 315        0.13031
     310 -> 316        0.12172
     311 -> 313        0.48228
     311 -> 314        0.12373
     312 -> 313       -0.11370
     312 -> 314        0.45525

 Excited State   3:      Singlet-A      2.1778 eV  569.32 nm  f=0.0015  <S**2>=0.000
     309 -> 313        0.46855
     309 -> 314        0.14800
     310 -> 313        0.12587
     310 -> 314       -0.39877
     311 -> 315       -0.20274
     312 -> 316        0.17339

 Excited State   4:      Singlet-A      2.1978 eV  564.14 nm  f=0.1640  <S**2>=0.000
     309 -> 313        0.39030
     309 -> 314        0.12979
     310 -> 313       -0.15592
     310 -> 314        0.46027
     311 -> 315       -0.18038
     312 -> 316       -0.20954

 Excited State   5:      Singlet-A      2.3698 eV  523.19 nm  f=0.0002  <S**2>=0.000
     311 -> 313       -0.21815
     311 -> 314        0.66835

 The electronic state is 1-A.
 Alpha  occ. eigenvalues --  -46.87502 -46.87335 -19.25942 -19.25367 -19.18651
 Alpha  occ. eigenvalues --  -19.18574 -19.18415 -19.17633 -19.17552 -19.16967
 Alpha  occ. eigenvalues --  -14.42207 -14.42150 -14.41180 -14.41028 -14.39109
 Alpha  occ. eigenvalues --  -14.39018 -14.38268 -14.38238 -10.38612 -10.37772
 Alpha  occ. eigenvalues --  -10.35215 -10.35099 -10.33835 -10.33209 -10.31564
 Alpha  occ. eigenvalues --  -10.31178 -10.31048 -10.30964 -10.30733 -10.30556
 Alpha  occ. eigenvalues --  -10.30215 -10.30190 -10.30030 -10.30013 -10.29974
 Alpha  occ. eigenvalues --  -10.29876 -10.29638 -10.29540 -10.29302 -10.29149
 Alpha  occ. eigenvalues --  -10.29027 -10.29007 -10.28517 -10.28498 -10.28397
 Alpha  occ. eigenvalues --  -10.28273 -10.28034 -10.27986 -10.27924 -10.27803
 Alpha  occ. eigenvalues --  -10.27580 -10.27456 -10.27438 -10.27414 -10.27370
 Alpha  occ. eigenvalues --  -10.27318 -10.27270 -10.27263 -10.27262 -10.27200
 Alpha  occ. eigenvalues --  -10.27147 -10.27106 -10.27098 -10.27016 -10.26503
 Alpha  occ. eigenvalues --  -10.26499 -10.26486 -10.26313 -10.26248 -10.26235
 Alpha  occ. eigenvalues --  -10.26178 -10.25958 -10.25943 -10.25890 -10.25781
 Alpha  occ. eigenvalues --  -10.25622 -10.25556 -10.25483 -10.25305 -10.25125
 Alpha  occ. eigenvalues --  -10.24919 -10.24534 -10.24491 -10.24457 -10.24453
 Alpha  occ. eigenvalues --  -10.24344  -3.16249  -3.16086  -1.91132  -1.90969
 Alpha  occ. eigenvalues --   -1.90716  -1.90558  -1.90557  -1.90393  -1.16199
 Alpha  occ. eigenvalues --   -1.15667  -1.08043  -1.07690  -1.06983  -1.06674
 Alpha  occ. eigenvalues --   -1.06414  -1.05360  -1.04252  -1.04181  -1.03479
 Alpha  occ. eigenvalues --   -1.03334  -1.02923  -1.02699  -1.02100  -1.01764
 Alpha  occ. eigenvalues --   -0.91572  -0.91527  -0.89343  -0.89183  -0.88920
 Alpha  occ. eigenvalues --   -0.88857  -0.88097  -0.87928  -0.87548  -0.87423
 Alpha  occ. eigenvalues --   -0.87380  -0.87371  -0.87005  -0.86806  -0.84738
 Alpha  occ. eigenvalues --   -0.84667  -0.83795  -0.83592  -0.82756  -0.82651
 Alpha  occ. eigenvalues --   -0.82378  -0.82321  -0.81252  -0.81126  -0.80218
 Alpha  occ. eigenvalues --   -0.80117  -0.78506  -0.78298  -0.76992  -0.76876
 Alpha  occ. eigenvalues --   -0.76626  -0.76616  -0.75549  -0.75539  -0.74666
 Alpha  occ. eigenvalues --   -0.74503  -0.72483  -0.72361  -0.71362  -0.71270
 Alpha  occ. eigenvalues --   -0.69846  -0.69506  -0.68566  -0.68546  -0.67313
 Alpha  occ. eigenvalues --   -0.67234  -0.66936  -0.66905  -0.64985  -0.64948
 Alpha  occ. eigenvalues --   -0.64542  -0.64452  -0.64345  -0.64268  -0.64039
 Alpha  occ. eigenvalues --   -0.63894  -0.61918  -0.61751  -0.60189  -0.60018
 Alpha  occ. eigenvalues --   -0.59522  -0.59476  -0.58665  -0.58646  -0.58144
 Alpha  occ. eigenvalues --   -0.58053  -0.57156  -0.57088  -0.56890  -0.56760
 Alpha  occ. eigenvalues --   -0.55996  -0.55872  -0.55552  -0.55434  -0.55241
 Alpha  occ. eigenvalues --   -0.55144  -0.55051  -0.54938  -0.54192  -0.54051
 Alpha  occ. eigenvalues --   -0.53661  -0.53552  -0.53034  -0.52934  -0.52910
 Alpha  occ. eigenvalues --   -0.52854  -0.52640  -0.52534  -0.52516  -0.52411
 Alpha  occ. eigenvalues --   -0.52303  -0.52004  -0.51590  -0.51513  -0.51377
 Alpha  occ. eigenvalues --   -0.51282  -0.50856  -0.50741  -0.50371  -0.50209
 Alpha  occ. eigenvalues --   -0.49913  -0.49723  -0.49653  -0.49585  -0.49249
 Alpha  occ. eigenvalues --   -0.49202  -0.49010  -0.48886  -0.48780  -0.48624
 Alpha  occ. eigenvalues --   -0.48378  -0.48265  -0.48195  -0.48085  -0.48060
 Alpha  occ. eigenvalues --   -0.47493  -0.47391  -0.47083  -0.46954  -0.46814
 Alpha  occ. eigenvalues --   -0.46528  -0.46409  -0.46297  -0.46212  -0.46094
 Alpha  occ. eigenvalues --   -0.45941  -0.45809  -0.45607  -0.45462  -0.45276
 Alpha  occ. eigenvalues --   -0.44978  -0.44885  -0.44310  -0.44244  -0.44162
 Alpha  occ. eigenvalues --   -0.44052  -0.43924  -0.43807  -0.43788  -0.43762
 Alpha  occ. eigenvalues --   -0.43624  -0.43447  -0.43224  -0.43136  -0.43080
 Alpha  occ. eigenvalues --   -0.42996  -0.42711  -0.42595  -0.42569  -0.42456
 Alpha  occ. eigenvalues --   -0.42272  -0.41799  -0.41711  -0.41565  -0.41296
 Alpha  occ. eigenvalues --   -0.41235  -0.41158  -0.41086  -0.40827  -0.40664
 Alpha  occ. eigenvalues --   -0.40596  -0.40555  -0.40452  -0.40444  -0.40309
 Alpha  occ. eigenvalues --   -0.40184  -0.40010  -0.39922  -0.39421  -0.39178
 Alpha  occ. eigenvalues --   -0.38296  -0.38084  -0.37437  -0.37421  -0.37094
 Alpha  occ. eigenvalues --   -0.36976  -0.36924  -0.36894  -0.36368  -0.36218
 Alpha  occ. eigenvalues --   -0.35874  -0.35333  -0.33968  -0.33908  -0.33388
 Alpha  occ. eigenvalues --   -0.32982  -0.32835  -0.32253  -0.31101  -0.30978
 Alpha  occ. eigenvalues --   -0.30664  -0.30628  -0.29484  -0.29147  -0.29022
 Alpha  occ. eigenvalues --   -0.28966  -0.28841  -0.28717  -0.23736  -0.23704
 Alpha  occ. eigenvalues --   -0.20823  -0.20782
 Alpha virt. eigenvalues --   -0.08449  -0.08420  -0.01472  -0.01380   0.00252
 Alpha virt. eigenvalues --    0.00323   0.02500   0.02612   0.03282   0.03607
 Alpha virt. eigenvalues --    0.04933   0.05016   0.05646   0.06054   0.06301

 Mulliken charges:
               1
     1  Mg   0.830103
     2  C    0.009095
     3  C   -0.094181
     4  C   -0.046900
     5  C   -0.066361
     6  N   -0.255213
     7  C   -0.054316
     8  C   -0.013832
     9  C   -0.086679
    10  C    0.045688
    11  C    0.105091
    12  C    0.050920
    13  C   -0.069860
    14  H    0.033700
    15  N   -0.432963
    16  C    0.167073
    17  C   -0.178073
    18  C   -0.004926
    19  C    0.148843
    20  C    0.110470
    21  C    0.011614
    22  O   -0.251032
    23  C    0.062834
    24  N   -0.339489
    25  C    0.039912
    26  C   -0.027837
    27  C   -0.023811
    28  C    0.073561
    29  C    0.076532
    30  C    0.036356
    31  C   -0.007553
    32  N   -0.315132
    33  C    0.082158
    34  C   -0.172501
    35  C    0.009201
    36  C    0.091964
    37  C    0.126735
    38  C    0.057128
    39  O   -0.187385
    40  C   -0.008708
    41  C    0.199722
    42  O   -0.218751
    43  O   -0.309000
    44  C    0.159297
    45  H   -0.018720
    46  H   -0.018222
    47  H   -0.043787
    48  H    0.000918
    49  H   -0.005469
    50  H    0.025468
    51  H    0.015943
    52  H    0.015458
    53  H    0.007917
    54  H    0.053139
    55  H    0.017314
    56  H    0.015592
    57  H    0.005064
    58  H    0.025941
    59  H    0.037871
    60  H    0.037000
    61  H    0.034680
    62  H    0.030772
    63  H    0.014988
    64  H    0.009512
    65  H    0.022399
    66  H    0.013010
    67  H    0.004251
    68  H    0.006095
    69  H    0.004602
    70  H    0.008797
    71  H    0.015245
    72  H    0.027444
    73  H    0.049010
    74  H    0.007215
    75  H    0.045576
    76  H    0.032020
    77  H    0.039559
    78  H    0.042527
    79  H    0.051183
    80  Mg   0.836241
    81  C   -0.017497
    82  C   -0.088026
    83  C   -0.046012
    84  C   -0.066704
    85  N   -0.253787
    86  C   -0.050722
    87  C   -0.014221
    88  C   -0.090282
    89  C    0.044638
    90  C    0.114822
    91  C    0.062801
    92  C   -0.077044
    93  H    0.034111
    94  N   -0.423213
    95  C    0.161827
    96  C   -0.175577
    97  C   -0.008633
    98  C    0.151507
    99  C    0.099768
   100  C    0.014930
   101  O   -0.254178
   102  C    0.061463
   103  N   -0.350253
   104  C    0.037163
   105  C   -0.019645
   106  C   -0.034661
   107  C    0.089604
   108  C    0.073688
   109  C    0.034809
   110  C   -0.007483
   111  N   -0.324421
   112  C    0.079609
   113  C   -0.174260
   114  C    0.005822
   115  C    0.096709
   116  C    0.133112
   117  C    0.030020
   118  O   -0.144669
   119  C   -0.000779
   120  C    0.220922
   121  O   -0.252125
   122  O   -0.306818
   123  C    0.155461
   124  H   -0.021134
   125  H   -0.016445
   126  H   -0.040888
   127  H   -0.002107
   128  H   -0.005183
   129  H    0.020764
   130  H    0.014246
   131  H    0.014590
   132  H    0.013870
   133  H    0.038426
   134  H    0.019298
   135  H    0.019070
   136  H    0.007707
   137  H    0.024949
   138  H    0.038785
   139  H    0.037711
   140  H    0.035500
   141  H    0.033502
   142  H    0.013663
   143  H    0.013039
   144  H    0.024259
   145  H    0.011669
   146  H    0.006040
   147  H    0.005577
   148  H    0.002313
   149  H    0.010824
   150  H    0.017086
   151  H    0.030784
   152  H    0.048902
   153  H    0.005908
   154  H    0.055632
   155  H    0.032296
   156  H    0.035625
   157  H    0.047304
   158  H    0.054593
 Sum of Mulliken charges =  -0.00000

 Dipole moment (field-independent basis, Debye):
    X=             -0.0819    Y=              1.4321    Z=              6.9767  Tot=              7.1227
 Quadrupole moment (field-independent basis, Debye-Ang):
   XX=           -504.9238   YY=           -494.4285   ZZ=           -494.5092
   XY=            -27.9243   XZ=              4.8715   YZ=             53.7288

 Normal termination of Gaussian 16 at Fri Sep 10 01:21:05 2021.
