 Gaussian 16, Revision A.03,
 Gaussian 16:  ES64L-G16RevA.03 25-Dec-2016

 -----------------------------------
 #p cam-b3lyp/Def2SVP td=(nstates=5)
 -----------------------------------

 --------------------------------
 TDDFT excited states in gaussian
 --------------------------------
 Symbolic Z-matrix:
 Charge =  0 Multiplicity = 1

                         Standard orientation:
 ---------------------------------------------------------------------
 Center     Atomic      Atomic             Coordinates (Angstroms)
 Number     Number       Type             X           Y           Z
 ---------------------------------------------------------------------
      1         12           0       15.777705    0.672707    0.424256
      2          6           0       16.131718   -2.562357   -1.066130
      3          6           0       16.605787    1.996902   -2.609529
      4          6           0       15.916060    3.514765    1.824322
      5          6           0       16.097355   -0.883936    3.525925
      6          7           0       16.281035   -0.266594   -1.516110
      7          6           0       16.322632   -1.515219   -1.970397
      8          6           0       16.513457   -1.604991   -3.514062
      9          6           0       17.204398   -0.190200   -3.764991
     10          6           0       16.636582    0.570994   -2.580047
     11          6           0       18.724491   -0.224508   -3.643990
     12          6           0       15.150354   -1.720027   -4.275933
     13          6           0       15.256419   -2.137806   -5.745479
     14          1           0       14.220210   -2.990863   -6.307539
     15          7           0       15.718856    2.488010   -0.352958
     16          6           0       16.077417    2.842641   -1.610319
     17          6           0       15.852344    4.301261   -1.702245
     18          6           0       15.514096    4.796283   -0.338927
     19          6           0       15.731262    3.608590    0.446950
     20          6           0       15.917497    5.064353   -2.989566
     21          6           0       15.076331    6.131088    0.175650
     22          8           0       15.059742    6.406733    1.423976
     23          6           0       14.747473    7.150099   -0.837520
     24          7           0       16.196820    1.273908    2.378875
     25          6           0       16.132092    2.561931    2.733544
     26          6           0       16.190829    2.721512    4.223854
     27          6           0       16.064477    1.250191    4.831312
     28          6           0       16.035543    0.449426    3.506092
     29          6           0       17.455206    3.394561    4.775547
     30          6           0       14.933827    1.010079    5.863007
     31          6           0       13.587169    1.122959    5.184134
     32          7           0       15.886804   -1.370814    1.147557
     33          6           0       16.041225   -1.787280    2.477739
     34          6           0       16.171668   -3.255841    2.458241
     35          6           0       16.100220   -3.592364    1.107874
     36          6           0       15.961926   -2.406787    0.330973
     37          6           0       16.390304   -4.088182    3.591308
     38          6           0       16.133272   -4.675713    0.138792
     39          8           0       16.138914   -5.905352    0.212620
     40          6           0       16.277417   -4.042959   -1.315398
     41          6           0       15.262720   -4.709646   -2.203783
     42          8           0       14.040474   -4.535021   -2.022159
     43          8           0       15.885514   -5.250126   -3.262344
     44          6           0       14.932050   -5.902343   -4.199186
     45          1           0       17.080781    2.517981   -3.443074
     46          1           0       15.859119    4.466038    2.357497
     47          1           0       16.115317   -1.445434    4.461793
     48          1           0       17.174863   -2.406130   -3.844427
     49          1           0       16.875254    0.263365   -4.699691
     50          1           0       19.073293   -1.189890   -3.277525
     51          1           0       18.978072    0.565402   -2.936719
     52          1           0       19.194559    0.055479   -4.587081
     53          1           0       14.720849   -0.725497   -4.396326
     54          1           0       14.473876   -2.399235   -3.755953
     55          1           0       16.245197   -2.535102   -5.976529
     56          1           0       15.173341   -1.242634   -6.361894
     57          1           0       16.348790    4.463991   -3.789626
     58          1           0       16.631059    5.875015   -2.843399
     59          1           0       14.948091    5.474538   -3.272994
     60          1           0       15.619323    7.324924   -1.468283
     61          1           0       14.369426    8.010685   -0.286773
     62          1           0       13.968785    6.758293   -1.492564
     63          1           0       15.362318    3.329431    4.585003
     64          1           0       16.970943    0.944357    5.354246
     65          1           0       17.252546    4.282083    5.375496
     66          1           0       18.105404    3.631562    3.933903
     67          1           0       18.097309    2.744257    5.369033
     68          1           0       14.964546    1.770122    6.642966
     69          1           0       14.993014    0.035296    6.347306
     70          1           0       13.401870    2.196496    5.187926
     71          1           0       12.826166    0.593387    5.758277
     72          1           0       13.638460    0.804824    4.142671
     73          1           0       15.730233   -4.947101    3.470754
     74          1           0       16.182596   -3.556165    4.519435
     75          1           0       17.448436   -4.319774    3.470573
     76          1           0       17.298410   -4.237664   -1.642178
     77          1           0       15.259458   -6.934636   -4.323320
     78          1           0       14.892692   -5.273553   -5.088838
     79          1           0       13.917468   -6.051454   -3.828069
     80         12           0      -15.948047   -0.749300    0.308040
     81          6           0      -15.872035    2.306272   -1.572588
     82          6           0      -15.163888    1.101890    3.063537
     83          6           0      -15.564463   -3.466076    1.901589
     84          6           0      -15.592258   -2.453724   -2.710921
     85          7           0      -15.590271    1.416010    0.583130
     86          6           0      -15.649476    2.488575   -0.191762
     87          6           0      -15.539379    3.837764    0.567918
     88          6           0      -14.760383    3.316625    1.871931
     89          6           0      -15.223032    1.861072    1.867600
     90          6           0      -13.248654    3.337755    1.718439
     91          6           0      -16.943789    4.432202    0.937077
     92          6           0      -16.922934    5.889726    1.402848
     93          1           0      -18.043080    6.752922    1.038636
     94          7           0      -15.923569   -1.100064    2.261221
     95          6           0      -15.603372   -0.228467    3.240538
     96          6           0      -15.719220   -0.978770    4.500612
     97          6           0      -15.973758   -2.408135    4.173737
     98          6           0      -15.806111   -2.383313    2.734516
     99          6           0      -15.668226   -0.319108    5.848079
    100          6           0      -16.299863   -3.602565    5.018248
    101          8           0      -16.245343   -4.794078    4.549053
    102          6           0      -16.594029   -3.343045    6.435152
    103          7           0      -15.413625   -2.668758   -0.285616
    104          6           0      -15.371774   -3.679762    0.599848
    105          6           0      -15.234727   -5.011471   -0.098824
    106          6           0      -15.437269   -4.703090   -1.654926
    107          6           0      -15.573644   -3.165921   -1.592618
    108          6           0      -13.905236   -5.737040    0.107109
    109          6           0      -16.536172   -5.513216   -2.395727
    110          6           0      -17.902197   -5.120937   -1.880505
    111          7           0      -15.948421   -0.219585   -1.786583
    112          6           0      -15.757440   -1.085646   -2.885469
    113          6           0      -15.726290   -0.246471   -4.100896
    114          6           0      -15.879497    1.062209   -3.618855
    115          6           0      -15.977507    1.042012   -2.201295
    116          6           0      -15.524841   -0.714498   -5.429990
    117          6           0      -15.969916    2.457096   -3.986024
    118          8           0      -16.035579    3.073064   -5.049039
    119          6           0      -15.842214    3.335952   -2.667802
    120          6           0      -16.936627    4.367598   -2.689525
    121          8           0      -18.129925    4.024751   -2.617978
    122          8           0      -16.390654    5.591724   -2.572029
    123          6           0      -17.437396    6.648183   -2.577397
    124          1           0      -14.698450    1.551589    3.941043
    125          1           0      -15.534428   -4.441382    2.392862
    126          1           0      -15.583159   -2.918417   -3.699171
    127          1           0      -14.953526    4.596691    0.063354
    128          1           0      -15.107058    3.824232    2.768316
    129          1           0      -12.949383    3.589178    0.711773
    130          1           0      -12.912937    2.341584    1.975293
    131          1           0      -12.803692    4.006508    2.460798
    132          1           0      -17.308380    3.947767    1.852036
    133          1           0      -17.630155    4.323772    0.119907
    134          1           0      -15.969192    6.381418    1.175763
    135          1           0      -16.979842    5.906201    2.493957
    136          1           0      -15.305934    0.713887    5.776782
    137          1           0      -14.897843   -0.837651    6.429007
    138          1           0      -16.617564   -0.382336    6.384205
    139          1           0      -15.742265   -2.848649    6.896153
    140          1           0      -16.890393   -4.306960    6.853381
    141          1           0      -17.434779   -2.642955    6.495385
    142          1           0      -16.005213   -5.699814    0.226206
    143          1           0      -14.526421   -4.914545   -2.234134
    144          1           0      -14.023296   -6.753392    0.528010
    145          1           0      -13.280838   -5.129825    0.748950
    146          1           0      -13.290504   -5.836956   -0.785822
    147          1           0      -16.422206   -6.580676   -2.191505
    148          1           0      -16.513341   -5.387212   -3.473037
    149          1           0      -18.009831   -5.730064   -0.978020
    150          1           0      -18.670971   -5.360477   -2.612378
    151          1           0      -17.919427   -4.069107   -1.572251
    152          1           0      -16.237815   -0.193402   -6.054993
    153          1           0      -15.651587   -1.793129   -5.495176
    154          1           0      -14.485818   -0.413024   -5.587538
    155          1           0      -14.850849    3.790650   -2.671977
    156          1           0      -17.181722    7.347190   -3.379700
    157          1           0      -17.460973    7.050599   -1.547218
    158          1           0      -18.441673    6.357250   -2.862419
 ---------------------------------------------------------------------

 SCF Done:  E(RCAM-B3LYP) =  -4069.81178005     A.U. after   19 cycles

 Excitation energies and oscillator strengths:

 Excited State   1:      Singlet-A      1.6755 eV  739.99 nm  f=0.3281  <S**2>=0.000
     310 -> 316        0.17187
     312 -> 313        0.67917
     310 <- 316        0.10360
 This state for optimization and/or second-order correction.
 Total Energy, E(TD-HF/TD-DFT) =  -4069.75020716
 Copying the excited state density for this state as the 1-particle RhoCI density.

 Excited State   2:      Singlet-A      1.6800 eV  738.02 nm  f=0.4485  <S**2>=0.000
     309 -> 315        0.17380
     311 -> 314        0.67882
     309 <- 315        0.10407

 Excited State   3:      Singlet-A      2.1861 eV  567.14 nm  f=0.0997  <S**2>=0.000
     310 -> 313        0.64232
     312 -> 316       -0.27308

 Excited State   4:      Singlet-A      2.1925 eV  565.48 nm  f=0.1009  <S**2>=0.000
     309 -> 314        0.64055
     311 -> 315       -0.27822

 Excited State   5:      Singlet-A      3.0657 eV  404.42 nm  f=0.0000  <S**2>=0.000
     311 -> 313        0.70711

 The electronic state is 1-A.
 Alpha  occ. eigenvalues --  -46.87796 -46.87661 -19.26354 -19.26280 -19.19165
 Alpha  occ. eigenvalues --  -19.19016 -19.18815 -19.18712 -19.18168 -19.18054
 Alpha  occ. eigenvalues --  -14.42498 -14.42449 -14.41449 -14.41359 -14.39402
 Alpha  occ. eigenvalues --  -14.39352 -14.38601 -14.38586 -10.39095 -10.39076
 Alpha  occ. eigenvalues --  -10.35448 -10.35389 -10.34388 -10.34232 -10.31762
 Alpha  occ. eigenvalues --  -10.31674 -10.31404 -10.31310 -10.31023 -10.30907
 Alpha  occ. eigenvalues --  -10.30569 -10.30507 -10.30398 -10.30362 -10.30207
 Alpha  occ. eigenvalues --  -10.30140 -10.29921 -10.29895 -10.29630 -10.29436
 Alpha  occ. eigenvalues --  -10.29401 -10.29254 -10.28745 -10.28720 -10.28657
 Alpha  occ. eigenvalues --  -10.28531 -10.28405 -10.28364 -10.28141 -10.28113
 Alpha  occ. eigenvalues --  -10.28002 -10.27792 -10.27726 -10.27669 -10.27584
 Alpha  occ. eigenvalues --  -10.27516 -10.27504 -10.27484 -10.27479 -10.27467
 Alpha  occ. eigenvalues --  -10.27463 -10.27452 -10.27402 -10.27374 -10.27156
 Alpha  occ. eigenvalues --  -10.27053 -10.26699 -10.26695 -10.26411 -10.26409
 Alpha  occ. eigenvalues --  -10.26230 -10.26189 -10.26137 -10.26025 -10.26019
 Alpha  occ. eigenvalues --  -10.25935 -10.25854 -10.25844 -10.25439 -10.25393
 Alpha  occ. eigenvalues --  -10.24874 -10.24832 -10.24788 -10.24731 -10.24693
 Alpha  occ. eigenvalues --  -10.24690  -3.16539  -3.16411  -1.91420  -1.91293
 Alpha  occ. eigenvalues --   -1.91007  -1.90881  -1.90849  -1.90718  -1.16648
 Alpha  occ. eigenvalues --   -1.16629  -1.08662  -1.08626  -1.07216  -1.06964
 Alpha  occ. eigenvalues --   -1.06950  -1.06639  -1.04580  -1.04496  -1.03760
 Alpha  occ. eigenvalues --   -1.03663  -1.03233  -1.03039  -1.02411  -1.02112
 Alpha  occ. eigenvalues --   -0.91988  -0.91971  -0.89521  -0.89494  -0.89184
 Alpha  occ. eigenvalues --   -0.89152  -0.88288  -0.88219  -0.87870  -0.87795
 Alpha  occ. eigenvalues --   -0.87684  -0.87672  -0.87273  -0.87119  -0.85000
 Alpha  occ. eigenvalues --   -0.84979  -0.83939  -0.83876  -0.82967  -0.82930
 Alpha  occ. eigenvalues --   -0.82653  -0.82646  -0.81599  -0.81583  -0.80595
 Alpha  occ. eigenvalues --   -0.80444  -0.78796  -0.78635  -0.77218  -0.77145
 Alpha  occ. eigenvalues --   -0.76932  -0.76900  -0.75921  -0.75840  -0.74899
 Alpha  occ. eigenvalues --   -0.74802  -0.72774  -0.72700  -0.71671  -0.71581
 Alpha  occ. eigenvalues --   -0.69910  -0.69757  -0.68871  -0.68828  -0.67640
 Alpha  occ. eigenvalues --   -0.67602  -0.67216  -0.67200  -0.65284  -0.65273
 Alpha  occ. eigenvalues --   -0.64853  -0.64771  -0.64655  -0.64619  -0.64270
 Alpha  occ. eigenvalues --   -0.64204  -0.62295  -0.62281  -0.60442  -0.60339
 Alpha  occ. eigenvalues --   -0.59802  -0.59797  -0.58993  -0.58987  -0.58503
 Alpha  occ. eigenvalues --   -0.58426  -0.57582  -0.57557  -0.57309  -0.57237
 Alpha  occ. eigenvalues --   -0.56309  -0.56205  -0.55975  -0.55889  -0.55519
 Alpha  occ. eigenvalues --   -0.55453  -0.55340  -0.55248  -0.54523  -0.54489
 Alpha  occ. eigenvalues --   -0.53913  -0.53891  -0.53298  -0.53228  -0.53220
 Alpha  occ. eigenvalues --   -0.53142  -0.52913  -0.52904  -0.52754  -0.52667
 Alpha  occ. eigenvalues --   -0.52441  -0.52401  -0.51915  -0.51888  -0.51659
 Alpha  occ. eigenvalues --   -0.51614  -0.51203  -0.51195  -0.50571  -0.50473
 Alpha  occ. eigenvalues --   -0.50033  -0.49979  -0.49917  -0.49866  -0.49512
 Alpha  occ. eigenvalues --   -0.49487  -0.49213  -0.49203  -0.49106  -0.49093
 Alpha  occ. eigenvalues --   -0.48591  -0.48560  -0.48462  -0.48444  -0.48376
 Alpha  occ. eigenvalues --   -0.48338  -0.47693  -0.47595  -0.47296  -0.47118
 Alpha  occ. eigenvalues --   -0.46797  -0.46710  -0.46555  -0.46552  -0.46359
 Alpha  occ. eigenvalues --   -0.46271  -0.46162  -0.46086  -0.45825  -0.45820
 Alpha  occ. eigenvalues --   -0.45208  -0.45203  -0.44576  -0.44516  -0.44506
 Alpha  occ. eigenvalues --   -0.44477  -0.44145  -0.44128  -0.44086  -0.44078
 Alpha  occ. eigenvalues --   -0.44018  -0.43939  -0.43556  -0.43493  -0.43387
 Alpha  occ. eigenvalues --   -0.43384  -0.43026  -0.42933  -0.42903  -0.42697
 Alpha  occ. eigenvalues --   -0.42655  -0.42553  -0.42010  -0.41965  -0.41703
 Alpha  occ. eigenvalues --   -0.41671  -0.41531  -0.41459  -0.41140  -0.40990
 Alpha  occ. eigenvalues --   -0.40868  -0.40822  -0.40722  -0.40698  -0.40572
 Alpha  occ. eigenvalues --   -0.40493  -0.40229  -0.40228  -0.39444  -0.39425
 Alpha  occ. eigenvalues --   -0.38470  -0.38350  -0.37744  -0.37655  -0.37321
 Alpha  occ. eigenvalues --   -0.37266  -0.37261  -0.37200  -0.36774  -0.36711
 Alpha  occ. eigenvalues --   -0.36218  -0.36191  -0.34285  -0.34254  -0.33866
 Alpha  occ. eigenvalues --   -0.33767  -0.33186  -0.33176  -0.31345  -0.31271
 Alpha  occ. eigenvalues --   -0.31035  -0.30973  -0.30027  -0.29959  -0.29448
 Alpha  occ. eigenvalues --   -0.29327  -0.29321  -0.29213  -0.24080  -0.24037
 Alpha  occ. eigenvalues --   -0.21127  -0.21117
 Alpha virt. eigenvalues --   -0.08792  -0.08773  -0.01749  -0.01684  -0.00057
 Alpha virt. eigenvalues --   -0.00028   0.02201   0.02205   0.03123   0.03225
 Alpha virt. eigenvalues --    0.04720   0.04729   0.05101   0.05161   0.06181

 Mulliken charges:
               1
     1  Mg   0.838757
     2  C   -0.002961
     3  C   -0.094080
     4  C   -0.045900
     5  C   -0.063999
     6  N   -0.256776
     7  C   -0.052465
     8  C   -0.014023
     9  C   -0.087004
    10  C    0.046319
    11  C    0.104811
    12  C    0.053461
    13  C   -0.071840
    14  H    0.036191
    15  N   -0.433151
    16  C    0.168410
    17  C   -0.177124
    18  C   -0.004009
    19  C    0.148725
    20  C    0.110170
    21  C    0.012276
    22  O   -0.249663
    23  C    0.062475
    24  N   -0.341153
    25  C    0.041250
    26  C   -0.028171
    27  C   -0.023988
    28  C    0.074865
    29  C    0.076183
    30  C    0.035159
    31  C   -0.004499
    32  N   -0.310456
    33  C    0.080407
    34  C   -0.169738
    35  C    0.008347
    36  C    0.082991
    37  C    0.127317
    38  C    0.046121
    39  O   -0.188439
    40  C   -0.005324
    41  C    0.212861
    42  O   -0.257096
    43  O   -0.304789
    44  C    0.157680
    45  H   -0.017569
    46  H   -0.016866
    47  H   -0.041526
    48  H    0.000950
    49  H   -0.003992
    50  H    0.025471
    51  H    0.016433
    52  H    0.016689
    53  H    0.011222
    54  H    0.044118
    55  H    0.017874
    56  H    0.017987
    57  H    0.005911
    58  H    0.026832
    59  H    0.039591
    60  H    0.037368
    61  H    0.035629
    62  H    0.031530
    63  H    0.016519
    64  H    0.009449
    65  H    0.023178
    66  H    0.012565
    67  H    0.004740
    68  H    0.006317
    69  H    0.004709
    70  H    0.008755
    71  H    0.018090
    72  H    0.029019
    73  H    0.047556
    74  H    0.009076
    75  H    0.046006
    76  H    0.035159
    77  H    0.042953
    78  H    0.046433
    79  H    0.053695
    80  Mg   0.837842
    81  C   -0.016836
    82  C   -0.087786
    83  C   -0.045490
    84  C   -0.064858
    85  N   -0.254565
    86  C   -0.049854
    87  C   -0.015093
    88  C   -0.090475
    89  C    0.045741
    90  C    0.114361
    91  C    0.062519
    92  C   -0.077906
    93  H    0.034878
    94  N   -0.423515
    95  C    0.162961
    96  C   -0.174591
    97  C   -0.007771
    98  C    0.152138
    99  C    0.099347
   100  C    0.015601
   101  O   -0.253128
   102  C    0.061188
   103  N   -0.350057
   104  C    0.037539
   105  C   -0.019851
   106  C   -0.034812
   107  C    0.088901
   108  C    0.073625
   109  C    0.034732
   110  C   -0.007684
   111  N   -0.324100
   112  C    0.078431
   113  C   -0.163166
   114  C    0.002232
   115  C    0.096211
   116  C    0.131489
   117  C    0.042364
   118  O   -0.187938
   119  C    0.000900
   120  C    0.211271
   121  O   -0.251027
   122  O   -0.305640
   123  C    0.152035
   124  H   -0.019613
   125  H   -0.015515
   126  H   -0.040468
   127  H   -0.000667
   128  H   -0.004315
   129  H    0.022450
   130  H    0.014471
   131  H    0.016315
   132  H    0.013930
   133  H    0.037663
   134  H    0.020785
   135  H    0.019615
   136  H    0.008781
   137  H    0.026220
   138  H    0.039818
   139  H    0.038296
   140  H    0.036444
   141  H    0.033884
   142  H    0.014419
   143  H    0.012446
   144  H    0.025199
   145  H    0.011689
   146  H    0.005722
   147  H    0.006300
   148  H    0.003632
   149  H    0.010954
   150  H    0.017918
   151  H    0.030087
   152  H    0.045969
   153  H    0.008514
   154  H    0.046927
   155  H    0.035012
   156  H    0.043875
   157  H    0.049506
   158  H    0.053573
 Sum of Mulliken charges =  -0.00000

 Dipole moment (field-independent basis, Debye):
    X=              3.8222    Y=              3.9701    Z=              1.0811  Tot=              5.6160
 Quadrupole moment (field-independent basis, Debye-Ang):
   XX=           -518.4939   YY=           -528.2893   ZZ=           -470.4427
   XY=             35.2726   XZ=           -112.5852   YZ=             26.8096

 Normal termination of Gaussian 16 at Sat Sep  4 18:27:11 2021.
