 Gaussian 16, Revision A.03,
 Gaussian 16:  ES64L-G16RevA.03 25-Dec-2016

 -----------------------------------
 #p cam-b3lyp/Def2SVP td=(nstates=5)
 -----------------------------------

 --------------------------------
 TDDFT excited states in gaussian
 --------------------------------
 Symbolic Z-matrix:
 Charge =  0 Multiplicity = 1

                         Standard orientation:
 ---------------------------------------------------------------------
 Center     Atomic      Atomic             Coordinates (Angstroms)
 Number     Number       Type             X           Y           Z
 ---------------------------------------------------------------------
      1         12           0       -4.183664   -1.315944    0.396736
      2          6           0       -4.842229    2.201162    0.488764
      3          6           0       -5.299429   -1.289575   -2.827770
      4          6           0       -4.040627   -4.483692    0.435923
      5          6           0       -4.208900   -1.262202    3.881293
      6          7           0       -4.946043    0.311985   -0.895266
      7          6           0       -5.091972    1.626292   -0.759354
      8          6           0       -5.462913    2.347556   -2.089601
      9          6           0       -6.118259    1.119739   -2.867409
     10          6           0       -5.386350   -0.020581   -2.181913
     11          6           0       -7.614393    0.966234   -2.613401
     12          6           0       -4.202656    2.894643   -2.840720
     13          6           0       -4.494684    3.887183   -3.969851
     14          1           0       -3.566769    4.985331   -4.194340
     15          7           0       -4.138704   -2.614903   -1.091059
     16          6           0       -4.624519   -2.430426   -2.342154
     17          6           0       -4.350606   -3.685316   -3.074891
     18          6           0       -3.837144   -4.681908   -2.094455
     19          6           0       -4.011930   -3.965731   -0.856748
     20          6           0       -4.531559   -3.830310   -4.554750
     21          6           0       -3.287478   -6.064860   -2.247561
     22          8           0       -3.115687   -6.843045   -1.247816
     23          6           0       -3.035090   -6.522598   -3.625900
     24          7           0       -4.349302   -2.726081    1.927002
     25          6           0       -4.190239   -4.031445    1.682653
     26          6           0       -4.070199   -4.814688    2.956254
     27          6           0       -3.936491   -3.737083    4.126999
     28          6           0       -4.093963   -2.449240    3.281461
     29          6           0       -5.233298   -5.766248    3.268896
     30          6           0       -2.705601   -3.861141    5.059703
     31          6           0       -1.442554   -3.556093    4.285908
     32          7           0       -4.294267    0.207114    1.939171
     33          6           0       -4.311772    0.002480    3.326431
     34          6           0       -4.505017    1.322027    3.955335
     35          6           0       -4.603738    2.206174    2.882776
     36          6           0       -4.506286    1.481186    1.660816
     37          6           0       -4.626383    1.570240    5.351077
     38          6           0       -4.793553    3.591507    2.484431
     39          8           0       -4.842178    4.667054    3.083035
     40          6           0       -5.077583    3.628026    0.917963
     41          6           0       -4.200793    4.695346    0.321828
     42          8           0       -2.959526    4.567617    0.304324
     43          8           0       -4.963461    5.578277   -0.340979
     44          6           0       -4.152417    6.647838   -0.981605
     45          1           0       -5.845011   -1.445592   -3.760475
     46          1           0       -3.882844   -5.562430    0.498111
     47          1           0       -4.142467   -1.156435    4.965660
     48          1           0       -6.190954    3.151900   -1.982780
     49          1           0       -5.880244    1.137890   -3.930772
     50          1           0       -7.958811    1.649211   -1.836974
     51          1           0       -7.751501   -0.068429   -2.298493
     52          1           0       -8.177805    1.074416   -3.540569
     53          1           0       -3.748579    2.087723   -3.415833
     54          1           0       -3.499851    3.344169   -2.138355
     55          1           0       -5.519266    4.256911   -3.920449
     56          1           0       -4.445715    3.350606   -4.917420
     57          1           0       -5.076905   -2.986741   -4.976097
     58          1           0       -5.188936   -4.685033   -4.712909
     59          1           0       -3.584916   -3.994341   -5.069816
     60          1           0       -3.965690   -6.487779   -4.192752
     61          1           0       -2.560398   -7.499066   -3.536298
     62          1           0       -2.354137   -5.822808   -4.111230
     63          1           0       -3.180863   -5.443503    2.946283
     64          1           0       -4.788709   -3.763483    4.806485
     65          1           0       -4.925875   -6.803252    3.406072
     66          1           0       -5.965599   -5.678282    2.466844
     67          1           0       -5.829456   -5.489322    4.137991
     68          1           0       -2.614407   -4.880361    5.433627
     69          1           0       -2.749410   -3.194535    5.921079
     70          1           0       -1.213229   -4.508383    3.809057
     71          1           0       -0.643354   -3.257002    4.964903
     72          1           0       -1.626741   -2.830730    3.493186
     73          1           0       -4.021166    2.452846    5.557690
     74          1           0       -4.291049    0.714165    5.936132
     75          1           0       -5.700148    1.737707    5.433773
     76          1           0       -6.136674    3.853224    0.796586
     77          1           0       -4.534912    7.601782   -0.618395
     78          1           0       -4.189473    6.463662   -2.055435
     79          1           0       -3.108989    6.712862   -0.671172
     80         12           0        4.718682   -0.147007   -0.239775
     81          6           0        3.441515    3.199112   -0.013105
     82          6           0        3.084277   -0.409220   -3.222141
     83          6           0        5.450619   -3.234311   -0.256302
     84          6           0        5.273959   -0.019559    3.198420
     85          7           0        3.459066    1.279394   -1.367148
     86          6           0        3.094047    2.543188   -1.212473
     87          6           0        2.381809    3.162408   -2.444895
     88          6           0        1.835324    1.807945   -3.112472
     89          6           0        2.873715    0.830057   -2.566444
     90          6           0        0.468440    1.391124   -2.595529
     91          6           0        3.378683    3.910884   -3.397791
     92          6           0        2.715529    4.798909   -4.452974
     93          1           0        3.377621    6.044657   -4.830103
     94          7           0        4.748796   -1.451737   -1.734876
     95          6           0        4.039378   -1.392071   -2.881362
     96          6           0        4.401033   -2.598525   -3.641513
     97          6           0        5.256352   -3.457842   -2.778545
     98          6           0        5.166000   -2.742097   -1.521707
     99          6           0        4.006760   -2.805675   -5.075069
    100          6           0        6.017868   -4.722379   -3.037819
    101          8           0        6.499753   -5.426359   -2.081247
    102          6           0        6.102448   -5.161264   -4.438439
    103          7           0        5.083496   -1.517727    1.280226
    104          6           0        5.432438   -2.785402    0.998876
    105          6           0        5.910951   -3.506863    2.236181
    106          6           0        6.039955   -2.382592    3.366198
    107          6           0        5.504975   -1.167719    2.576714
    108          6           0        5.008999   -4.633366    2.740041
    109          6           0        7.414697   -2.254467    4.077785
    110          6           0        8.455775   -1.753445    3.102845
    111          7           0        4.597568    1.363395    1.300382
    112          6           0        4.848844    1.196940    2.679958
    113          6           0        4.523613    2.478242    3.339434
    114          6           0        4.080296    3.300592    2.292677
    115          6           0        4.106862    2.576148    1.070394
    116          6           0        4.607271    2.739753    4.736118
    117          6           0        3.585819    4.613456    1.945412
    118          8           0        3.435567    5.673478    2.551641
    119          6           0        3.030317    4.566819    0.456917
    120          6           0        3.580315    5.756184   -0.281599
    121          8           0        4.800737    5.856318   -0.498758
    122          8           0        2.559630    6.465688   -0.796565
    123          6           0        3.055186    7.649692   -1.547816
    124          1           0        2.428531   -0.675286   -4.051654
    125          1           0        5.814655   -4.263752   -0.221695
    126          1           0        5.512975    0.131502    4.253272
    127          1           0        1.554326    3.820455   -2.208204
    128          1           0        1.887517    1.853208   -4.197185
    129          1           0        0.141092    2.012794   -1.775458
    130          1           0        0.576935    0.364197   -2.271947
    131          1           0       -0.255438    1.373918   -3.415305
    132          1           0        3.868895    3.177334   -4.050747
    133          1           0        4.085563    4.487111   -2.833059
    134          1           0        1.655808    4.977889   -4.234110
    135          1           0        2.705591    4.260015   -5.403508
    136          1           0        3.242848   -2.084299   -5.390424
    137          1           0        3.502942   -3.776705   -5.131013
    138          1           0        4.864530   -2.813121   -5.750972
    139          1           0        5.099421   -5.305667   -4.832827
    140          1           0        6.760100   -6.032661   -4.432418
    141          1           0        6.560533   -4.360061   -5.029059
    142          1           0        6.884070   -3.953047    2.071662
    143          1           0        5.336152   -2.554156    4.193883
    144          1           0        5.527793   -5.607727    2.814422
    145          1           0        4.154261   -4.707002    2.080839
    146          1           0        4.540763   -4.452953    3.706176
    147          1           0        7.756480   -3.234190    4.420546
    148          1           0        7.394016   -1.599884    4.942705
    149          1           0        8.767645   -2.665208    2.584667
    150          1           0        9.288712   -1.296318    3.633213
    151          1           0        8.007759   -1.087041    2.356628
    152          1           0        5.060343    3.716337    4.843435
    153          1           0        5.184665    1.974102    5.250077
    154          1           0        3.548115    2.704734    5.004881
    155          1           0        1.941277    4.587434    0.512889
    156          1           0        2.566312    8.528949   -1.117032
    157          1           0        2.853707    7.432940   -2.613733
    158          1           0        4.100502    7.912788   -1.435817
 ---------------------------------------------------------------------

 SCF Done:  E(RCAM-B3LYP) =  -4069.81141275     A.U. after   19 cycles

 Excitation energies and oscillator strengths:

 Excited State   1:      Singlet-A      1.6466 eV  752.95 nm  f=0.0011  <S**2>=0.000
     309 -> 315       -0.11512
     310 -> 316        0.12024
     311 -> 313       -0.47289
     312 -> 314        0.49940
 This state for optimization and/or second-order correction.
 Total Energy, E(TD-HF/TD-DFT) =  -4069.75089975
 Copying the excited state density for this state as the 1-particle RhoCI density.

 Excited State   2:      Singlet-A      1.7047 eV  727.32 nm  f=0.6952  <S**2>=0.000
     309 -> 315        0.13243
     310 -> 316        0.12404
     311 -> 313        0.49669
     312 -> 314        0.47040

 Excited State   3:      Singlet-A      2.1799 eV  568.77 nm  f=0.0200  <S**2>=0.000
     309 -> 313       -0.30617
     310 -> 314        0.56796
     311 -> 315        0.12639
     312 -> 316       -0.23595

 Excited State   4:      Singlet-A      2.1961 eV  564.56 nm  f=0.1561  <S**2>=0.000
     309 -> 313        0.56293
     310 -> 314        0.30157
     311 -> 315       -0.24836
     312 -> 316       -0.13428

 Excited State   5:      Singlet-A      2.3178 eV  534.93 nm  f=0.0000  <S**2>=0.000
     312 -> 313        0.70698

 The electronic state is 1-A.
 Alpha  occ. eigenvalues --  -46.87962 -46.87408 -19.26430 -19.25996 -19.19182
 Alpha  occ. eigenvalues --  -19.18958 -19.18826 -19.18510 -19.18277 -19.17691
 Alpha  occ. eigenvalues --  -14.42627 -14.42242 -14.41605 -14.41109 -14.39567
 Alpha  occ. eigenvalues --  -14.39103 -14.38742 -14.38333 -10.39240 -10.38741
 Alpha  occ. eigenvalues --  -10.35594 -10.35194 -10.34501 -10.33857 -10.31806
 Alpha  occ. eigenvalues --  -10.31579 -10.31486 -10.31102 -10.31031 -10.30756
 Alpha  occ. eigenvalues --  -10.30729 -10.30652 -10.30362 -10.30135 -10.30090
 Alpha  occ. eigenvalues --  -10.30056 -10.29930 -10.29780 -10.29638 -10.29415
 Alpha  occ. eigenvalues --  -10.29209 -10.29148 -10.28995 -10.28890 -10.28528
 Alpha  occ. eigenvalues --  -10.28495 -10.28404 -10.28335 -10.28128 -10.27938
 Alpha  occ. eigenvalues --  -10.27902 -10.27862 -10.27742 -10.27737 -10.27694
 Alpha  occ. eigenvalues --  -10.27622 -10.27570 -10.27563 -10.27433 -10.27338
 Alpha  occ. eigenvalues --  -10.27335 -10.27300 -10.27222 -10.27201 -10.27177
 Alpha  occ. eigenvalues --  -10.27059 -10.26603 -10.26582 -10.26468 -10.26417
 Alpha  occ. eigenvalues --  -10.26293 -10.26273 -10.26170 -10.25981 -10.25924
 Alpha  occ. eigenvalues --  -10.25700 -10.25670 -10.25584 -10.25535 -10.25212
 Alpha  occ. eigenvalues --  -10.24974 -10.24936 -10.24793 -10.24592 -10.24576
 Alpha  occ. eigenvalues --  -10.24434  -3.16705  -3.16158  -1.91587  -1.91173
 Alpha  occ. eigenvalues --   -1.91040  -1.91015  -1.90629  -1.90465  -1.16780
 Alpha  occ. eigenvalues --   -1.16296  -1.08731  -1.08284  -1.07357  -1.06798
 Alpha  occ. eigenvalues --   -1.06765  -1.06608  -1.04758  -1.04230  -1.03919
 Alpha  occ. eigenvalues --   -1.03408  -1.03389  -1.02789  -1.02567  -1.01853
 Alpha  occ. eigenvalues --   -0.92128  -0.91677  -0.89657  -0.89416  -0.89263
 Alpha  occ. eigenvalues --   -0.88874  -0.88421  -0.88004  -0.88003  -0.87857
 Alpha  occ. eigenvalues --   -0.87527  -0.87443  -0.87439  -0.86917  -0.85198
 Alpha  occ. eigenvalues --   -0.84748  -0.84062  -0.83661  -0.83125  -0.82837
 Alpha  occ. eigenvalues --   -0.82747  -0.82404  -0.81737  -0.81311  -0.80758
 Alpha  occ. eigenvalues --   -0.80179  -0.78959  -0.78408  -0.77394  -0.77113
 Alpha  occ. eigenvalues --   -0.76910  -0.76641  -0.76093  -0.75556  -0.75031
 Alpha  occ. eigenvalues --   -0.74572  -0.72925  -0.72446  -0.71830  -0.71316
 Alpha  occ. eigenvalues --   -0.70032  -0.69563  -0.69072  -0.68579  -0.67799
 Alpha  occ. eigenvalues --   -0.67456  -0.67350  -0.66982  -0.65493  -0.65009
 Alpha  occ. eigenvalues --   -0.64996  -0.64786  -0.64514  -0.64408  -0.64388
 Alpha  occ. eigenvalues --   -0.63976  -0.62441  -0.61985  -0.60599  -0.60122
 Alpha  occ. eigenvalues --   -0.60005  -0.59521  -0.59141  -0.58732  -0.58655
 Alpha  occ. eigenvalues --   -0.58154  -0.57727  -0.57452  -0.57210  -0.56976
 Alpha  occ. eigenvalues --   -0.56463  -0.56145  -0.55957  -0.55680  -0.55600
 Alpha  occ. eigenvalues --   -0.55469  -0.55209  -0.54998  -0.54660  -0.54228
 Alpha  occ. eigenvalues --   -0.54122  -0.53648  -0.53454  -0.53412  -0.53076
 Alpha  occ. eigenvalues --   -0.52995  -0.52947  -0.52890  -0.52642  -0.52560
 Alpha  occ. eigenvalues --   -0.52462  -0.52207  -0.52028  -0.51830  -0.51612
 Alpha  occ. eigenvalues --   -0.51417  -0.51342  -0.50928  -0.50756  -0.50305
 Alpha  occ. eigenvalues --   -0.50182  -0.50086  -0.49753  -0.49701  -0.49653
 Alpha  occ. eigenvalues --   -0.49375  -0.49277  -0.49250  -0.48926  -0.48810
 Alpha  occ. eigenvalues --   -0.48746  -0.48606  -0.48577  -0.48286  -0.48160
 Alpha  occ. eigenvalues --   -0.48095  -0.47864  -0.47454  -0.47355  -0.46959
 Alpha  occ. eigenvalues --   -0.46902  -0.46771  -0.46508  -0.46472  -0.46311
 Alpha  occ. eigenvalues --   -0.46300  -0.46041  -0.45959  -0.45827  -0.45534
 Alpha  occ. eigenvalues --   -0.45334  -0.44980  -0.44727  -0.44682  -0.44295
 Alpha  occ. eigenvalues --   -0.44282  -0.44245  -0.44235  -0.44166  -0.43866
 Alpha  occ. eigenvalues --   -0.43858  -0.43679  -0.43637  -0.43566  -0.43283
 Alpha  occ. eigenvalues --   -0.43177  -0.43127  -0.42839  -0.42786  -0.42657
 Alpha  occ. eigenvalues --   -0.42590  -0.42344  -0.42167  -0.41856  -0.41741
 Alpha  occ. eigenvalues --   -0.41736  -0.41371  -0.41304  -0.41216  -0.41069
 Alpha  occ. eigenvalues --   -0.41007  -0.40734  -0.40711  -0.40523  -0.40502
 Alpha  occ. eigenvalues --   -0.40467  -0.40257  -0.39995  -0.39567  -0.39239
 Alpha  occ. eigenvalues --   -0.38623  -0.38137  -0.38005  -0.37472  -0.37468
 Alpha  occ. eigenvalues --   -0.37431  -0.37037  -0.36946  -0.36861  -0.36472
 Alpha  occ. eigenvalues --   -0.36349  -0.35961  -0.34445  -0.33993  -0.33931
 Alpha  occ. eigenvalues --   -0.33539  -0.33344  -0.32918  -0.31488  -0.31196
 Alpha  occ. eigenvalues --   -0.31068  -0.30707  -0.30137  -0.29605  -0.29586
 Alpha  occ. eigenvalues --   -0.29462  -0.29087  -0.28930  -0.24243  -0.23768
 Alpha  occ. eigenvalues --   -0.21288  -0.20865
 Alpha virt. eigenvalues --   -0.08931  -0.08534  -0.01909  -0.01437  -0.00220
 Alpha virt. eigenvalues --    0.00211   0.02069   0.02487   0.02698   0.03499
 Alpha virt. eigenvalues --    0.04511   0.04895   0.04976   0.05510   0.05872

 Mulliken charges:
               1
     1  Mg   0.837269
     2  C   -0.003912
     3  C   -0.095533
     4  C   -0.045225
     5  C   -0.063502
     6  N   -0.256722
     7  C   -0.053247
     8  C   -0.013590
     9  C   -0.086824
    10  C    0.045723
    11  C    0.104757
    12  C    0.052091
    13  C   -0.071311
    14  H    0.034546
    15  N   -0.433242
    16  C    0.167936
    17  C   -0.178146
    18  C   -0.004038
    19  C    0.148784
    20  C    0.110313
    21  C    0.012588
    22  O   -0.248708
    23  C    0.062741
    24  N   -0.341020
    25  C    0.041083
    26  C   -0.028294
    27  C   -0.024082
    28  C    0.075015
    29  C    0.076018
    30  C    0.034996
    31  C   -0.004497
    32  N   -0.310787
    33  C    0.080754
    34  C   -0.168900
    35  C    0.009078
    36  C    0.083086
    37  C    0.127013
    38  C    0.046875
    39  O   -0.186476
    40  C   -0.005725
    41  C    0.213831
    42  O   -0.258274
    43  O   -0.304714
    44  C    0.156681
    45  H   -0.017823
    46  H   -0.016334
    47  H   -0.040878
    48  H    0.001702
    49  H   -0.004994
    50  H    0.025896
    51  H    0.016920
    52  H    0.016758
    53  H    0.009751
    54  H    0.043251
    55  H    0.019468
    56  H    0.017091
    57  H    0.005396
    58  H    0.027367
    59  H    0.037593
    60  H    0.037390
    61  H    0.036389
    62  H    0.029757
    63  H    0.017012
    64  H    0.009805
    65  H    0.023594
    66  H    0.012553
    67  H    0.004985
    68  H    0.006611
    69  H    0.004901
    70  H    0.009158
    71  H    0.017661
    72  H    0.029312
    73  H    0.049069
    74  H    0.009295
    75  H    0.046338
    76  H    0.035490
    77  H    0.044176
    78  H    0.045168
    79  H    0.055269
    80  Mg   0.837289
    81  C   -0.016124
    82  C   -0.087979
    83  C   -0.045539
    84  C   -0.065657
    85  N   -0.254586
    86  C   -0.048246
    87  C   -0.015741
    88  C   -0.091923
    89  C    0.045687
    90  C    0.110134
    91  C    0.062663
    92  C   -0.076930
    93  H    0.033588
    94  N   -0.423394
    95  C    0.162731
    96  C   -0.175438
    97  C   -0.008118
    98  C    0.151831
    99  C    0.099943
   100  C    0.015297
   101  O   -0.253554
   102  C    0.061421
   103  N   -0.350099
   104  C    0.037258
   105  C   -0.019652
   106  C   -0.034691
   107  C    0.089299
   108  C    0.073792
   109  C    0.034862
   110  C   -0.007551
   111  N   -0.324487
   112  C    0.079161
   113  C   -0.163175
   114  C    0.003833
   115  C    0.095640
   116  C    0.131194
   117  C    0.044306
   118  O   -0.186208
   119  C   -0.000829
   120  C    0.210155
   121  O   -0.252525
   122  O   -0.303379
   123  C    0.152573
   124  H   -0.021701
   125  H   -0.016063
   126  H   -0.041054
   127  H    0.004594
   128  H   -0.006639
   129  H    0.034969
   130  H    0.012765
   131  H    0.013107
   132  H    0.012997
   133  H    0.037627
   134  H    0.020542
   135  H    0.018139
   136  H    0.007181
   137  H    0.024354
   138  H    0.038968
   139  H    0.037481
   140  H    0.035847
   141  H    0.033427
   142  H    0.013934
   143  H    0.011633
   144  H    0.024653
   145  H    0.012544
   146  H    0.004541
   147  H    0.005714
   148  H    0.003334
   149  H    0.010738
   150  H    0.017513
   151  H    0.030450
   152  H    0.045895
   153  H    0.007473
   154  H    0.048484
   155  H    0.045994
   156  H    0.043447
   157  H    0.048027
   158  H    0.052748
 Sum of Mulliken charges =  -0.00000

 Dipole moment (field-independent basis, Debye):
    X=             -4.6937    Y=             -3.2756    Z=             -6.3444  Tot=              8.5447
 Quadrupole moment (field-independent basis, Debye-Ang):
   XX=           -515.0485   YY=           -557.4405   ZZ=           -448.8065
   XY=             -3.5453   XZ=             22.0774   YZ=            -39.4776

 Normal termination of Gaussian 16 at Fri Sep 10 03:51:38 2021.
