 Gaussian 16, Revision A.03,
 Gaussian 16:  ES64L-G16RevA.03 25-Dec-2016

 -----------------------------------
 #p cam-b3lyp/Def2SVP td=(nstates=5)
 -----------------------------------

 --------------------------------
 TDDFT excited states in gaussian
 --------------------------------
 Symbolic Z-matrix:
 Charge =  0 Multiplicity = 1

                         Standard orientation:
 ---------------------------------------------------------------------
 Center     Atomic      Atomic             Coordinates (Angstroms)
 Number     Number       Type             X           Y           Z
 ---------------------------------------------------------------------
      1         12           0        3.177543   -2.239277   -0.079748
      2          6           0        5.348836    0.547652   -0.654833
      3          6           0        4.366400   -2.315250    3.117737
      4          6           0        1.615616   -4.969984    0.320554
      5          6           0        3.025700   -2.645677   -3.537702
      6          7           0        4.665888   -0.988441    0.978969
      7          6           0        5.382331    0.085769    0.662812
      8          6           0        6.114463    0.721026    1.882568
      9          6           0        6.186935   -0.560652    2.828108
     10          6           0        4.980764   -1.318794    2.302467
     11          6           0        7.434766   -1.409917    2.608630
     12          6           0        5.282890    1.872656    2.541329
     13          6           0        6.055983    2.757355    3.523667
     14          1           0        5.739390    4.176206    3.586737
     15          7           0        2.634965   -3.174399    1.573735
     16          6           0        3.222116   -3.074465    2.790515
     17          6           0        2.452638   -3.962257    3.688519
     18          6           0        1.489087   -4.730746    2.852405
     19          6           0        1.897958   -4.336501    1.528481
     20          6           0        2.632488   -3.984643    5.175430
     21          6           0        0.383216   -5.679272    3.192230
     22          8           0       -0.178553   -6.413485    2.309098
     23          6           0        0.030147   -5.792611    4.618952
     24          7           0        2.600131   -3.751362   -1.398016
     25          6           0        1.882222   -4.797945   -0.975813
     26          6           0        1.348621   -5.594954   -2.129064
     27          6           0        1.650144   -4.733197   -3.439106
     28          6           0        2.420833   -3.563001   -2.779598
     29          6           0        1.935813   -7.003016   -2.298110
     30          6           0        0.445265   -4.399961   -4.354331
     31          6           0       -0.496943   -3.457429   -3.639506
     32          7           0        3.876767   -1.143562   -1.818006
     33          6           0        3.720749   -1.507898   -3.163217
     34          6           0        4.453579   -0.513202   -3.967960
     35          6           0        5.002371    0.356906   -3.027969
     36          6           0        4.657454   -0.082342   -1.717860
     37          6           0        4.594291   -0.526965   -5.383744
     38          6           0        5.820443    1.541501   -2.824618
     39          8           0        6.315942    2.390971   -3.566490
     40          6           0        6.179055    1.643055   -1.276422
     41          6           0        5.915211    3.058617   -0.840670
     42          8           0        4.753593    3.513945   -0.814492
     43          8           0        7.031083    3.573092   -0.301515
     44          6           0        6.829309    4.966315    0.178456
     45          1           0        4.834639   -2.582951    4.066962
     46          1           0        0.983849   -5.856388    0.407722
     47          1           0        2.952588   -2.659843   -4.626696
     48          1           0        7.120113    1.084363    1.670251
     49          1           0        6.043892   -0.301240    3.876900
     50          1           0        8.005906   -1.063678    1.747330
     51          1           0        7.071009   -2.423944    2.441527
     52          1           0        8.038024   -1.453676    3.515791
     53          1           0        4.546623    1.441639    3.219707
     54          1           0        4.820551    2.499831    1.778295
     55          1           0        7.132337    2.609932    3.430724
     56          1           0        5.823777    2.427186    4.536222
     57          1           0        3.523360   -3.436460    5.479383
     58          1           0        2.840154   -5.017179    5.455523
     59          1           0        1.745062   -3.632409    5.701488
     60          1           0        0.906533   -6.114061    5.182129
     61          1           0       -0.839020   -6.447975    4.662490
     62          1           0       -0.231885   -4.804163    4.997448
     63          1           0        0.273251   -5.742434   -2.038199
     64          1           0        2.358044   -5.231047   -4.102203
     65          1           0        1.185448   -7.793978   -2.292073
     66          1           0        2.673128   -7.157428   -1.510828
     67          1           0        2.542140   -7.141003   -3.192953
     68          1           0       -0.118085   -5.303837   -4.583660
     69          1           0        0.736587   -3.941941   -5.299636
     70          1           0       -1.104489   -4.131411   -3.036624
     71          1           0       -1.111775   -2.915900   -4.359186
     72          1           0        0.040176   -2.801677   -2.953956
     73          1           0        4.442899    0.500218   -5.715320
     74          1           0        3.875367   -1.202646   -5.846569
     75          1           0        5.621067   -0.879227   -5.481202
     76          1           0        7.230507    1.374245   -1.179918
     77          1           0        7.580419    5.586380   -0.311022
     78          1           0        6.840217    4.923450    1.267698
     79          1           0        5.912256    5.459691   -0.145477
     80         12           0       -3.322074    2.316943    0.262539
     81          6           0       -5.214806   -0.722977    0.026985
     82          6           0       -2.660198    1.987189   -3.067298
     83          6           0       -1.285154    4.735050    0.529305
     84          6           0       -3.175627    1.795640    3.705281
     85          7           0       -3.917431    0.787287   -1.220008
     86          6           0       -4.688842   -0.289340   -1.207833
     87          6           0       -4.974601   -0.891726   -2.609627
     88          6           0       -3.687737   -0.321962   -3.383071
     89          6           0       -3.418496    0.916267   -2.530442
     90          6           0       -2.477469   -1.236510   -3.292675
     91          6           0       -6.307431   -0.347524   -3.233672
     92          6           0       -6.806757   -1.119224   -4.457146
     93          1           0       -8.247006   -1.273042   -4.642899
     94          7           0       -2.546137    3.501826   -1.127624
     95          6           0       -2.372754    3.216951   -2.435317
     96          6           0       -1.745504    4.408858   -3.026995
     97          6           0       -1.412280    5.357224   -1.929597
     98          6           0       -1.722794    4.541413   -0.772824
     99          6           0       -1.589363    4.595687   -4.508264
    100          6           0       -0.887332    6.760994   -1.922281
    101          8           0       -0.446192    7.309342   -0.851057
    102          6           0       -0.818258    7.441865   -3.223490
    103          7           0       -2.187637    3.036387    1.849301
    104          6           0       -1.424816    4.135049    1.711587
    105          6           0       -0.921226    4.620722    3.049843
    106          6           0       -1.705875    3.756950    4.143376
    107          6           0       -2.496259    2.818633    3.205164
    108          6           0        0.583838    4.489104    3.281907
    109          6           0       -2.486679    4.542181    5.232610
    110          6           0       -3.651289    5.274471    4.605845
    111          7           0       -4.201956    0.927922    1.664140
    112          6           0       -3.986043    0.871371    3.058503
    113          6           0       -4.710818   -0.312686    3.563619
    114          6           0       -5.283718   -0.880411    2.415584
    115          6           0       -4.923574   -0.116382    1.272759
    116          6           0       -4.736476   -0.758290    4.915246
    117          6           0       -6.102468   -1.958350    1.909254
    118          8           0       -6.760855   -2.863174    2.420669
    119          6           0       -5.990118   -1.976520    0.323868
    120          6           0       -7.380333   -2.090357   -0.239033
    121          8           0       -8.203330   -1.171452   -0.081209
    122          8           0       -7.440514   -3.161341   -1.051278
    123          6           0       -8.797012   -3.309974   -1.642592
    124          1           0       -2.205428    1.859403   -4.050017
    125          1           0       -0.668823    5.622152    0.692570
    126          1           0       -3.259820    1.620283    4.779920
    127          1           0       -4.981072   -1.974497   -2.646036
    128          1           0       -3.933884   -0.036721   -4.402589
    129          1           0       -2.647988   -2.065298   -2.621714
    130          1           0       -1.667187   -0.617254   -2.930738
    131          1           0       -2.180209   -1.568253   -4.291635
    132          1           0       -6.114283    0.629970   -3.694051
    133          1           0       -7.083212   -0.301169   -2.494325
    134          1           0       -6.299329   -2.084921   -4.570687
    135          1           0       -6.528498   -0.562993   -5.355588
    136          1           0       -1.774714    3.661845   -5.053225
    137          1           0       -0.531828    4.812915   -4.693434
    138          1           0       -2.192437    5.420084   -4.894712
    139          1           0       -0.187252    6.868213   -3.898189
    140          1           0       -0.502894    8.463405   -3.002397
    141          1           0       -1.820931    7.454972   -3.665153
    142          1           0       -1.156246    5.668063    3.194556
    143          1           0       -1.024004    3.118808    4.724464
    144          1           0        1.073135    5.450273    3.528517
    145          1           0        1.028557    4.051822    2.397859
    146          1           0        0.871277    3.782593    4.058706
    147          1           0       -1.846054    5.304929    5.682012
    148          1           0       -2.853707    3.914616    6.037867
    149          1           0       -3.190261    6.190280    4.223960
    150          1           0       -4.410774    5.496695    5.352736
    151          1           0       -4.047201    4.721473    3.746140
    152          1           0       -5.760525   -1.030240    5.134030
    153          1           0       -4.374816    0.010937    5.594406
    154          1           0       -4.050314   -1.607223    4.853799
    155          1           0       -5.366316   -2.828061    0.049387
    156          1           0       -9.144030   -4.318318   -1.396596
    157          1           0       -8.683979   -3.063834   -2.715151
    158          1           0       -9.594048   -2.704712   -1.226844
 ---------------------------------------------------------------------

 SCF Done:  E(RCAM-B3LYP) =  -4069.80374843     A.U. after   19 cycles

 Excitation energies and oscillator strengths:

 Excited State   1:      Singlet-A      1.6384 eV  756.73 nm  f=0.0119  <S**2>=0.000
     309 -> 315        0.11298
     310 -> 316        0.11983
     311 -> 313       -0.47088
     312 -> 314        0.50167
 This state for optimization and/or second-order correction.
 Total Energy, E(TD-HF/TD-DFT) =  -4069.74353749
 Copying the excited state density for this state as the 1-particle RhoCI density.

 Excited State   2:      Singlet-A      1.7118 eV  724.31 nm  f=0.6651  <S**2>=0.000
     309 -> 315       -0.13405
     310 -> 316        0.12560
     311 -> 313        0.49831
     312 -> 314        0.46794

 Excited State   3:      Singlet-A      2.1812 eV  568.41 nm  f=0.0073  <S**2>=0.000
     309 -> 313       -0.39026
     310 -> 314        0.51498
     311 -> 315       -0.16069
     312 -> 316       -0.21241

 Excited State   4:      Singlet-A      2.1991 eV  563.80 nm  f=0.1617  <S**2>=0.000
     309 -> 313        0.50850
     310 -> 314        0.38444
     311 -> 315        0.22628
     312 -> 316       -0.17176

 Excited State   5:      Singlet-A      2.2368 eV  554.30 nm  f=0.0001  <S**2>=0.000
     312 -> 313        0.70668

 The electronic state is 1-A.
 Alpha  occ. eigenvalues --  -46.87907 -46.87393 -19.26290 -19.26153 -19.19030
 Alpha  occ. eigenvalues --  -19.18952 -19.18827 -19.18353 -19.18275 -19.17778
 Alpha  occ. eigenvalues --  -14.42559 -14.42227 -14.41571 -14.41102 -14.39502
 Alpha  occ. eigenvalues --  -14.39064 -14.38705 -14.38335 -10.39098 -10.38876
 Alpha  occ. eigenvalues --  -10.35455 -10.35024 -10.34492 -10.33960 -10.31646
 Alpha  occ. eigenvalues --  -10.31594 -10.31526 -10.31074 -10.30993 -10.30728
 Alpha  occ. eigenvalues --  -10.30694 -10.30622 -10.30326 -10.30126 -10.30115
 Alpha  occ. eigenvalues --  -10.30056 -10.29864 -10.29739 -10.29649 -10.29361
 Alpha  occ. eigenvalues --  -10.29132 -10.29125 -10.28835 -10.28610 -10.28521
 Alpha  occ. eigenvalues --  -10.28489 -10.28461 -10.28212 -10.28108 -10.27906
 Alpha  occ. eigenvalues --  -10.27840 -10.27824 -10.27713 -10.27677 -10.27654
 Alpha  occ. eigenvalues --  -10.27599 -10.27553 -10.27504 -10.27395 -10.27338
 Alpha  occ. eigenvalues --  -10.27233 -10.27206 -10.27165 -10.27162 -10.27092
 Alpha  occ. eigenvalues --  -10.26791 -10.26784 -10.26499 -10.26369 -10.26357
 Alpha  occ. eigenvalues --  -10.26320 -10.26163 -10.26052 -10.26015 -10.26013
 Alpha  occ. eigenvalues --  -10.25721 -10.25695 -10.25677 -10.25552 -10.25151
 Alpha  occ. eigenvalues --  -10.24947 -10.24896 -10.24817 -10.24600 -10.24593
 Alpha  occ. eigenvalues --  -10.24398  -3.16650  -3.16143  -1.91531  -1.91118
 Alpha  occ. eigenvalues --   -1.91026  -1.90960  -1.90614  -1.90451  -1.16641
 Alpha  occ. eigenvalues --   -1.16443  -1.08730  -1.08394  -1.07221  -1.06736
 Alpha  occ. eigenvalues --   -1.06657  -1.06594  -1.04686  -1.04225  -1.03876
 Alpha  occ. eigenvalues --   -1.03391  -1.03347  -1.02771  -1.02526  -1.01839
 Alpha  occ. eigenvalues --   -0.92073  -0.91718  -0.89680  -0.89284  -0.89266
 Alpha  occ. eigenvalues --   -0.88932  -0.88434  -0.88015  -0.87996  -0.87785
 Alpha  occ. eigenvalues --   -0.87567  -0.87432  -0.87342  -0.86785  -0.85078
 Alpha  occ. eigenvalues --   -0.84794  -0.84113  -0.83665  -0.83039  -0.82725
 Alpha  occ. eigenvalues --   -0.82620  -0.82387  -0.81659  -0.81373  -0.80679
 Alpha  occ. eigenvalues --   -0.80189  -0.78895  -0.78345  -0.77428  -0.77091
 Alpha  occ. eigenvalues --   -0.76881  -0.76682  -0.76021  -0.75661  -0.75003
 Alpha  occ. eigenvalues --   -0.74565  -0.72909  -0.72455  -0.71779  -0.71405
 Alpha  occ. eigenvalues --   -0.70152  -0.69554  -0.68975  -0.68555  -0.67735
 Alpha  occ. eigenvalues --   -0.67342  -0.67291  -0.66948  -0.65393  -0.65075
 Alpha  occ. eigenvalues --   -0.64943  -0.64725  -0.64534  -0.64473  -0.64326
 Alpha  occ. eigenvalues --   -0.63977  -0.62359  -0.62056  -0.60532  -0.60040
 Alpha  occ. eigenvalues --   -0.59904  -0.59556  -0.59102  -0.58741  -0.58611
 Alpha  occ. eigenvalues --   -0.58172  -0.57666  -0.57416  -0.57314  -0.56979
 Alpha  occ. eigenvalues --   -0.56416  -0.56024  -0.55965  -0.55756  -0.55611
 Alpha  occ. eigenvalues --   -0.55525  -0.55177  -0.55039  -0.54772  -0.54281
 Alpha  occ. eigenvalues --   -0.53989  -0.53906  -0.53332  -0.53283  -0.53095
 Alpha  occ. eigenvalues --   -0.52945  -0.52893  -0.52813  -0.52749  -0.52482
 Alpha  occ. eigenvalues --   -0.52293  -0.52224  -0.52078  -0.51705  -0.51689
 Alpha  occ. eigenvalues --   -0.51412  -0.51324  -0.50978  -0.50635  -0.50305
 Alpha  occ. eigenvalues --   -0.50130  -0.49987  -0.49725  -0.49629  -0.49579
 Alpha  occ. eigenvalues --   -0.49313  -0.49222  -0.49182  -0.48955  -0.48910
 Alpha  occ. eigenvalues --   -0.48687  -0.48561  -0.48489  -0.48339  -0.48148
 Alpha  occ. eigenvalues --   -0.48024  -0.47784  -0.47392  -0.47344  -0.47021
 Alpha  occ. eigenvalues --   -0.46856  -0.46668  -0.46580  -0.46439  -0.46355
 Alpha  occ. eigenvalues --   -0.46280  -0.46020  -0.45924  -0.45866  -0.45658
 Alpha  occ. eigenvalues --   -0.45267  -0.44930  -0.44727  -0.44610  -0.44382
 Alpha  occ. eigenvalues --   -0.44303  -0.44187  -0.44166  -0.44087  -0.43848
 Alpha  occ. eigenvalues --   -0.43811  -0.43713  -0.43553  -0.43487  -0.43350
 Alpha  occ. eigenvalues --   -0.43290  -0.43091  -0.42846  -0.42715  -0.42703
 Alpha  occ. eigenvalues --   -0.42472  -0.42318  -0.42026  -0.41820  -0.41755
 Alpha  occ. eigenvalues --   -0.41625  -0.41417  -0.41244  -0.41205  -0.40999
 Alpha  occ. eigenvalues --   -0.40869  -0.40752  -0.40648  -0.40433  -0.40406
 Alpha  occ. eigenvalues --   -0.40308  -0.40232  -0.39978  -0.39408  -0.39241
 Alpha  occ. eigenvalues --   -0.38586  -0.38109  -0.37827  -0.37464  -0.37422
 Alpha  occ. eigenvalues --   -0.37355  -0.37028  -0.36940  -0.36716  -0.36563
 Alpha  occ. eigenvalues --   -0.36235  -0.35981  -0.34400  -0.33984  -0.33797
 Alpha  occ. eigenvalues --   -0.33638  -0.33289  -0.32907  -0.31362  -0.31132
 Alpha  occ. eigenvalues --   -0.30920  -0.30681  -0.30134  -0.29691  -0.29543
 Alpha  occ. eigenvalues --   -0.29434  -0.29022  -0.28928  -0.24193  -0.23767
 Alpha  occ. eigenvalues --   -0.21244  -0.20838
 Alpha virt. eigenvalues --   -0.08879  -0.08503  -0.01858  -0.01404  -0.00124
 Alpha virt. eigenvalues --    0.00298   0.02079   0.02368   0.02585   0.03598
 Alpha virt. eigenvalues --    0.04608   0.05006   0.05054   0.05390   0.06038

 Mulliken charges:
               1
     1  Mg   0.838563
     2  C   -0.002148
     3  C   -0.094201
     4  C   -0.046037
     5  C   -0.065801
     6  N   -0.256646
     7  C   -0.052736
     8  C   -0.013965
     9  C   -0.087012
    10  C    0.046477
    11  C    0.104758
    12  C    0.052779
    13  C   -0.072167
    14  H    0.037057
    15  N   -0.433423
    16  C    0.169029
    17  C   -0.176893
    18  C   -0.003161
    19  C    0.149373
    20  C    0.110237
    21  C    0.013441
    22  O   -0.248284
    23  C    0.062134
    24  N   -0.341078
    25  C    0.041122
    26  C   -0.029702
    27  C   -0.024528
    28  C    0.074555
    29  C    0.076574
    30  C    0.069162
    31  C   -0.041754
    32  N   -0.310237
    33  C    0.079581
    34  C   -0.171765
    35  C    0.008191
    36  C    0.082817
    37  C    0.127744
    38  C    0.045750
    39  O   -0.188915
    40  C   -0.005185
    41  C    0.212245
    42  O   -0.255782
    43  O   -0.305194
    44  C    0.156961
    45  H   -0.017224
    46  H   -0.016237
    47  H   -0.043119
    48  H    0.001244
    49  H   -0.004062
    50  H    0.025648
    51  H    0.016505
    52  H    0.016945
    53  H    0.010275
    54  H    0.045462
    55  H    0.018179
    56  H    0.017354
    57  H    0.005732
    58  H    0.027522
    59  H    0.039792
    60  H    0.036912
    61  H    0.038326
    62  H    0.031355
    63  H    0.016674
    64  H    0.009427
    65  H    0.023606
    66  H    0.013081
    67  H    0.004685
    68  H    0.003096
    69  H    0.000392
    70  H    0.012231
    71  H    0.017001
    72  H    0.034388
    73  H    0.045772
    74  H    0.007519
    75  H    0.046571
    76  H    0.035219
    77  H    0.042855
    78  H    0.046251
    79  H    0.055904
    80  Mg   0.836629
    81  C   -0.016729
    82  C   -0.087866
    83  C   -0.040860
    84  C   -0.065934
    85  N   -0.254536
    86  C   -0.051052
    87  C   -0.014486
    88  C   -0.071779
    89  C    0.045575
    90  C    0.081756
    91  C    0.063771
    92  C   -0.077422
    93  H    0.034326
    94  N   -0.424460
    95  C    0.163437
    96  C   -0.170921
    97  C   -0.004459
    98  C    0.152512
    99  C    0.097786
   100  C    0.018433
   101  O   -0.252800
   102  C    0.060523
   103  N   -0.350039
   104  C    0.037450
   105  C   -0.020217
   106  C   -0.033928
   107  C    0.088316
   108  C    0.071989
   109  C    0.035092
   110  C   -0.007474
   111  N   -0.323811
   112  C    0.077807
   113  C   -0.164578
   114  C    0.002288
   115  C    0.095440
   116  C    0.131649
   117  C    0.042413
   118  O   -0.188797
   119  C    0.000754
   120  C    0.211000
   121  O   -0.251508
   122  O   -0.305443
   123  C    0.152262
   124  H   -0.019348
   125  H   -0.014283
   126  H   -0.042678
   127  H   -0.001611
   128  H   -0.005367
   129  H    0.032278
   130  H    0.017828
   131  H    0.022461
   132  H    0.013803
   133  H    0.037348
   134  H    0.019622
   135  H    0.019094
   136  H    0.007831
   137  H    0.031231
   138  H    0.038910
   139  H    0.041543
   140  H    0.035622
   141  H    0.032306
   142  H    0.013794
   143  H    0.009882
   144  H    0.023445
   145  H    0.019861
   146  H    0.001885
   147  H    0.005062
   148  H    0.002335
   149  H    0.010875
   150  H    0.017112
   151  H    0.030823
   152  H    0.045506
   153  H    0.007119
   154  H    0.044305
   155  H    0.036254
   156  H    0.043657
   157  H    0.048959
   158  H    0.053209
 Sum of Mulliken charges =  -0.00000

 Dipole moment (field-independent basis, Debye):
    X=              4.0295    Y=             -1.4803    Z=              0.1043  Tot=              4.2941
 Quadrupole moment (field-independent basis, Debye-Ang):
   XX=           -537.6061   YY=           -532.6273   ZZ=           -450.8329
   XY=            -21.4007   XZ=             58.6412   YZ=             21.4711

 Normal termination of Gaussian 16 at Fri Sep  3 13:31:53 2021.
