 Gaussian 16, Revision A.03,
 Gaussian 16:  ES64L-G16RevA.03 25-Dec-2016

 -----------------------------------
 #p cam-b3lyp/Def2SVP td=(nstates=5)
 -----------------------------------

 --------------------------------
 TDDFT excited states in gaussian
 --------------------------------
 Symbolic Z-matrix:
 Charge =  0 Multiplicity = 1

                         Standard orientation:
 ---------------------------------------------------------------------
 Center     Atomic      Atomic             Coordinates (Angstroms)
 Number     Number       Type             X           Y           Z
 ---------------------------------------------------------------------
      1         12           0        6.719786    0.494602    1.036938
      2          6           0        7.250570   -2.410207   -0.986072
      3          6           0        7.989713    2.337636   -1.538636
      4          6           0        6.685085    3.012243    2.964865
      5          6           0        6.573367   -1.632978    3.793317
      6          7           0        7.487213   -0.078132   -0.958977
      7          6           0        7.580626   -1.218615   -1.635546
      8          6           0        7.990659   -1.021213   -3.125606
      9          6           0        8.725352    0.388194   -2.999921
     10          6           0        8.000955    0.931888   -1.781082
     11          6           0       10.211763    0.273823   -2.677428
     12          6           0        6.750253   -0.937802   -4.077534
     13          6           0        7.062298   -1.073047   -5.570748
     14          1           0        6.108852   -1.764036   -6.425630
     15          7           0        6.792483    2.425253    0.624443
     16          6           0        7.331966    2.998001   -0.478373
     17          6           0        7.137810    4.455066   -0.317301
     18          6           0        6.612110    4.695064    1.055337
     19          6           0        6.701424    3.372515    1.619486
     20          6           0        7.395561    5.445394   -1.411177
     21          6           0        6.118905    5.923722    1.751958
     22          8           0        5.925741    5.958069    3.015320
     23          6           0        5.950006    7.128121    0.918929
     24          7           0        6.859545    0.697864    3.109807
     25          6           0        6.757994    1.896771    3.694010
     26          6           0        6.603323    1.768493    5.180469
     27          6           0        6.375409    0.214560    5.468737
     28          6           0        6.529072   -0.318681    4.022946
     29          6           0        7.782150    2.276168    6.022281
     30          6           0        5.105595   -0.173697    6.267017
     31          6           0        3.871913    0.116963    5.442005
     32          7           0        6.702172   -1.651644    1.359991
     33          6           0        6.659173   -2.318362    2.593001
     34          6           0        6.775620   -3.760455    2.308615
     35          6           0        6.895713   -3.831834    0.922135
     36          6           0        6.883133   -2.516059    0.377275
     37          6           0        6.820159   -4.800256    3.278803
     38          6           0        7.056492   -4.712214   -0.223700
     39          8           0        7.038525   -5.932851   -0.388674
     40          6           0        7.415052   -3.821121   -1.493823
     41          6           0        6.531813   -4.268193   -2.626663
     42          8           0        5.298056   -4.084861   -2.586673
     43          8           0        7.294746   -4.621397   -3.672475
     44          6           0        6.479225   -5.047410   -4.841060
     45          1           0        8.585169    2.988894   -2.181469
     46          1           0        6.562010    3.846611    3.658493
     47          1           0        6.450558   -2.362029    4.596346
     48          1           0        8.684265   -1.769712   -3.509121
     49          1           0        8.538933    1.022954   -3.865976
     50          1           0       10.494029   -0.756081   -2.459379
     51          1           0       10.369211    0.905060   -1.802647
     52          1           0       10.815575    0.709502   -3.473903
     53          1           0        6.353021    0.077104   -4.062191
     54          1           0        5.998884   -1.677085   -3.797834
     55          1           0        8.069802   -1.456602   -5.734244
     56          1           0        7.078207   -0.074727   -6.008132
     57          1           0        7.931166    4.991696   -2.244142
     58          1           0        8.089142    6.185916   -1.013331
     59          1           0        6.481399    5.938420   -1.742184
     60          1           0        6.905342    7.386128    0.461421
     61          1           0        5.505703    7.882385    1.567412
     62          1           0        5.269616    6.897523    0.098659
     63          1           0        5.737899    2.327933    5.533308
     64          1           0        7.193917   -0.219112    6.043755
     65          1           0        7.504601    3.040864    6.748168
     66          1           0        8.549155    2.643590    5.341109
     67          1           0        8.325288    1.501196    6.562499
     68          1           0        5.031739    0.422921    7.175607
     69          1           0        5.084221   -1.224164    6.557384
     70          1           0        3.699292    1.176553    5.627215
     71          1           0        3.030683   -0.482568    5.791442
     72          1           0        4.069200    0.000381    4.376185
     73          1           0        6.175316   -5.595014    2.903960
     74          1           0        6.486651   -4.446395    4.254076
     75          1           0        7.882159   -5.044791    3.264104
     76          1           0        8.470341   -3.988981   -1.706688
     77          1           0        6.810220   -6.049114   -5.115404
     78          1           0        6.574918   -4.260288   -5.589183
     79          1           0        5.420286   -5.225527   -4.650638
     80         12           0       -6.356772    0.428096   -0.957440
     81          6           0       -8.428126   -1.694899    1.062815
     82          6           0       -8.629246    2.912669   -0.412108
     83          6           0       -4.797905    2.186088   -3.089764
     84          6           0       -4.899472   -2.460445   -2.252938
     85          7           0       -8.244159    0.480295    0.194647
     86          6           0       -8.899515   -0.368643    0.971928
     87          6           0      -10.083230    0.259203    1.755631
     88          6           0      -10.380990    1.503610    0.785249
     89          6           0       -8.992599    1.672830    0.171719
     90          6           0      -11.359497    1.176144   -0.330386
     91          6           0       -9.663901    0.736928    3.190185
     92          6           0      -10.829877    1.075128    4.121783
     93          1           0      -10.695057    0.771986    5.543889
     94          7           0       -6.380212    2.387793   -1.269905
     95          6           0       -7.374400    3.248385   -0.966175
     96          6           0       -6.912615    4.571110   -1.414880
     97          6           0       -5.634729    4.394943   -2.156963
     98          6           0       -5.563883    2.948896   -2.220307
     99          6           0       -7.624139    5.844608   -1.060821
    100          6           0       -4.647223    5.367165   -2.727755
    101          8           0       -3.728426    4.994919   -3.540212
    102          6           0       -4.844928    6.782150   -2.381048
    103          7           0       -5.189683   -0.062332   -2.606595
    104          6           0       -4.584246    0.892977   -3.333752
    105          6           0       -3.582845    0.295679   -4.293344
    106          6           0       -3.466643   -1.246960   -3.887957
    107          6           0       -4.534111   -1.296674   -2.772861
    108          6           0       -3.934832    0.406693   -5.776644
    109          6           0       -2.044443   -1.787014   -3.574340
    110          6           0       -1.519310   -1.152389   -2.306717
    111          7           0       -6.463124   -1.689171   -0.540417
    112          6           0       -5.789286   -2.727351   -1.220271
    113          6           0       -6.268435   -4.003478   -0.650774
    114          6           0       -7.212251   -3.616858    0.312678
    115          6           0       -7.328891   -2.200642    0.327520
    116          6           0       -5.866825   -5.303649   -1.068363
    117          6           0       -8.144167   -4.085246    1.313103
    118          8           0       -8.414688   -5.180929    1.803037
    119          6           0       -9.065216   -2.867633    1.755222
    120          6           0       -9.120155   -2.848618    3.258266
    121          8           0       -8.097416   -2.612287    3.925174
    122          8           0      -10.405607   -2.896263    3.652852
    123          6           0      -10.512350   -2.868582    5.135975
    124          1           0       -9.388926    3.690667   -0.492638
    125          1           0       -4.157050    2.749580   -3.771867
    126          1           0       -4.422171   -3.401374   -2.534891
    127          1           0      -10.961538   -0.370358    1.833119
    128          1           0      -10.657975    2.388856    1.351802
    129          1           0      -11.603148    0.124439   -0.356769
    130          1           0      -10.869688    1.474177   -1.248166
    131          1           0      -12.250765    1.804602   -0.246612
    132          1           0       -9.191135    1.724627    3.114703
    133          1           0       -9.023529    0.015849    3.659862
    134          1           0      -11.786376    0.700046    3.737878
    135          1           0      -10.955613    2.160421    4.140426
    136          1           0       -8.621312    5.646996   -0.648515
    137          1           0       -7.818522    6.373997   -1.999877
    138          1           0       -7.033019    6.489684   -0.407280
    139          1           0       -5.831988    7.099734   -2.708650
    140          1           0       -3.990085    7.309929   -2.808338
    141          1           0       -4.828730    6.880550   -1.289871
    142          1           0       -2.612312    0.762899   -4.179923
    143          1           0       -3.821708   -1.907554   -4.692556
    144          1           0       -3.157252    0.920942   -6.372449
    145          1           0       -4.883075    0.920095   -5.864942
    146          1           0       -4.137171   -0.539640   -6.275344
    147          1           0       -1.349837   -1.509706   -4.371066
    148          1           0       -2.004794   -2.866514   -3.473793
    149          1           0       -1.118960   -0.196275   -2.656950
    150          1           0       -0.739179   -1.768718   -1.864488
    151          1           0       -2.335877   -0.932214   -1.609312
    152          1           0       -5.705637   -5.883478   -0.169292
    153          1           0       -4.970051   -5.264445   -1.683190
    154          1           0       -6.746410   -5.603970   -1.644051
    155          1           0      -10.049333   -3.023314    1.311534
    156          1           0      -11.089967   -3.749983    5.431227
    157          1           0      -10.939518   -1.879338    5.386342
    158          1           0       -9.602212   -3.011243    5.706724
 ---------------------------------------------------------------------

 SCF Done:  E(RCAM-B3LYP) =  -4069.81197853     A.U. after   19 cycles

 Excitation energies and oscillator strengths:

 Excited State   1:      Singlet-A      1.6649 eV  744.70 nm  f=0.0104  <S**2>=0.000
     309 -> 315       -0.10862
     310 -> 316        0.13237
     311 -> 313       -0.43396
     312 -> 314        0.53212
 This state for optimization and/or second-order correction.
 Total Energy, E(TD-HF/TD-DFT) =  -4069.75079544
 Copying the excited state density for this state as the 1-particle RhoCI density.

 Excited State   2:      Singlet-A      1.6890 eV  734.08 nm  f=0.7337  <S**2>=0.000
     309 -> 315        0.13796
     310 -> 316        0.11182
     311 -> 313        0.53094
     312 -> 314        0.43308

 Excited State   3:      Singlet-A      2.1848 eV  567.49 nm  f=0.0710  <S**2>=0.000
     309 -> 313        0.13639
     310 -> 314        0.62827
     312 -> 316       -0.26601

 Excited State   4:      Singlet-A      2.1933 eV  565.29 nm  f=0.1241  <S**2>=0.000
     309 -> 313        0.62609
     310 -> 314       -0.13517
     311 -> 315       -0.27243

 Excited State   5:      Singlet-A      2.7032 eV  458.66 nm  f=0.0000  <S**2>=0.000
     312 -> 313        0.70700

 The electronic state is 1-A.
 Alpha  occ. eigenvalues --  -46.87712 -46.87543 -19.26272 -19.26263 -19.19068
 Alpha  occ. eigenvalues --  -19.19007 -19.18724 -19.18639 -19.18102 -19.17945
 Alpha  occ. eigenvalues --  -14.42386 -14.42371 -14.41363 -14.41234 -14.39317
 Alpha  occ. eigenvalues --  -14.39240 -14.38504 -14.38481 -10.39062 -10.38997
 Alpha  occ. eigenvalues --  -10.35357 -10.35320 -10.34325 -10.34122 -10.31684
 Alpha  occ. eigenvalues --  -10.31680 -10.31330 -10.31195 -10.30925 -10.30835
 Alpha  occ. eigenvalues --  -10.30488 -10.30422 -10.30279 -10.30240 -10.30113
 Alpha  occ. eigenvalues --  -10.30012 -10.29834 -10.29764 -10.29545 -10.29325
 Alpha  occ. eigenvalues --  -10.29287 -10.29165 -10.28696 -10.28630 -10.28582
 Alpha  occ. eigenvalues --  -10.28518 -10.28299 -10.28286 -10.28055 -10.28049
 Alpha  occ. eigenvalues --  -10.27889 -10.27709 -10.27646 -10.27559 -10.27497
 Alpha  occ. eigenvalues --  -10.27396 -10.27384 -10.27384 -10.27374 -10.27358
 Alpha  occ. eigenvalues --  -10.27352 -10.27337 -10.27328 -10.27230 -10.27105
 Alpha  occ. eigenvalues --  -10.26950 -10.26671 -10.26610 -10.26367 -10.26310
 Alpha  occ. eigenvalues --  -10.26174 -10.26056 -10.25944 -10.25928 -10.25860
 Alpha  occ. eigenvalues --  -10.25796 -10.25748 -10.25695 -10.25347 -10.25291
 Alpha  occ. eigenvalues --  -10.24760 -10.24752 -10.24703 -10.24575 -10.24539
 Alpha  occ. eigenvalues --  -10.24406  -3.16455  -3.16293  -1.91336  -1.91175
 Alpha  occ. eigenvalues --   -1.90923  -1.90765  -1.90764  -1.90601  -1.16620
 Alpha  occ. eigenvalues --   -1.16556  -1.08564  -1.08552  -1.07125  -1.06894
 Alpha  occ. eigenvalues --   -1.06853  -1.06628  -1.04503  -1.04386  -1.03676
 Alpha  occ. eigenvalues --   -1.03547  -1.03149  -1.02917  -1.02327  -1.01993
 Alpha  occ. eigenvalues --   -0.91900  -0.91877  -0.89423  -0.89339  -0.89128
 Alpha  occ. eigenvalues --   -0.89054  -0.88191  -0.88061  -0.87784  -0.87668
 Alpha  occ. eigenvalues --   -0.87596  -0.87571  -0.87183  -0.87027  -0.84918
 Alpha  occ. eigenvalues --   -0.84901  -0.83839  -0.83704  -0.82871  -0.82831
 Alpha  occ. eigenvalues --   -0.82581  -0.82550  -0.81533  -0.81489  -0.80527
 Alpha  occ. eigenvalues --   -0.80337  -0.78709  -0.78528  -0.77137  -0.77028
 Alpha  occ. eigenvalues --   -0.76872  -0.76776  -0.75861  -0.75736  -0.74813
 Alpha  occ. eigenvalues --   -0.74670  -0.72689  -0.72575  -0.71596  -0.71471
 Alpha  occ. eigenvalues --   -0.69798  -0.69555  -0.68804  -0.68724  -0.67563
 Alpha  occ. eigenvalues --   -0.67493  -0.67158  -0.67112  -0.65224  -0.65170
 Alpha  occ. eigenvalues --   -0.64782  -0.64648  -0.64549  -0.64541  -0.64177
 Alpha  occ. eigenvalues --   -0.64045  -0.62250  -0.62168  -0.60351  -0.60232
 Alpha  occ. eigenvalues --   -0.59736  -0.59696  -0.58909  -0.58874  -0.58427
 Alpha  occ. eigenvalues --   -0.58308  -0.57530  -0.57449  -0.57227  -0.57111
 Alpha  occ. eigenvalues --   -0.56231  -0.56090  -0.55940  -0.55789  -0.55440
 Alpha  occ. eigenvalues --   -0.55359  -0.55261  -0.55107  -0.54457  -0.54343
 Alpha  occ. eigenvalues --   -0.53836  -0.53818  -0.53215  -0.53152  -0.53114
 Alpha  occ. eigenvalues --   -0.53039  -0.52853  -0.52793  -0.52675  -0.52588
 Alpha  occ. eigenvalues --   -0.52326  -0.52171  -0.51829  -0.51747  -0.51569
 Alpha  occ. eigenvalues --   -0.51553  -0.51121  -0.51073  -0.50475  -0.50386
 Alpha  occ. eigenvalues --   -0.49934  -0.49879  -0.49835  -0.49713  -0.49444
 Alpha  occ. eigenvalues --   -0.49396  -0.49142  -0.49104  -0.49032  -0.48999
 Alpha  occ. eigenvalues --   -0.48531  -0.48457  -0.48377  -0.48365  -0.48256
 Alpha  occ. eigenvalues --   -0.48244  -0.47618  -0.47485  -0.47217  -0.47015
 Alpha  occ. eigenvalues --   -0.46714  -0.46580  -0.46496  -0.46455  -0.46277
 Alpha  occ. eigenvalues --   -0.46145  -0.46086  -0.45962  -0.45759  -0.45706
 Alpha  occ. eigenvalues --   -0.45111  -0.45073  -0.44510  -0.44425  -0.44416
 Alpha  occ. eigenvalues --   -0.44356  -0.44058  -0.44027  -0.44019  -0.43946
 Alpha  occ. eigenvalues --   -0.43924  -0.43849  -0.43437  -0.43432  -0.43311
 Alpha  occ. eigenvalues --   -0.43278  -0.42950  -0.42827  -0.42785  -0.42662
 Alpha  occ. eigenvalues --   -0.42560  -0.42395  -0.41922  -0.41799  -0.41629
 Alpha  occ. eigenvalues --   -0.41554  -0.41469  -0.41338  -0.41066  -0.40882
 Alpha  occ. eigenvalues --   -0.40796  -0.40739  -0.40640  -0.40581  -0.40480
 Alpha  occ. eigenvalues --   -0.40328  -0.40185  -0.40144  -0.39326  -0.39209
 Alpha  occ. eigenvalues --   -0.38379  -0.38205  -0.37696  -0.37558  -0.37230
 Alpha  occ. eigenvalues --   -0.37199  -0.37126  -0.37093  -0.36674  -0.36666
 Alpha  occ. eigenvalues --   -0.36128  -0.36087  -0.34205  -0.34136  -0.33765
 Alpha  occ. eigenvalues --   -0.33746  -0.33107  -0.33059  -0.31255  -0.31198
 Alpha  occ. eigenvalues --   -0.30956  -0.30861  -0.29964  -0.29849  -0.29362
 Alpha  occ. eigenvalues --   -0.29239  -0.29222  -0.29096  -0.23999  -0.23919
 Alpha  occ. eigenvalues --   -0.21043  -0.21000
 Alpha virt. eigenvalues --   -0.08690  -0.08680  -0.01664  -0.01568   0.00026
 Alpha virt. eigenvalues --    0.00064   0.02278   0.02323   0.03219   0.03361
 Alpha virt. eigenvalues --    0.04786   0.04835   0.05123   0.05260   0.06217

 Mulliken charges:
               1
     1  Mg   0.838958
     2  C   -0.003315
     3  C   -0.094073
     4  C   -0.045734
     5  C   -0.063731
     6  N   -0.256788
     7  C   -0.052620
     8  C   -0.014021
     9  C   -0.087012
    10  C    0.046292
    11  C    0.104820
    12  C    0.053485
    13  C   -0.071564
    14  H    0.035162
    15  N   -0.433159
    16  C    0.168554
    17  C   -0.176972
    18  C   -0.003835
    19  C    0.148802
    20  C    0.110127
    21  C    0.012506
    22  O   -0.249710
    23  C    0.062306
    24  N   -0.341189
    25  C    0.041316
    26  C   -0.028153
    27  C   -0.024015
    28  C    0.074880
    29  C    0.076217
    30  C    0.035065
    31  C   -0.004601
    32  N   -0.310426
    33  C    0.080357
    34  C   -0.169540
    35  C    0.008237
    36  C    0.082896
    37  C    0.127291
    38  C    0.045928
    39  O   -0.188669
    40  C   -0.005315
    41  C    0.213031
    42  O   -0.257902
    43  O   -0.304587
    44  C    0.157899
    45  H   -0.017681
    46  H   -0.016827
    47  H   -0.041238
    48  H    0.000798
    49  H   -0.004028
    50  H    0.025402
    51  H    0.016522
    52  H    0.016573
    53  H    0.011462
    54  H    0.043447
    55  H    0.017976
    56  H    0.018225
    57  H    0.005794
    58  H    0.026641
    59  H    0.040193
    60  H    0.037161
    61  H    0.035449
    62  H    0.032233
    63  H    0.016701
    64  H    0.009368
    65  H    0.023136
    66  H    0.012377
    67  H    0.004710
    68  H    0.006323
    69  H    0.004963
    70  H    0.008699
    71  H    0.019139
    72  H    0.028868
    73  H    0.047676
    74  H    0.009464
    75  H    0.045862
    76  H    0.035115
    77  H    0.043020
    78  H    0.046371
    79  H    0.052904
    80  Mg   0.837989
    81  C   -0.016998
    82  C   -0.088020
    83  C   -0.045532
    84  C   -0.064556
    85  N   -0.254577
    86  C   -0.049827
    87  C   -0.015085
    88  C   -0.090449
    89  C    0.045694
    90  C    0.114449
    91  C    0.062553
    92  C   -0.077765
    93  H    0.034692
    94  N   -0.423366
    95  C    0.162816
    96  C   -0.174887
    97  C   -0.008084
    98  C    0.152085
    99  C    0.099454
   100  C    0.015406
   101  O   -0.253886
   102  C    0.061325
   103  N   -0.350196
   104  C    0.037606
   105  C   -0.019528
   106  C   -0.035282
   107  C    0.089325
   108  C    0.073960
   109  C    0.034781
   110  C   -0.008424
   111  N   -0.324228
   112  C    0.078766
   113  C   -0.162524
   114  C    0.002148
   115  C    0.096443
   116  C    0.131270
   117  C    0.042531
   118  O   -0.187826
   119  C    0.000863
   120  C    0.211244
   121  O   -0.250943
   122  O   -0.305682
   123  C    0.152082
   124  H   -0.020052
   125  H   -0.016060
   126  H   -0.039380
   127  H   -0.000801
   128  H   -0.004537
   129  H    0.022353
   130  H    0.014362
   131  H    0.015983
   132  H    0.013949
   133  H    0.037723
   134  H    0.020671
   135  H    0.019474
   136  H    0.008599
   137  H    0.025683
   138  H    0.039534
   139  H    0.038115
   140  H    0.035501
   141  H    0.034046
   142  H    0.014257
   143  H    0.012190
   144  H    0.024333
   145  H    0.011155
   146  H    0.005560
   147  H    0.006432
   148  H    0.005402
   149  H    0.009631
   150  H    0.022930
   151  H    0.028788
   152  H    0.046468
   153  H    0.009748
   154  H    0.046624
   155  H    0.034809
   156  H    0.043786
   157  H    0.049357
   158  H    0.053555
 Sum of Mulliken charges =  -0.00000

 Dipole moment (field-independent basis, Debye):
    X=             -0.0175    Y=              6.9568    Z=             -2.8059  Tot=              7.5014
 Quadrupole moment (field-independent basis, Debye-Ang):
   XX=           -435.6708   YY=           -539.6236   ZZ=           -478.8634
   XY=            -21.9268   XZ=            -21.2788   YZ=              4.0867

 Normal termination of Gaussian 16 at Sat Sep 11 05:05:31 2021.
