 Gaussian 16, Revision A.03,
 Gaussian 16:  ES64L-G16RevA.03 25-Dec-2016

 -----------------------------------
 #p cam-b3lyp/Def2SVP td=(nstates=5)
 -----------------------------------

 --------------------------------
 TDDFT excited states in gaussian
 --------------------------------
 Symbolic Z-matrix:
 Charge =  0 Multiplicity = 1

                         Standard orientation:
 ---------------------------------------------------------------------
 Center     Atomic      Atomic             Coordinates (Angstroms)
 Number     Number       Type             X           Y           Z
 ---------------------------------------------------------------------
      1         12           0       16.053879   -0.638862    0.338295
      2          6           0       16.275456    2.421109   -1.505532
      3          6           0       16.882545    1.151985    3.122042
      4          6           0       16.309589   -3.388094    1.898088
      5          6           0       16.365197   -2.319480   -2.698852
      6          7           0       16.496570    1.508727    0.642484
      7          6           0       16.488875    2.586793   -0.135260
      8          6           0       16.654067    3.919575    0.654536
      9          6           0       17.389224    3.354201    1.951415
     10          6           0       16.865028    1.929246    1.925969
     11          6           0       18.908856    3.320875    1.824482
     12          6           0       15.276902    4.571581    1.015141
     13          6           0       15.347264    6.024612    1.493788
     14          1           0       14.274454    6.936020    1.125327
     15          7           0       16.045798   -1.017373    2.277242
     16          6           0       16.397957   -0.165632    3.270121
     17          6           0       16.221540   -0.915695    4.532248
     18          6           0       15.920250   -2.331512    4.181848
     19          6           0       16.108108   -2.307638    2.753731
     20          6           0       16.294012   -0.277702    5.885563
     21          6           0       15.535872   -3.520192    5.004907
     22          8           0       15.546854   -4.707698    4.531322
     23          6           0       15.227334   -3.264893    6.423593
     24          7           0       16.521651   -2.579585   -0.271967
     25          6           0       16.506130   -3.598124    0.594821
     26          6           0       16.591937   -4.918195   -0.112279
     27          6           0       16.424230   -4.598253   -1.667677
     28          6           0       16.348696   -3.053721   -1.584094
     29          6           0       17.886456   -5.712828    0.108604
     30          6           0       15.301148   -5.351809   -2.423495
     31          6           0       13.949410   -4.895899   -1.921452
     32          7           0       16.103592   -0.086053   -1.760032
     33          6           0       16.263009   -0.947270   -2.855280
     34          6           0       16.342902   -0.102446   -4.061081
     35          6           0       16.240381    1.200870   -3.578691
     36          6           0       16.131400    1.173224   -2.158955
     37          6           0       16.549415   -0.565145   -5.390629
     38          6           0       16.222312    2.611533   -3.930203
     39          8           0       16.187010    3.241131   -4.988434
     40          6           0       16.366844    3.463160   -2.592418
     41          6           0       15.317157    4.540418   -2.623768
     42          8           0       14.104360    4.254020   -2.556948
     43          8           0       15.905672    5.738650   -2.488003
     44          6           0       14.916966    6.849763   -2.481378
     45          1           0       17.362902    1.563456    4.011923
     46          1           0       16.292938   -4.364900    2.385951
     47          1           0       16.377563   -2.777471   -3.689582
     48          1           0       17.282844    4.663254    0.164632
     49          1           0       17.062221    3.862116    2.858505
     50          1           0       19.229758    3.570829    0.813312
     51          1           0       19.199529    2.300419    2.074823
     52          1           0       19.374460    3.958151    2.576725
     53          1           0       14.879923    4.099270    1.913690
     54          1           0       14.585241    4.501890    0.174859
     55          1           0       16.318427    6.469624    1.275352
     56          1           0       15.285869    6.029057    2.582095
     57          1           0       16.692868    0.734430    5.830338
     58          1           0       17.036905   -0.831487    6.459271
     59          1           0       15.335170   -0.303938    6.403506
     60          1           0       16.095389   -2.814277    6.905230
     61          1           0       14.886955   -4.215332    6.833054
     62          1           0       14.426277   -2.527561    6.483576
     63          1           0       15.790016   -5.584048    0.203930
     64          1           0       17.327220   -4.830618   -2.232734
     65          1           0       17.722979   -6.713600    0.509149
     66          1           0       18.532072   -5.129675    0.764655
     67          1           0       18.514522   -5.818357   -0.775599
     68          1           0       15.369149   -6.422558   -2.234236
     69          1           0       15.334027   -5.203054   -3.502866
     70          1           0       13.800973   -5.507635   -1.032307
     71          1           0       13.179182   -5.097038   -2.666772
     72          1           0       13.974660   -3.854500   -1.599991
     73          1           0       15.858700   -0.003771   -6.019708
     74          1           0       16.373515   -1.637812   -5.468400
     75          1           0       17.597150   -0.302229   -5.535481
     76          1           0       17.375731    3.874576   -2.590190
     77          1           0       15.207074    7.542283   -3.271623
     78          1           0       14.886191    7.231084   -1.460568
     79          1           0       13.903382    6.594947   -2.792915
     80         12           0      -15.688954   -0.722248   -0.128268
     81          6           0      -18.188148    1.800381    0.390837
     82          6           0      -13.451583    1.806080   -0.614428
     83          6           0      -13.570172   -2.904407   -1.031812
     84          6           0      -18.282492   -2.970841   -0.730833
     85          7           0      -15.911344    1.478055   -0.090146
     86          6           0      -16.895338    2.322949    0.178710
     87          6           0      -16.453973    3.806039    0.302033
     88          6           0      -15.116593    3.733401   -0.583964
     89          6           0      -14.777948    2.256177   -0.394699
     90          6           0      -15.360441    3.981800   -2.063210
     91          6           0      -16.139740    4.214903    1.783955
     92          6           0      -16.002961    5.720595    2.020440
     93          1           0      -16.478448    6.272400    3.286100
     94          7           0      -13.711149   -0.617175   -0.253991
     95          6           0      -12.964737    0.493528   -0.428581
     96          6           0      -11.567414    0.035914   -0.475893
     97          6           0      -11.561090   -1.452259   -0.480204
     98          6           0      -12.978843   -1.721510   -0.612735
     99          6           0      -10.400376    0.979037   -0.431625
    100          6           0      -10.459991   -2.465337   -0.393883
    101          8           0      -10.662230   -3.703598   -0.655853
    102          6           0       -9.118093   -1.950363   -0.084662
    103          7           0      -15.883193   -2.603167   -0.992421
    104          6           0      -14.803764   -3.367268   -1.235123
    105          6           0      -15.204123   -4.777027   -1.599377
    106          6           0      -16.775250   -4.864776   -1.314017
    107          6           0      -17.039549   -3.400302   -0.900646
    108          6           0      -14.925110   -5.195920   -3.042663
    109          6           0      -17.256359   -5.998342   -0.367320
    110          6           0      -16.758259   -5.743995    1.037168
    111          7           0      -17.844797   -0.683167    0.009141
    112          6           0      -18.739245   -1.726568   -0.315455
    113          6           0      -20.107287   -1.188445   -0.169512
    114          6           0      -19.912067    0.147931    0.210601
    115          6           0      -18.520557    0.428867    0.275946
    116          6           0      -21.312931   -1.899823   -0.427334
    117          6           0      -20.566754    1.387784    0.561101
    118          8           0      -21.732179    1.729162    0.758544
    119          6           0      -19.480263    2.547889    0.570531
    120          6           0      -19.660047    3.342380    1.835033
    121          8           0      -19.445239    2.822397    2.944122
    122          8           0      -19.843221    4.637459    1.519433
    123          6           0      -20.015270    5.467685    2.741294
    124          1           0      -12.721570    2.514592   -1.006814
    125          1           0      -12.881899   -3.724580   -1.248772
    126          1           0      -19.145321   -3.636139   -0.805529
    127          1           0      -17.144859    4.522648   -0.125658
    128          1           0      -14.332549    4.360680   -0.167835
    129          1           0      -16.413600    4.049547   -2.292121
    130          1           0      -14.914201    3.142221   -2.579966
    131          1           0      -14.808373    4.866595   -2.392900
    132          1           0      -15.121569    3.891820    2.036317
    133          1           0      -16.871802    3.808817    2.454638
    134          1           0      -16.387382    6.306907    1.176989
    135          1           0      -14.939943    5.970757    2.058355
    136          1           0      -10.715186    2.016650   -0.597887
    137          1           0       -9.767641    0.745542   -1.294756
    138          1           0       -9.807919    0.873570    0.479716
    139          1           0       -8.826555   -1.225125   -0.840632
    140          1           0       -8.484088   -2.832624    0.022725
    141          1           0       -9.161233   -1.411453    0.868403
    142          1           0      -14.692529   -5.498187   -0.973852
    143          1           0      -17.347875   -5.039065   -2.236812
    144          1           0      -14.287724   -6.096918   -3.120194
    145          1           0      -14.468318   -4.361490   -3.558033
    146          1           0      -15.810039   -5.384888   -3.647984
    147          1           0      -16.832808   -6.956562   -0.678070
    148          1           0      -18.334785   -6.114690   -0.346002
    149          1           0      -15.740468   -6.144841    1.014423
    150          1           0      -17.373907   -6.271043    1.763280
    151          1           0      -16.684798   -4.669246    1.240103
    152          1           0      -21.992575   -1.663778    0.380683
    153          1           0      -21.135197   -2.970870   -0.498297
    154          1           0      -21.593440   -1.465553   -1.390660
    155          1           0      -19.641686    3.155152   -0.320949
    156          1           0      -20.963722    6.002856    2.632983
    157          1           0      -19.097246    6.080121    2.818048
    158          1           0      -20.170373    4.950490    3.680922
 ---------------------------------------------------------------------

 SCF Done:  E(RCAM-B3LYP) =  -4069.81179538     A.U. after   19 cycles

 Excitation energies and oscillator strengths:

 Excited State   1:      Singlet-A      1.6756 eV  739.93 nm  f=0.3922  <S**2>=0.000
     310 -> 316       -0.17347
     312 -> 313        0.68533
     310 <- 316       -0.10455
 This state for optimization and/or second-order correction.
 Total Energy, E(TD-HF/TD-DFT) =  -4069.75021773
 Copying the excited state density for this state as the 1-particle RhoCI density.

 Excited State   2:      Singlet-A      1.6799 eV  738.06 nm  f=0.3898  <S**2>=0.000
     309 -> 315        0.17539
     311 -> 314        0.68498
     309 <- 315        0.10504

 Excited State   3:      Singlet-A      2.1862 eV  567.12 nm  f=0.0952  <S**2>=0.000
     310 -> 313        0.64209
     312 -> 316        0.27303

 Excited State   4:      Singlet-A      2.1926 eV  565.47 nm  f=0.1049  <S**2>=0.000
     309 -> 314        0.64033
     311 -> 315       -0.27818

 Excited State   5:      Singlet-A      3.0640 eV  404.65 nm  f=0.0000  <S**2>=0.000
     312 -> 314        0.70710

 The electronic state is 1-A.
 Alpha  occ. eigenvalues --  -46.87810 -46.87659 -19.26352 -19.26305 -19.19163
 Alpha  occ. eigenvalues --  -19.19040 -19.18826 -19.18708 -19.18185 -19.18052
 Alpha  occ. eigenvalues --  -14.42497 -14.42464 -14.41463 -14.41358 -14.39416
 Alpha  occ. eigenvalues --  -14.39350 -14.38601 -14.38599 -10.39100 -10.39093
 Alpha  occ. eigenvalues --  -10.35459 -10.35384 -10.34406 -10.34229 -10.31760
 Alpha  occ. eigenvalues --  -10.31702 -10.31420 -10.31309 -10.31021 -10.30923
 Alpha  occ. eigenvalues --  -10.30584 -10.30521 -10.30397 -10.30360 -10.30219
 Alpha  occ. eigenvalues --  -10.30139 -10.29934 -10.29894 -10.29644 -10.29434
 Alpha  occ. eigenvalues --  -10.29399 -10.29267 -10.28765 -10.28718 -10.28655
 Alpha  occ. eigenvalues --  -10.28559 -10.28403 -10.28379 -10.28139 -10.28132
 Alpha  occ. eigenvalues --  -10.28000 -10.27807 -10.27741 -10.27667 -10.27597
 Alpha  occ. eigenvalues --  -10.27518 -10.27512 -10.27493 -10.27483 -10.27464
 Alpha  occ. eigenvalues --  -10.27460 -10.27457 -10.27418 -10.27375 -10.27175
 Alpha  occ. eigenvalues --  -10.27051 -10.26723 -10.26693 -10.26419 -10.26403
 Alpha  occ. eigenvalues --  -10.26248 -10.26194 -10.26138 -10.26032 -10.26023
 Alpha  occ. eigenvalues --  -10.25934 -10.25858 -10.25853 -10.25445 -10.25396
 Alpha  occ. eigenvalues --  -10.24872 -10.24847 -10.24801 -10.24732 -10.24698
 Alpha  occ. eigenvalues --  -10.24689  -3.16553  -3.16409  -1.91435  -1.91291
 Alpha  occ. eigenvalues --   -1.91021  -1.90880  -1.90863  -1.90717  -1.16654
 Alpha  occ. eigenvalues --   -1.16646  -1.08659  -1.08644  -1.07227  -1.06960
 Alpha  occ. eigenvalues --   -1.06948  -1.06663  -1.04595  -1.04494  -1.03774
 Alpha  occ. eigenvalues --   -1.03662  -1.03247  -1.03038  -1.02425  -1.02110
 Alpha  occ. eigenvalues --   -0.91987  -0.91987  -0.89532  -0.89494  -0.89203
 Alpha  occ. eigenvalues --   -0.89150  -0.88299  -0.88220  -0.87884  -0.87794
 Alpha  occ. eigenvalues --   -0.87687  -0.87683  -0.87286  -0.87115  -0.84999
 Alpha  occ. eigenvalues --   -0.84997  -0.83948  -0.83876  -0.82978  -0.82926
 Alpha  occ. eigenvalues --   -0.82663  -0.82650  -0.81603  -0.81597  -0.80611
 Alpha  occ. eigenvalues --   -0.80442  -0.78810  -0.78633  -0.77232  -0.77143
 Alpha  occ. eigenvalues --   -0.76950  -0.76898  -0.75939  -0.75838  -0.74910
 Alpha  occ. eigenvalues --   -0.74802  -0.72788  -0.72698  -0.71686  -0.71580
 Alpha  occ. eigenvalues --   -0.69919  -0.69758  -0.68888  -0.68826  -0.67655
 Alpha  occ. eigenvalues --   -0.67600  -0.67235  -0.67197  -0.65302  -0.65271
 Alpha  occ. eigenvalues --   -0.64868  -0.64770  -0.64653  -0.64635  -0.64282
 Alpha  occ. eigenvalues --   -0.64203  -0.62315  -0.62279  -0.60454  -0.60336
 Alpha  occ. eigenvalues --   -0.59819  -0.59795  -0.59001  -0.58992  -0.58518
 Alpha  occ. eigenvalues --   -0.58425  -0.57601  -0.57555  -0.57322  -0.57235
 Alpha  occ. eigenvalues --   -0.56324  -0.56203  -0.55997  -0.55887  -0.55533
 Alpha  occ. eigenvalues --   -0.55449  -0.55353  -0.55248  -0.54539  -0.54488
 Alpha  occ. eigenvalues --   -0.53911  -0.53910  -0.53312  -0.53236  -0.53226
 Alpha  occ. eigenvalues --   -0.53140  -0.52930  -0.52902  -0.52769  -0.52662
 Alpha  occ. eigenvalues --   -0.52450  -0.52401  -0.51929  -0.51886  -0.51656
 Alpha  occ. eigenvalues --   -0.51632  -0.51211  -0.51201  -0.50583  -0.50468
 Alpha  occ. eigenvalues --   -0.50043  -0.49977  -0.49931  -0.49865  -0.49529
 Alpha  occ. eigenvalues --   -0.49484  -0.49229  -0.49201  -0.49111  -0.49104
 Alpha  occ. eigenvalues --   -0.48608  -0.48558  -0.48473  -0.48459  -0.48375
 Alpha  occ. eigenvalues --   -0.48334  -0.47709  -0.47592  -0.47310  -0.47115
 Alpha  occ. eigenvalues --   -0.46811  -0.46708  -0.46571  -0.46552  -0.46373
 Alpha  occ. eigenvalues --   -0.46269  -0.46177  -0.46086  -0.45838  -0.45823
 Alpha  occ. eigenvalues --   -0.45213  -0.45208  -0.44593  -0.44520  -0.44514
 Alpha  occ. eigenvalues --   -0.44475  -0.44158  -0.44126  -0.44103  -0.44077
 Alpha  occ. eigenvalues --   -0.44034  -0.43936  -0.43554  -0.43511  -0.43399
 Alpha  occ. eigenvalues --   -0.43385  -0.43041  -0.42931  -0.42902  -0.42716
 Alpha  occ. eigenvalues --   -0.42669  -0.42552  -0.42023  -0.41964  -0.41718
 Alpha  occ. eigenvalues --   -0.41669  -0.41549  -0.41458  -0.41155  -0.40988
 Alpha  occ. eigenvalues --   -0.40883  -0.40835  -0.40719  -0.40696  -0.40584
 Alpha  occ. eigenvalues --   -0.40493  -0.40251  -0.40225  -0.39452  -0.39426
 Alpha  occ. eigenvalues --   -0.38481  -0.38350  -0.37765  -0.37654  -0.37333
 Alpha  occ. eigenvalues --   -0.37279  -0.37265  -0.37198  -0.36773  -0.36731
 Alpha  occ. eigenvalues --   -0.36217  -0.36208  -0.34300  -0.34253  -0.33864
 Alpha  occ. eigenvalues --   -0.33790  -0.33200  -0.33175  -0.31356  -0.31267
 Alpha  occ. eigenvalues --   -0.31049  -0.30972  -0.30045  -0.29956  -0.29462
 Alpha  occ. eigenvalues --   -0.29336  -0.29325  -0.29211  -0.24094  -0.24035
 Alpha  occ. eigenvalues --   -0.21141  -0.21116
 Alpha virt. eigenvalues --   -0.08790  -0.08788  -0.01763  -0.01682  -0.00071
 Alpha virt. eigenvalues --   -0.00025   0.02186   0.02207   0.03106   0.03227
 Alpha virt. eigenvalues --    0.04703   0.04730   0.05079   0.05163   0.06160

 Mulliken charges:
               1
     1  Mg   0.838716
     2  C   -0.002985
     3  C   -0.094112
     4  C   -0.045865
     5  C   -0.063936
     6  N   -0.256761
     7  C   -0.052499
     8  C   -0.014004
     9  C   -0.087003
    10  C    0.046298
    11  C    0.104808
    12  C    0.053482
    13  C   -0.071784
    14  H    0.036028
    15  N   -0.433151
    16  C    0.168427
    17  C   -0.177148
    18  C   -0.003980
    19  C    0.148717
    20  C    0.110180
    21  C    0.012303
    22  O   -0.249579
    23  C    0.062466
    24  N   -0.341131
    25  C    0.041247
    26  C   -0.028167
    27  C   -0.023989
    28  C    0.074822
    29  C    0.076153
    30  C    0.035133
    31  C   -0.004512
    32  N   -0.310455
    33  C    0.080382
    34  C   -0.169735
    35  C    0.008345
    36  C    0.082976
    37  C    0.127316
    38  C    0.046097
    39  O   -0.188495
    40  C   -0.005349
    41  C    0.212872
    42  O   -0.257155
    43  O   -0.304775
    44  C    0.157715
    45  H   -0.017584
    46  H   -0.016793
    47  H   -0.041485
    48  H    0.000931
    49  H   -0.004037
    50  H    0.025474
    51  H    0.016472
    52  H    0.016673
    53  H    0.011200
    54  H    0.044078
    55  H    0.017893
    56  H    0.017963
    57  H    0.005872
    58  H    0.026865
    59  H    0.039563
    60  H    0.037364
    61  H    0.035707
    62  H    0.031492
    63  H    0.016584
    64  H    0.009476
    65  H    0.023255
    66  H    0.012552
    67  H    0.004771
    68  H    0.006406
    69  H    0.004723
    70  H    0.008813
    71  H    0.018143
    72  H    0.028946
    73  H    0.047525
    74  H    0.009122
    75  H    0.046016
    76  H    0.035159
    77  H    0.042928
    78  H    0.046402
    79  H    0.053616
    80  Mg   0.837785
    81  C   -0.016840
    82  C   -0.087768
    83  C   -0.045513
    84  C   -0.064870
    85  N   -0.254548
    86  C   -0.049867
    87  C   -0.015072
    88  C   -0.090526
    89  C    0.045735
    90  C    0.114367
    91  C    0.062522
    92  C   -0.077900
    93  H    0.034863
    94  N   -0.423502
    95  C    0.162936
    96  C   -0.174579
    97  C   -0.007764
    98  C    0.152144
    99  C    0.099340
   100  C    0.015606
   101  O   -0.253138
   102  C    0.061186
   103  N   -0.350046
   104  C    0.037538
   105  C   -0.019837
   106  C   -0.034827
   107  C    0.088894
   108  C    0.073640
   109  C    0.034757
   110  C   -0.007690
   111  N   -0.324082
   112  C    0.078411
   113  C   -0.163162
   114  C    0.002223
   115  C    0.096170
   116  C    0.131488
   117  C    0.042348
   118  O   -0.187934
   119  C    0.000955
   120  C    0.211246
   121  O   -0.251025
   122  O   -0.305630
   123  C    0.152029
   124  H   -0.019582
   125  H   -0.015522
   126  H   -0.040484
   127  H   -0.000662
   128  H   -0.004292
   129  H    0.022440
   130  H    0.014458
   131  H    0.016336
   132  H    0.013928
   133  H    0.037658
   134  H    0.020794
   135  H    0.019622
   136  H    0.008797
   137  H    0.026288
   138  H    0.039851
   139  H    0.038359
   140  H    0.036495
   141  H    0.033881
   142  H    0.014416
   143  H    0.012406
   144  H    0.025184
   145  H    0.011675
   146  H    0.005668
   147  H    0.006269
   148  H    0.003623
   149  H    0.010954
   150  H    0.017911
   151  H    0.030104
   152  H    0.045976
   153  H    0.008496
   154  H    0.046918
   155  H    0.035012
   156  H    0.043894
   157  H    0.049503
   158  H    0.053565
 Sum of Mulliken charges =  -0.00000

 Dipole moment (field-independent basis, Debye):
    X=              5.5235    Y=              2.7302    Z=              2.3350  Tot=              6.5890
 Quadrupole moment (field-independent basis, Debye-Ang):
   XX=           -579.6050   YY=           -474.1712   ZZ=           -514.0057
   XY=              7.6190   XZ=            103.0582   YZ=             38.4029

 Normal termination of Gaussian 16 at Sun Sep 12 22:38:28 2021.
