 Gaussian 16, Revision A.03,
 Gaussian 16:  ES64L-G16RevA.03 25-Dec-2016

 -----------------------------------
 #p cam-b3lyp/Def2SVP td=(nstates=5)
 -----------------------------------

 --------------------------------
 TDDFT excited states in gaussian
 --------------------------------
 Symbolic Z-matrix:
 Charge =  0 Multiplicity = 1

                         Standard orientation:
 ---------------------------------------------------------------------
 Center     Atomic      Atomic             Coordinates (Angstroms)
 Number     Number       Type             X           Y           Z
 ---------------------------------------------------------------------
      1         12           0       -6.446687   -1.047716    0.168063
      2          6           0       -7.226726    2.440847   -0.015471
      3          6           0       -7.341627   -1.268509   -3.117268
      4          6           0       -6.201229   -4.198926    0.425445
      5          6           0       -6.709782   -0.773420    3.632338
      6          7           0       -7.173542    0.464893   -1.275663
      7          6           0       -7.372032    1.778760   -1.236607
      8          6           0       -7.675782    2.399478   -2.632966
      9          6           0       -8.235661    1.100884   -3.369301
     10          6           0       -7.514324    0.034826   -2.563622
     11          6           0       -9.739626    0.907662   -3.204208
     12          6           0       -6.386439    2.944710   -3.334427
     13          6           0       -6.634165    3.851725   -4.543273
     14          1           0       -5.730254    4.967504   -4.778498
     15          7           0       -6.257775   -2.436069   -1.224647
     16          6           0       -6.663562   -2.349956   -2.514301
     17          6           0       -6.298988   -3.637717   -3.143140
     18          6           0       -5.820248   -4.549899   -2.067582
     19          6           0       -6.102260   -3.763528   -0.893926
     20          6           0       -6.374308   -3.883256   -4.618873
     21          6           0       -5.215723   -5.918126   -2.092797
     22          8           0       -5.086261   -6.624126   -1.034791
     23          6           0       -4.855407   -6.452791   -3.418447
     24          7           0       -6.668598   -2.362889    1.773899
     25          6           0       -6.449962   -3.674242    1.627145
     26          6           0       -6.390492   -4.369813    2.954768
     27          6           0       -6.372389   -3.215654    4.058100
     28          6           0       -6.514996   -1.991042    3.120945
     29          6           0       -7.539772   -5.342647    3.252697
     30          6           0       -5.204089   -3.233729    5.075532
     31          6           0       -3.902368   -2.931212    4.367645
     32          7           0       -6.712219    0.565129    1.596092
     33          6           0       -6.816872    0.448639    2.989703
     34          6           0       -7.096126    1.797310    3.516174
     35          6           0       -7.151321    2.607100    2.383461
     36          6           0       -6.947195    1.810033    1.221002
     37          6           0       -7.319997    2.129060    4.881552
     38          6           0       -7.359730    3.956164    1.883012
     39          8           0       -7.484598    5.065017    2.404880
     40          6           0       -7.538008    3.882254    0.302322
     41          6           0       -6.658864    4.941726   -0.304253
     42          8           0       -5.415701    4.859937   -0.231994
     43          8           0       -7.403839    5.751385   -1.072372
     44          6           0       -6.587312    6.807788   -1.727697
     45          1           0       -7.817248   -1.503957   -4.071359
     46          1           0       -6.012189   -5.264821    0.568865
     47          1           0       -6.720546   -0.596466    4.709382
     48          1           0       -8.435768    3.181023   -2.627337
     49          1           0       -7.926869    1.060301   -4.413677
     50          1           0      -10.158421    1.625200   -2.498751
     51          1           0       -9.863230   -0.109299   -2.831375
     52          1           0      -10.242200    0.935372   -4.171384
     53          1           0       -5.867814    2.120499   -3.824086
     54          1           0       -5.748208    3.464128   -2.618752
     55          1           0       -7.671483    4.185032   -4.585553
     56          1           0       -6.503254    3.258183   -5.448133
     57          1           0       -6.917635   -3.089315   -5.129754
     58          1           0       -6.990629   -4.770437   -4.762989
     59          1           0       -5.390001   -4.043983   -5.058916
     60          1           0       -5.746094   -6.489139   -4.046064
     61          1           0       -4.355626   -7.403028   -3.233733
     62          1           0       -4.166810   -5.760165   -3.903269
     63          1           0       -5.482081   -4.964080    3.044548
     64          1           0       -7.267343   -3.230826    4.680597
     65          1           0       -7.207991   -6.356523    3.477823
     66          1           0       -8.218558   -5.333494    2.400372
     67          1           0       -8.202346   -5.033627    4.060731
     68          1           0       -5.104556   -4.222946    5.521053
     69          1           0       -5.328346   -2.515804    5.886331
     70          1           0       -3.609671   -3.902601    3.970701
     71          1           0       -3.161423   -2.559677    5.076287
     72          1           0       -4.056462   -2.265187    3.518439
     73          1           0       -6.759900    3.045167    5.068659
     74          1           0       -6.996761    1.325158    5.542508
     75          1           0       -8.401878    2.260927    4.882547
     76          1           0       -8.593350    4.059266    0.097280
     77          1           0       -7.025096    7.767835   -1.454038
     78          1           0       -6.545358    6.554416   -2.787153
     79          1           0       -5.570066    6.931642   -1.354591
     80         12           0        6.614872    1.091502   -0.000766
     81          6           0        6.975265   -2.428013   -0.602565
     82          6           0        5.897462    0.311920    3.241477
     83          6           0        5.850740    4.136634    0.458260
     84          6           0        6.230846    1.499252   -3.440539
     85          7           0        6.484767   -0.844096    1.061666
     86          6           0        6.702500   -2.111542    0.744603
     87          6           0        6.702725   -3.085929    1.952962
     88          6           0        5.803946   -2.218059    2.961859
     89          6           0        6.102455   -0.822924    2.416738
     90          6           0        4.313891   -2.478841    2.816697
     91          6           0        8.143056   -3.325183    2.527607
     92          6           0        8.259157   -4.497304    3.504548
     93          1           0        9.485319   -5.290378    3.497568
     94          7           0        6.449913    2.135015    1.679244
     95          6           0        6.177359    1.656127    2.911183
     96          6           0        6.143680    2.827911    3.799962
     97          6           0        6.255375    4.054064    2.964038
     98          6           0        6.166803    3.477631    1.637400
     99          6           0        6.095693    2.713400    5.295965
    100          6           0        6.402949    5.506532    3.302806
    101          8           0        6.241612    6.423236    2.421645
    102          6           0        6.649682    5.828308    4.715986
    103          7           0        5.903267    2.573858   -1.273011
    104          6           0        5.703787    3.827690   -0.830256
    105          6           0        5.457019    4.778422   -1.977250
    106          6           0        5.773301    3.942753   -3.303603
    107          6           0        6.075308    2.567028   -2.669930
    108          6           0        4.046554    5.360596   -2.067068
    109          6           0        6.813063    4.548412   -4.285823
    110          6           0        8.185336    4.544726   -3.651598
    111          7           0        6.783059   -0.172124   -1.745193
    112          6           0        6.555106    0.194998   -3.089569
    113          6           0        6.680356   -1.031740   -3.903111
    114          6           0        6.951915   -2.039539   -2.965519
    115          6           0        6.973015   -1.483889   -1.657727
    116          6           0        6.498018   -1.117684   -5.312180
    117          6           0        7.214992   -3.448944   -2.783680
    118          8           0        7.403705   -4.401890   -3.538675
    119          6           0        7.116626   -3.785480   -1.233367
    120          6           0        8.317994   -4.609947   -0.859903
    121          8           0        9.460716   -4.122144   -0.913321
    122          8           0        7.905285   -5.760231   -0.296977
    123          6           0        9.061233   -6.607305    0.100606
    124          1           0        5.439443    0.166088    4.220174
    125          1           0        5.687498    5.213030    0.548877
    126          1           0        6.221995    1.559969   -4.530902
    127          1           0        6.231481   -4.043146    1.764726
    128          1           0        6.157361   -2.311140    3.985485
    129          1           0        4.097170   -3.119771    1.975032
    130          1           0        3.857178   -1.507371    2.679942
    131          1           0        3.907457   -2.873945    3.752126
    132          1           0        8.403636   -2.495707    3.197544
    133          1           0        8.854921   -3.444295    1.734084
    134          1           0        7.378762   -5.150551    3.471073
    135          1           0        8.260543   -4.101359    4.522992
    136          1           0        5.854014    1.691597    5.613630
    137          1           0        5.243455    3.312066    5.635311
    138          1           0        7.002952    3.086048    5.776252
    139          1           0        5.834904    5.439896    5.322387
    140          1           0        6.815469    6.906984    4.745443
    141          1           0        7.558364    5.308558    5.039657
    142          1           0        6.128687    5.626666   -1.927798
    143          1           0        4.876123    3.811775   -3.926305
    144          1           0        4.029428    6.466789   -2.056014
    145          1           0        3.460472    4.963023   -1.249150
    146          1           0        3.471967    5.046830   -2.936901
    147          1           0        6.571314    5.593075   -4.496470
    148          1           0        6.860535    4.030538   -5.237947
    149          1           0        8.177752    5.453053   -3.041692
    150          1           0        8.960038    4.588003   -4.414475
    151          1           0        8.302613    3.692471   -2.972210
    152          1           0        7.295847   -1.742033   -5.691856
    153          1           0        6.507994   -0.133141   -5.775157
    154          1           0        5.508325   -1.580426   -5.352909
    155          1           0        6.183168   -4.326685   -1.074211
    156          1           0        8.926599   -7.579354   -0.383838
    157          1           0        9.075384   -6.593379    1.206658
    158          1           0       10.040691   -6.322450   -0.265413
 ---------------------------------------------------------------------

 SCF Done:  E(RCAM-B3LYP) =  -4069.81177202     A.U. after   19 cycles

 Excitation energies and oscillator strengths:

 Excited State   1:      Singlet-A      1.6659 eV  744.24 nm  f=0.0160  <S**2>=0.000
     309 -> 315        0.10833
     310 -> 316        0.13311
     311 -> 313        0.43251
     312 -> 314        0.53327
 This state for optimization and/or second-order correction.
 Total Energy, E(TD-HF/TD-DFT) =  -4069.75055068
 Copying the excited state density for this state as the 1-particle RhoCI density.

 Excited State   2:      Singlet-A      1.6894 eV  733.91 nm  f=0.7275  <S**2>=0.000
     309 -> 315        0.13823
     310 -> 316       -0.11163
     311 -> 313        0.53208
     312 -> 314       -0.43161

 Excited State   3:      Singlet-A      2.1852 eV  567.37 nm  f=0.0406  <S**2>=0.000
     309 -> 313        0.20332
     310 -> 314        0.61030
     312 -> 316       -0.25806

 Excited State   4:      Singlet-A      2.1940 eV  565.12 nm  f=0.1481  <S**2>=0.000
     309 -> 313        0.60762
     310 -> 314       -0.20157
     311 -> 315       -0.26496

 Excited State   5:      Singlet-A      2.6512 eV  467.65 nm  f=0.0000  <S**2>=0.000
     312 -> 313        0.70710

 The electronic state is 1-A.
 Alpha  occ. eigenvalues --  -46.87852 -46.87553 -19.26319 -19.26279 -19.19088
 Alpha  occ. eigenvalues --  -19.19058 -19.18847 -19.18590 -19.18215 -19.17966
 Alpha  occ. eigenvalues --  -14.42503 -14.42391 -14.41510 -14.41250 -14.39455
 Alpha  occ. eigenvalues --  -14.39243 -14.38642 -14.38498 -10.39118 -10.39015
 Alpha  occ. eigenvalues --  -10.35478 -10.35266 -10.34436 -10.34144 -10.31708
 Alpha  occ. eigenvalues --  -10.31695 -10.31458 -10.31211 -10.30955 -10.30913
 Alpha  occ. eigenvalues --  -10.30625 -10.30564 -10.30294 -10.30268 -10.30264
 Alpha  occ. eigenvalues --  -10.30027 -10.29986 -10.29788 -10.29682 -10.29325
 Alpha  occ. eigenvalues --  -10.29306 -10.29300 -10.28791 -10.28621 -10.28579
 Alpha  occ. eigenvalues --  -10.28576 -10.28413 -10.28298 -10.28159 -10.28039
 Alpha  occ. eigenvalues --  -10.27900 -10.27843 -10.27778 -10.27631 -10.27590
 Alpha  occ. eigenvalues --  -10.27562 -10.27532 -10.27505 -10.27455 -10.27411
 Alpha  occ. eigenvalues --  -10.27379 -10.27360 -10.27348 -10.27251 -10.27202
 Alpha  occ. eigenvalues --  -10.26963 -10.26746 -10.26607 -10.26412 -10.26310
 Alpha  occ. eigenvalues --  -10.26283 -10.26272 -10.26083 -10.26054 -10.25911
 Alpha  occ. eigenvalues --  -10.25909 -10.25834 -10.25795 -10.25509 -10.25229
 Alpha  occ. eigenvalues --  -10.24883 -10.24845 -10.24841 -10.24774 -10.24652
 Alpha  occ. eigenvalues --  -10.24576  -3.16595  -3.16303  -1.91477  -1.91185
 Alpha  occ. eigenvalues --   -1.91063  -1.90905  -1.90774  -1.90611  -1.16668
 Alpha  occ. eigenvalues --   -1.16572  -1.08673  -1.08577  -1.07248  -1.06872
 Alpha  occ. eigenvalues --   -1.06840  -1.06680  -1.04632  -1.04390  -1.03818
 Alpha  occ. eigenvalues --   -1.03556  -1.03289  -1.02931  -1.02467  -1.02005
 Alpha  occ. eigenvalues --   -0.92023  -0.91888  -0.89598  -0.89392  -0.89233
 Alpha  occ. eigenvalues --   -0.89051  -0.88364  -0.88110  -0.87927  -0.87726
 Alpha  occ. eigenvalues --   -0.87707  -0.87580  -0.87311  -0.87006  -0.85029
 Alpha  occ. eigenvalues --   -0.84900  -0.84022  -0.83769  -0.83007  -0.82813
 Alpha  occ. eigenvalues --   -0.82692  -0.82549  -0.81633  -0.81510  -0.80644
 Alpha  occ. eigenvalues --   -0.80346  -0.78841  -0.78531  -0.77279  -0.77045
 Alpha  occ. eigenvalues --   -0.76987  -0.76801  -0.75970  -0.75743  -0.74966
 Alpha  occ. eigenvalues --   -0.74685  -0.72832  -0.72600  -0.71726  -0.71471
 Alpha  occ. eigenvalues --   -0.70005  -0.69657  -0.68919  -0.68728  -0.67691
 Alpha  occ. eigenvalues --   -0.67499  -0.67260  -0.67100  -0.65336  -0.65175
 Alpha  occ. eigenvalues --   -0.64909  -0.64677  -0.64671  -0.64557  -0.64342
 Alpha  occ. eigenvalues --   -0.64100  -0.62346  -0.62192  -0.60490  -0.60227
 Alpha  occ. eigenvalues --   -0.59851  -0.59697  -0.59044  -0.58890  -0.58558
 Alpha  occ. eigenvalues --   -0.58325  -0.57631  -0.57469  -0.57367  -0.57132
 Alpha  occ. eigenvalues --   -0.56359  -0.56108  -0.56019  -0.55800  -0.55563
 Alpha  occ. eigenvalues --   -0.55409  -0.55351  -0.55148  -0.54587  -0.54393
 Alpha  occ. eigenvalues --   -0.53939  -0.53814  -0.53351  -0.53261  -0.53126
 Alpha  occ. eigenvalues --   -0.53041  -0.52967  -0.52808  -0.52791  -0.52552
 Alpha  occ. eigenvalues --   -0.52539  -0.52311  -0.51975  -0.51813  -0.51656
 Alpha  occ. eigenvalues --   -0.51559  -0.51255  -0.51110  -0.50601  -0.50356
 Alpha  occ. eigenvalues --   -0.50109  -0.49957  -0.49871  -0.49752  -0.49555
 Alpha  occ. eigenvalues --   -0.49381  -0.49260  -0.49141  -0.49104  -0.49009
 Alpha  occ. eigenvalues --   -0.48643  -0.48523  -0.48483  -0.48465  -0.48267
 Alpha  occ. eigenvalues --   -0.48224  -0.47744  -0.47491  -0.47345  -0.47006
 Alpha  occ. eigenvalues --   -0.46860  -0.46610  -0.46599  -0.46454  -0.46417
 Alpha  occ. eigenvalues --   -0.46222  -0.46168  -0.45986  -0.45874  -0.45738
 Alpha  occ. eigenvalues --   -0.45272  -0.45085  -0.44630  -0.44555  -0.44423
 Alpha  occ. eigenvalues --   -0.44377  -0.44210  -0.44134  -0.44060  -0.44028
 Alpha  occ. eigenvalues --   -0.43976  -0.43835  -0.43545  -0.43468  -0.43441
 Alpha  occ. eigenvalues --   -0.43284  -0.43083  -0.42846  -0.42805  -0.42767
 Alpha  occ. eigenvalues --   -0.42717  -0.42447  -0.42084  -0.41869  -0.41757
 Alpha  occ. eigenvalues --   -0.41583  -0.41571  -0.41361  -0.41193  -0.40930
 Alpha  occ. eigenvalues --   -0.40881  -0.40858  -0.40645  -0.40618  -0.40590
 Alpha  occ. eigenvalues --   -0.40388  -0.40275  -0.40130  -0.39548  -0.39328
 Alpha  occ. eigenvalues --   -0.38544  -0.38239  -0.37795  -0.37561  -0.37390
 Alpha  occ. eigenvalues --   -0.37310  -0.37162  -0.37100  -0.36764  -0.36689
 Alpha  occ. eigenvalues --   -0.36249  -0.36116  -0.34341  -0.34150  -0.33811
 Alpha  occ. eigenvalues --   -0.33782  -0.33241  -0.33071  -0.31378  -0.31149
 Alpha  occ. eigenvalues --   -0.31088  -0.30866  -0.30075  -0.29873  -0.29496
 Alpha  occ. eigenvalues --   -0.29374  -0.29219  -0.29113  -0.24136  -0.23930
 Alpha  occ. eigenvalues --   -0.21183  -0.21011
 Alpha virt. eigenvalues --   -0.08825  -0.08686  -0.01805  -0.01574  -0.00098
 Alpha virt. eigenvalues --    0.00083   0.02148   0.02301   0.03054   0.03323
 Alpha virt. eigenvalues --    0.04667   0.04833   0.05058   0.05242   0.06134

 Mulliken charges:
               1
     1  Mg   0.838564
     2  C   -0.002876
     3  C   -0.093920
     4  C   -0.045965
     5  C   -0.064169
     6  N   -0.256768
     7  C   -0.052505
     8  C   -0.014005
     9  C   -0.087031
    10  C    0.046324
    11  C    0.104770
    12  C    0.053437
    13  C   -0.071822
    14  H    0.036051
    15  N   -0.433202
    16  C    0.168440
    17  C   -0.176913
    18  C   -0.003854
    19  C    0.148715
    20  C    0.110107
    21  C    0.012384
    22  O   -0.249708
    23  C    0.062392
    24  N   -0.341057
    25  C    0.041221
    26  C   -0.028230
    27  C   -0.023792
    28  C    0.074596
    29  C    0.076131
    30  C    0.035233
    31  C   -0.004370
    32  N   -0.310421
    33  C    0.080213
    34  C   -0.169993
    35  C    0.008395
    36  C    0.082840
    37  C    0.127373
    38  C    0.046087
    39  O   -0.188375
    40  C   -0.005306
    41  C    0.212921
    42  O   -0.257116
    43  O   -0.304791
    44  C    0.157619
    45  H   -0.017347
    46  H   -0.016858
    47  H   -0.041862
    48  H    0.001032
    49  H   -0.003883
    50  H    0.025516
    51  H    0.016461
    52  H    0.016839
    53  H    0.011194
    54  H    0.044077
    55  H    0.017988
    56  H    0.018031
    57  H    0.005964
    58  H    0.027055
    59  H    0.040053
    60  H    0.037423
    61  H    0.036092
    62  H    0.031934
    63  H    0.016260
    64  H    0.009516
    65  H    0.023190
    66  H    0.012824
    67  H    0.004763
    68  H    0.006156
    69  H    0.004510
    70  H    0.008629
    71  H    0.016755
    72  H    0.029352
    73  H    0.047406
    74  H    0.008686
    75  H    0.046106
    76  H    0.035242
    77  H    0.043087
    78  H    0.046384
    79  H    0.053802
    80  Mg   0.838026
    81  C   -0.016891
    82  C   -0.087664
    83  C   -0.044926
    84  C   -0.064907
    85  N   -0.254578
    86  C   -0.049923
    87  C   -0.015103
    88  C   -0.090554
    89  C    0.045890
    90  C    0.114294
    91  C    0.062556
    92  C   -0.077771
    93  H    0.034548
    94  N   -0.423680
    95  C    0.163171
    96  C   -0.174106
    97  C   -0.007343
    98  C    0.152244
    99  C    0.099148
   100  C    0.015929
   101  O   -0.252776
   102  C    0.061141
   103  N   -0.350009
   104  C    0.037839
   105  C   -0.020040
   106  C   -0.034560
   107  C    0.088864
   108  C    0.073297
   109  C    0.034779
   110  C   -0.007600
   111  N   -0.323990
   112  C    0.078330
   113  C   -0.163521
   114  C    0.002045
   115  C    0.096094
   116  C    0.131546
   117  C    0.042061
   118  O   -0.188545
   119  C    0.000987
   120  C    0.211169
   121  O   -0.251158
   122  O   -0.305564
   123  C    0.152126
   124  H   -0.019486
   125  H   -0.015075
   126  H   -0.041006
   127  H   -0.000664
   128  H   -0.004529
   129  H    0.022647
   130  H    0.015055
   131  H    0.016095
   132  H    0.013850
   133  H    0.037541
   134  H    0.020821
   135  H    0.019501
   136  H    0.008644
   137  H    0.026949
   138  H    0.039636
   139  H    0.038762
   140  H    0.036490
   141  H    0.033513
   142  H    0.014210
   143  H    0.012161
   144  H    0.025193
   145  H    0.013445
   146  H    0.005632
   147  H    0.006113
   148  H    0.003145
   149  H    0.010992
   150  H    0.017538
   151  H    0.030156
   152  H    0.045648
   153  H    0.008203
   154  H    0.046289
   155  H    0.035017
   156  H    0.043724
   157  H    0.049511
   158  H    0.053406
 Sum of Mulliken charges =  -0.00000

 Dipole moment (field-independent basis, Debye):
    X=             -3.8782    Y=             -1.5348    Z=              0.2395  Tot=              4.1777
 Quadrupole moment (field-independent basis, Debye-Ang):
   XX=           -522.4491   YY=           -548.1222   ZZ=           -448.8230
   XY=             21.5309   XZ=             61.9913   YZ=            -43.7028

 Normal termination of Gaussian 16 at Sat Sep 11 07:34:02 2021.
