 Gaussian 16, Revision A.03,
 Gaussian 16:  ES64L-G16RevA.03 25-Dec-2016

 -----------------------------------
 #p cam-b3lyp/Def2SVP td=(nstates=5)
 -----------------------------------

 --------------------------------
 TDDFT excited states in gaussian
 --------------------------------
 Symbolic Z-matrix:
 Charge =  0 Multiplicity = 1

                         Standard orientation:
 ---------------------------------------------------------------------
 Center     Atomic      Atomic             Coordinates (Angstroms)
 Number     Number       Type             X           Y           Z
 ---------------------------------------------------------------------
      1         12           0        6.189142    0.890189    0.463076
      2          6           0        6.656961   -2.289263   -1.113135
      3          6           0        7.132446    2.324057   -2.486037
      4          6           0        6.222963    3.686367    1.958692
      5          6           0        6.392681   -0.763004    3.524315
      6          7           0        6.792465    0.021803   -1.481803
      7          6           0        6.872685   -1.210585   -1.973693
      8          6           0        7.133623   -1.247128   -3.509255
      9          6           0        7.814209    0.184161   -3.683071
     10          6           0        7.182860    0.898482   -2.501095
     11          6           0        9.327714    0.166038   -3.494718
     12          6           0        5.807779   -1.355152   -4.335208
     13          6           0        5.985561   -1.723051   -5.811148
     14          1           0        4.988170   -2.570859   -6.446585
     15          7           0        6.138404    2.729075   -0.257184
     16          6           0        6.547559    3.129485   -1.485008
     17          6           0        6.305393    4.587227   -1.540018
     18          6           0        5.899298    5.032731   -0.178141
     19          6           0        6.098560    3.822875    0.578114
     20          6           0        6.416797    5.392939   -2.797860
     21          6           0        5.419385    6.344020    0.358829
     22          8           0        5.342959    6.578318    1.613356
     23          6           0        5.121197    7.391277   -0.634840
     24          7           0        6.511577    1.432438    2.452960
     25          6           0        6.412125    2.707162    2.845608
     26          6           0        6.401831    2.818526    4.341413
     27          6           0        6.270102    1.326524    4.894884
     28          6           0        6.312215    0.569355    3.544628
     29          6           0        7.630248    3.489801    4.971010
     30          6           0        5.098117    1.037738    5.866209
     31          6           0        3.781638    1.154983    5.131204
     32          7           0        6.295839   -1.174337    1.124431
     33          6           0        6.396753   -1.632137    2.446138
     34          6           0        6.549520   -3.097412    2.385302
     35          6           0        6.543463   -3.390367    1.022957
     36          6           0        6.422616   -2.181876    0.279158
     37          6           0        6.729505   -3.963509    3.499714
     38          6           0        6.635730   -4.440807    0.021997
     39          8           0        6.656150   -5.672023    0.056396
     40          6           0        6.835414   -3.758830   -1.403086
     41          6           0        5.871358   -4.409393   -2.357377
     42          8           0        4.639779   -4.257025   -2.225605
     43          8           0        6.548730   -4.906557   -3.403579
     44          6           0        5.647792   -5.540258   -4.403023
     45          1           0        7.636512    2.878448   -3.280083
     46          1           0        6.128262    4.618798    2.519087
     47          1           0        6.377046   -1.354617    4.441486
     48          1           0        7.820846   -2.028167   -3.835026
     49          1           0        7.520542    0.663748   -4.616600
     50          1           0        9.673945   -0.806143   -3.144133
     51          1           0        9.537781    0.935608   -2.751666
     52          1           0        9.835301    0.483017   -4.406122
     53          1           0        5.369505   -0.362983   -4.442807
     54          1           0        5.118795   -2.059954   -3.868431
     55          1           0        6.989414   -2.099421   -6.009978
     56          1           0        5.916964   -0.809317   -6.401559
     57          1           0        6.892205    4.824913   -3.596534
     58          1           0        7.111113    6.207749   -2.593609
     59          1           0        5.455102    5.799326   -3.111427
     60          1           0        6.017706    7.598234   -1.219638
     61          1           0        4.706293    8.228248   -0.074318
     62          1           0        4.378415    7.010894   -1.336647
     63          1           0        5.549153    3.403242    4.684157
     64          1           0        7.156685    1.015731    5.448104
     65          1           0        7.387942    4.354400    5.589445
     66          1           0        8.313862    3.762878    4.167648
     67          1           0        8.254673    2.828937    5.571651
     68          1           0        5.082760    1.772123    6.670814
     69          1           0        5.149926    0.048461    6.321069
     70          1           0        3.580587    2.225269    5.161170
     71          1           0        3.003601    0.596827    5.653058
     72          1           0        3.884105    0.871895    4.083422
     73          1           0        6.088186   -4.826678    3.321899
     74          1           0        6.472715   -3.465027    4.434154
     75          1           0        7.795268   -4.176981    3.419493
     76          1           0        7.872747   -3.929170   -1.689524
     77          1           0        5.995567   -6.563495   -4.545400
     78          1           0        5.638999   -4.883195   -5.272848
     79          1           0        4.619937   -5.714890   -4.083089
     80         12           0       -6.994758    0.123436   -0.211644
     81          6           0       -4.321646   -2.101339    0.673733
     82          6           0       -4.684415    2.631854   -0.280654
     83          6           0       -9.385786    2.181869   -0.548216
     84          6           0       -9.208343   -2.266653    1.026585
     85          7           0       -4.815296    0.138458    0.165131
     86          6           0       -3.897289   -0.777863    0.433415
     87          6           0       -2.434746   -0.262149    0.365727
     88          6           0       -2.716745    1.296271    0.631590
     89          6           0       -4.149563    1.378009    0.109090
     90          6           0       -2.724409    1.663470    2.106198
     91          6           0       -1.783082   -0.495912   -1.042360
     92          6           0       -0.266043   -0.300636   -1.089304
     93          1           0        0.519677   -1.161743   -1.968865
     94          7           0       -6.993225    1.998503   -0.861795
     95          6           0       -5.961861    2.868464   -0.834250
     96          6           0       -6.476460    4.120855   -1.409475
     97          6           0       -7.940945    3.970203   -1.626991
     98          6           0       -8.172149    2.690492   -0.987484
     99          6           0       -5.588096    5.275659   -1.770951
    100          6           0       -8.966210    4.840593   -2.288389
    101          8           0      -10.222137    4.623359   -2.153172
    102          6           0       -8.459039    6.009306   -3.022126
    103          7           0       -8.989547    0.075161    0.372166
    104          6           0       -9.827328    1.077702    0.054408
    105          6           0      -11.262031    0.699398    0.335294
    106          6           0      -11.234640   -0.861384    0.682857
    107          6           0       -9.710707   -1.106257    0.627487
    108          6           0      -11.940579    1.462036    1.472994
    109          6           0      -12.162527   -1.784932   -0.153063
    110          6           0      -11.683915   -1.836737   -1.586117
    111          7           0       -6.845310   -1.904225    0.519295
    112          6           0       -7.892848   -2.712403    1.012862
    113          6           0       -7.282817   -3.967002    1.498919
    114          6           0       -5.909224   -3.790892    1.273731
    115          6           0       -5.677352   -2.508390    0.707241
    116          6           0       -7.979519   -5.051115    2.103426
    117          6           0       -4.601600   -4.394071    1.396231
    118          8           0       -4.184082   -5.503201    1.726757
    119          6           0       -3.502787   -3.276868    1.130045
    120          6           0       -2.490498   -3.840248    0.170664
    121          8           0       -2.814246   -4.121657   -0.996640
    122          8           0       -1.265408   -3.750367    0.719695
    123          6           0       -0.225835   -4.286565   -0.198782
    124          1           0       -4.086447    3.527173   -0.108236
    125          1           0      -10.258412    2.809503   -0.743370
    126          1           0       -9.841109   -3.101019    1.336601
    127          1           0       -1.777921   -0.657078    1.131489
    128          1           0       -2.057770    1.923915    0.037301
    129          1           0       -2.655925    0.791090    2.738982
    130          1           0       -3.659430    2.181249    2.275555
    131          1           0       -1.934834    2.390195    2.317814
    132          1           0       -2.097097    0.308257   -1.720190
    133          1           0       -2.034313   -1.467216   -1.421933
    134          1           0        0.176756   -0.269326   -0.086364
    135          1           0       -0.056084    0.687464   -1.505946
    136          1           0       -4.584469    5.160316   -1.343371
    137          1           0       -5.995893    6.161278   -1.271720
    138          1           0       -5.554381    5.460504   -2.846751
    139          1           0       -7.891337    6.642616   -2.344574
    140          1           0       -9.333149    6.456694   -3.499258
    141          1           0       -7.758703    5.663125   -3.790440
    142          1           0      -11.881113    0.853713   -0.539941
    143          1           0      -11.546288   -1.053375    1.720087
    144          1           0      -12.865966    1.981120    1.159513
    145          1           0      -11.229562    2.166822    1.883197
    146          1           0      -12.197923    0.860548    2.343156
    147          1           0      -13.176864   -1.379219   -0.179093
    148          1           0      -12.229791   -2.795576    0.235590
    149          1           0      -12.123058   -0.936159   -2.025673
    150          1           0      -12.048967   -2.735163   -2.079672
    151          1           0      -10.594061   -1.732574   -1.641059
    152          1           0       -7.577085   -5.958494    1.673056
    153          1           0       -9.052491   -4.974613    1.940177
    154          1           0       -7.711641   -4.894776    3.151788
    155          1           0       -3.056847   -3.020247    2.091735
    156          1           0        0.319432   -5.059173    0.352089
    157          1           0        0.353099   -3.407918   -0.540200
    158          1           0       -0.561942   -4.842617   -1.066130
 ---------------------------------------------------------------------

 SCF Done:  E(RCAM-B3LYP) =  -4069.81245927     A.U. after   19 cycles

 Excitation energies and oscillator strengths:

 Excited State   1:      Singlet-A      1.6632 eV  745.46 nm  f=0.0048  <S**2>=0.000
     309 -> 315       -0.11510
     310 -> 316        0.12575
     311 -> 313       -0.46156
     312 -> 314        0.50856
 This state for optimization and/or second-order correction.
 Total Energy, E(TD-HF/TD-DFT) =  -4069.75133816
 Copying the excited state density for this state as the 1-particle RhoCI density.

 Excited State   2:      Singlet-A      1.6900 eV  733.61 nm  f=0.7308  <S**2>=0.000
     309 -> 315        0.13180
     310 -> 316        0.11879
     311 -> 313        0.50720
     312 -> 314        0.46043

 Excited State   3:      Singlet-A      2.1844 eV  567.58 nm  f=0.1078  <S**2>=0.000
     310 -> 314        0.64263
     312 -> 316       -0.27176

 Excited State   4:      Singlet-A      2.1925 eV  565.49 nm  f=0.0949  <S**2>=0.000
     309 -> 313        0.64057
     311 -> 315       -0.27795

 Excited State   5:      Singlet-A      2.5621 eV  483.91 nm  f=0.0000  <S**2>=0.000
     312 -> 313        0.70675

 The electronic state is 1-A.
 Alpha  occ. eigenvalues --  -46.88050 -46.87480 -19.26501 -19.25738 -19.19290
 Alpha  occ. eigenvalues --  -19.19083 -19.18682 -19.18576 -19.18393 -19.17807
 Alpha  occ. eigenvalues --  -14.42690 -14.42308 -14.41694 -14.41182 -14.39656
 Alpha  occ. eigenvalues --  -14.39175 -14.38835 -14.38415 -10.39340 -10.38620
 Alpha  occ. eigenvalues --  -10.35717 -10.35257 -10.34614 -10.33972 -10.31844
 Alpha  occ. eigenvalues --  -10.31634 -10.31151 -10.31102 -10.30862 -10.30816
 Alpha  occ. eigenvalues --  -10.30808 -10.30754 -10.30450 -10.30218 -10.30168
 Alpha  occ. eigenvalues --  -10.30159 -10.29987 -10.29873 -10.29719 -10.29499
 Alpha  occ. eigenvalues --  -10.29274 -10.29223 -10.28961 -10.28709 -10.28612
 Alpha  occ. eigenvalues --  -10.28446 -10.28322 -10.28226 -10.28210 -10.28029
 Alpha  occ. eigenvalues --  -10.27961 -10.27907 -10.27833 -10.27820 -10.27728
 Alpha  occ. eigenvalues --  -10.27723 -10.27679 -10.27644 -10.27487 -10.27387
 Alpha  occ. eigenvalues --  -10.27384 -10.27340 -10.27294 -10.27274 -10.27239
 Alpha  occ. eigenvalues --  -10.26923 -10.26737 -10.26693 -10.26417 -10.26416
 Alpha  occ. eigenvalues --  -10.26365 -10.26314 -10.26255 -10.26020 -10.26019
 Alpha  occ. eigenvalues --  -10.25809 -10.25766 -10.25687 -10.25637 -10.25278
 Alpha  occ. eigenvalues --  -10.25069 -10.25033 -10.24968 -10.24682 -10.24616
 Alpha  occ. eigenvalues --  -10.24513  -3.16794  -3.16230  -1.91676  -1.91262
 Alpha  occ. eigenvalues --   -1.91113  -1.91104  -1.90701  -1.90538  -1.16858
 Alpha  occ. eigenvalues --   -1.16066  -1.08851  -1.08392  -1.07487  -1.06901
 Alpha  occ. eigenvalues --   -1.06831  -1.06456  -1.04820  -1.04299  -1.04003
 Alpha  occ. eigenvalues --   -1.03480  -1.03480  -1.02863  -1.02655  -1.01930
 Alpha  occ. eigenvalues --   -0.92210  -0.91760  -0.89759  -0.89400  -0.89325
 Alpha  occ. eigenvalues --   -0.88906  -0.88522  -0.88088  -0.88063  -0.87905
 Alpha  occ. eigenvalues --   -0.87612  -0.87526  -0.87482  -0.86969  -0.85202
 Alpha  occ. eigenvalues --   -0.84756  -0.84172  -0.83704  -0.83226  -0.82875
 Alpha  occ. eigenvalues --   -0.82791  -0.82409  -0.81801  -0.81214  -0.80827
 Alpha  occ. eigenvalues --   -0.80124  -0.79037  -0.78469  -0.77445  -0.77146
 Alpha  occ. eigenvalues --   -0.76937  -0.76597  -0.76136  -0.75524  -0.75122
 Alpha  occ. eigenvalues --   -0.74586  -0.73005  -0.72515  -0.71897  -0.71364
 Alpha  occ. eigenvalues --   -0.70148  -0.69610  -0.69096  -0.68589  -0.67879
 Alpha  occ. eigenvalues --   -0.67446  -0.67388  -0.66950  -0.65508  -0.65085
 Alpha  occ. eigenvalues --   -0.65009  -0.64847  -0.64559  -0.64506  -0.64345
 Alpha  occ. eigenvalues --   -0.64010  -0.62519  -0.61854  -0.60690  -0.60181
 Alpha  occ. eigenvalues --   -0.60025  -0.59571  -0.59221  -0.58784  -0.58739
 Alpha  occ. eigenvalues --   -0.58199  -0.57816  -0.57548  -0.57247  -0.57018
 Alpha  occ. eigenvalues --   -0.56540  -0.56192  -0.56012  -0.55756  -0.55570
 Alpha  occ. eigenvalues --   -0.55500  -0.55181  -0.54980  -0.54756  -0.54162
 Alpha  occ. eigenvalues --   -0.54111  -0.53660  -0.53538  -0.53452  -0.53155
 Alpha  occ. eigenvalues --   -0.53019  -0.52998  -0.52895  -0.52682  -0.52595
 Alpha  occ. eigenvalues --   -0.52483  -0.52238  -0.52122  -0.51839  -0.51695
 Alpha  occ. eigenvalues --   -0.51421  -0.51395  -0.50941  -0.50830  -0.50340
 Alpha  occ. eigenvalues --   -0.50265  -0.50161  -0.49799  -0.49746  -0.49708
 Alpha  occ. eigenvalues --   -0.49447  -0.49304  -0.49286  -0.48968  -0.48857
 Alpha  occ. eigenvalues --   -0.48812  -0.48705  -0.48676  -0.48274  -0.48210
 Alpha  occ. eigenvalues --   -0.48115  -0.47926  -0.47527  -0.47360  -0.47027
 Alpha  occ. eigenvalues --   -0.46904  -0.46773  -0.46595  -0.46504  -0.46389
 Alpha  occ. eigenvalues --   -0.46300  -0.46077  -0.46028  -0.45833  -0.45500
 Alpha  occ. eigenvalues --   -0.45431  -0.45030  -0.44800  -0.44744  -0.44384
 Alpha  occ. eigenvalues --   -0.44302  -0.44262  -0.44247  -0.44244  -0.43915
 Alpha  occ. eigenvalues --   -0.43875  -0.43710  -0.43693  -0.43612  -0.43254
 Alpha  occ. eigenvalues --   -0.43221  -0.43082  -0.42931  -0.42885  -0.42695
 Alpha  occ. eigenvalues --   -0.42418  -0.42359  -0.42243  -0.41935  -0.41759
 Alpha  occ. eigenvalues --   -0.41750  -0.41439  -0.41365  -0.41215  -0.41099
 Alpha  occ. eigenvalues --   -0.41073  -0.40800  -0.40782  -0.40546  -0.40477
 Alpha  occ. eigenvalues --   -0.40448  -0.40296  -0.39943  -0.39688  -0.39283
 Alpha  occ. eigenvalues --   -0.38698  -0.38176  -0.37963  -0.37555  -0.37489
 Alpha  occ. eigenvalues --   -0.37363  -0.37084  -0.36951  -0.36936  -0.36429
 Alpha  occ. eigenvalues --   -0.36372  -0.35897  -0.34527  -0.34060  -0.34039
 Alpha  occ. eigenvalues --   -0.33448  -0.33432  -0.32968  -0.31612  -0.31277
 Alpha  occ. eigenvalues --   -0.31133  -0.30775  -0.30251  -0.29700  -0.29700
 Alpha  occ. eigenvalues --   -0.29561  -0.29158  -0.29024  -0.24324  -0.23845
 Alpha  occ. eigenvalues --   -0.21368  -0.20937
 Alpha virt. eigenvalues --   -0.09018  -0.08611  -0.01996  -0.01508  -0.00309
 Alpha virt. eigenvalues --    0.00145   0.01963   0.02410   0.02653   0.03395
 Alpha virt. eigenvalues --    0.04494   0.04841   0.04981   0.05606   0.05978

 Mulliken charges:
               1
     1  Mg   0.836649
     2  C   -0.003654
     3  C   -0.094005
     4  C   -0.046327
     5  C   -0.063706
     6  N   -0.256873
     7  C   -0.052363
     8  C   -0.013894
     9  C   -0.086965
    10  C    0.046105
    11  C    0.104681
    12  C    0.053500
    13  C   -0.072372
    14  H    0.037215
    15  N   -0.433219
    16  C    0.167961
    17  C   -0.177286
    18  C   -0.004427
    19  C    0.148202
    20  C    0.110082
    21  C    0.011354
    22  O   -0.249731
    23  C    0.062840
    24  N   -0.341053
    25  C    0.041168
    26  C   -0.028201
    27  C   -0.024106
    28  C    0.074497
    29  C    0.076016
    30  C    0.035122
    31  C   -0.004620
    32  N   -0.310551
    33  C    0.080177
    34  C   -0.169374
    35  C    0.008463
    36  C    0.082358
    37  C    0.127342
    38  C    0.045381
    39  O   -0.187449
    40  C   -0.005102
    41  C    0.213811
    42  O   -0.259993
    43  O   -0.304262
    44  C    0.157403
    45  H   -0.017134
    46  H   -0.016818
    47  H   -0.040773
    48  H    0.001490
    49  H   -0.003767
    50  H    0.025775
    51  H    0.016533
    52  H    0.017192
    53  H    0.010821
    54  H    0.043028
    55  H    0.018395
    56  H    0.018201
    57  H    0.006317
    58  H    0.027289
    59  H    0.038879
    60  H    0.038096
    61  H    0.035520
    62  H    0.030304
    63  H    0.016061
    64  H    0.010163
    65  H    0.023415
    66  H    0.012807
    67  H    0.005303
    68  H    0.006899
    69  H    0.005716
    70  H    0.008006
    71  H    0.018664
    72  H    0.027680
    73  H    0.048169
    74  H    0.009685
    75  H    0.046614
    76  H    0.035957
    77  H    0.044122
    78  H    0.046944
    79  H    0.053399
    80  Mg   0.837308
    81  C   -0.016430
    82  C   -0.087995
    83  C   -0.045884
    84  C   -0.065449
    85  N   -0.254491
    86  C   -0.049895
    87  C   -0.014755
    88  C   -0.090320
    89  C    0.045689
    90  C    0.114339
    91  C    0.063233
    92  C   -0.080953
    93  H    0.043143
    94  N   -0.423382
    95  C    0.162637
    96  C   -0.174928
    97  C   -0.008249
    98  C    0.151994
    99  C    0.099513
   100  C    0.015248
   101  O   -0.253653
   102  C    0.061361
   103  N   -0.350154
   104  C    0.037359
   105  C   -0.019675
   106  C   -0.034794
   107  C    0.089117
   108  C    0.073814
   109  C    0.034830
   110  C   -0.007602
   111  N   -0.324193
   112  C    0.078698
   113  C   -0.163438
   114  C    0.002541
   115  C    0.096046
   116  C    0.131518
   117  C    0.042089
   118  O   -0.186825
   119  C    0.001463
   120  C    0.211429
   121  O   -0.252088
   122  O   -0.306586
   123  C    0.151041
   124  H   -0.019881
   125  H   -0.016101
   126  H   -0.040822
   127  H    0.000249
   128  H   -0.004648
   129  H    0.022267
   130  H    0.013846
   131  H    0.016560
   132  H    0.012206
   133  H    0.038422
   134  H    0.020644
   135  H    0.016608
   136  H    0.008501
   137  H    0.025741
   138  H    0.038861
   139  H    0.038045
   140  H    0.035867
   141  H    0.033490
   142  H    0.014056
   143  H    0.012161
   144  H    0.024729
   145  H    0.011580
   146  H    0.005370
   147  H    0.005902
   148  H    0.003527
   149  H    0.010711
   150  H    0.017669
   151  H    0.030362
   152  H    0.046189
   153  H    0.008129
   154  H    0.046761
   155  H    0.034764
   156  H    0.047634
   157  H    0.055644
   158  H    0.052538
 Sum of Mulliken charges =  -0.00000

 Dipole moment (field-independent basis, Debye):
    X=              4.0860    Y=              6.9025    Z=             -2.0978  Tot=              8.2910
 Quadrupole moment (field-independent basis, Debye-Ang):
   XX=           -486.8973   YY=           -553.0100   ZZ=           -473.1887
   XY=             22.8435   XZ=            -33.0892   YZ=            -10.9529

 Normal termination of Gaussian 16 at Sat Sep 11 11:29:39 2021.
