 Gaussian 16, Revision A.03,
 Gaussian 16:  ES64L-G16RevA.03 25-Dec-2016

 -----------------------------------
 #p cam-b3lyp/Def2SVP td=(nstates=5)
 -----------------------------------

 --------------------------------
 TDDFT excited states in gaussian
 --------------------------------
 Symbolic Z-matrix:
 Charge =  0 Multiplicity = 1

                         Standard orientation:
 ---------------------------------------------------------------------
 Center     Atomic      Atomic             Coordinates (Angstroms)
 Number     Number       Type             X           Y           Z
 ---------------------------------------------------------------------
      1         12           0        7.797727   -0.963260    0.044678
      2          6           0        8.409480    2.465679   -0.780154
      3          6           0        8.808411   -0.225171    3.219077
      4          6           0        7.700510   -4.068414    0.681223
      5          6           0        7.934600   -1.655173   -3.368265
      6          7           0        8.495102    0.918602    0.978973
      7          6           0        8.626875    2.176194    0.568765
      8          6           0        8.944548    3.172652    1.723550
      9          6           0        9.591633    2.153278    2.764777
     10          6           0        8.898299    0.877932    2.319013
     11          6           0       11.097191    1.979903    2.592323
     12          6           0        7.653162    3.841559    2.303734
     13          6           0        7.894651    5.058343    3.201773
     14          1           0        6.944653    6.159723    3.159157
     15          7           0        7.723034   -1.914777    1.774385
     16          6           0        8.165599   -1.457131    2.970204
     17          6           0        7.885835   -2.531742    3.946740
     18          6           0        7.418308   -3.725261    3.188436
     19          6           0        7.622859   -3.286787    1.831499
     20          6           0        8.020972   -2.353261    5.427832
     21          6           0        6.883457   -5.054545    3.618634
     22          8           0        6.754947   -6.031837    2.804410
     23          6           0        6.593188   -5.212147    5.055278
     24          7           0        8.032422   -2.664212   -1.142468
     25          6           0        7.883899   -3.890159   -0.628678
     26          6           0        7.816014   -4.929868   -1.707722
     27          6           0        7.705028   -4.130445   -3.085532
     28          6           0        7.817048   -2.688650   -2.531501
     29          6           0        9.001837   -5.902076   -1.775886
     30          6           0        6.506730   -4.476379   -4.004677
     31          6           0        5.215221   -4.039073   -3.350561
     32          7           0        7.936638    0.196799   -1.784532
     33          6           0        8.001756   -0.299264   -3.094629
     34          6           0        8.196646    0.859029   -3.985944
     35          6           0        8.248295    1.953869   -3.125419
     36          6           0        8.121661    1.505018   -1.779764
     37          6           0        8.359477    0.805574   -5.398411
     38          6           0        8.405695    3.395947   -3.027976
     39          8           0        8.458502    4.319430   -3.841538
     40          6           0        8.638503    3.772346   -1.498286
     41          6           0        7.728043    4.924121   -1.169981
     42          8           0        6.488772    4.777521   -1.160900
     43          8           0        8.456462    5.943868   -0.690331
     44          6           0        7.610241    7.108699   -0.317194
     45          1           0        9.325757   -0.166907    4.178712
     46          1           0        7.559974   -5.138527    0.847193
     47          1           0        7.901704   -1.785057   -4.451548
     48          1           0        9.664294    3.950402    1.467629
     49          1           0        9.319209    2.393421    3.792317
     50          1           0       11.456855    2.488061    1.697707
     51          1           0       11.258897    0.904891    2.510510
     52          1           0       11.628826    2.295385    3.490439
     53          1           0        7.192141    3.167053    3.025234
     54          1           0        6.967139    4.115954    1.501608
     55          1           0        8.915003    5.430009    3.103509
     56          1           0        7.822677    4.735847    4.240530
     57          1           0        8.540546   -1.428057    5.673973
     58          1           0        8.684838   -3.140673    5.784165
     59          1           0        7.060602   -2.422873    5.938886
     60          1           0        7.504436   -5.037771    5.627789
     61          1           0        6.135387   -6.194771    5.163532
     62          1           0        5.887176   -4.438975    5.359747
     63          1           0        6.935734   -5.560215   -1.588576
     64          1           0        8.579009   -4.283916   -3.718997
     65          1           0        8.713586   -6.950546   -1.696340
     66          1           0        9.706576   -5.629602   -0.990780
     67          1           0        9.621774   -5.805113   -2.666781
     68          1           0        6.441963   -5.553633   -4.153927
     69          1           0        6.568942   -4.008569   -4.987293
     70          1           0        4.984023   -4.871929   -2.687439
     71          1           0        4.434220   -3.908594   -4.100377
     72          1           0        5.363539   -3.157372   -2.726790
     73          1           0        7.748910    1.610935   -5.806541
     74          1           0        8.055242   -0.162511   -5.795721
     75          1           0        9.432895    0.973595   -5.484433
     76          1           0        9.689863    4.040075   -1.397853
     77          1           0        7.990825    7.970623   -0.865351
     78          1           0        7.615218    7.159146    0.771767
     79          1           0        6.576560    7.084328   -0.663964
     80         12           0       -7.967274    0.956379    0.230777
     81          6           0       -8.198164   -2.600016   -0.190966
     82          6           0       -7.101620    1.140654   -3.063352
     83          6           0       -7.318110    4.030133    0.675764
     84          6           0       -7.724379    0.394125    3.661608
     85          7           0       -7.716586   -0.598278   -1.322434
     86          6           0       -7.891139   -1.909891   -1.382144
     87          6           0       -7.806464   -2.505528   -2.813088
     88          6           0       -6.910080   -1.361957   -3.496916
     89          6           0       -7.287291   -0.185829   -2.598522
     90          6           0       -5.416393   -1.606637   -3.361427
     91          6           0       -9.213760   -2.618468   -3.497762
     92          6           0       -9.244607   -3.472333   -4.767289
     93          1           0      -10.435196   -4.273137   -5.038739
     94          7           0       -7.787071    2.434014   -1.081730
     95          6           0       -7.450383    2.328789   -2.384363
     96          6           0       -7.435054    3.703371   -2.908245
     97          6           0       -7.628915    4.641584   -1.769430
     98          6           0       -7.563309    3.719045   -0.653767
     99          6           0       -7.328702    4.014830   -4.372862
    100          6           0       -7.826239    6.125439   -1.695840
    101          8           0       -7.735891    6.762571   -0.587354
    102          6           0       -8.035777    6.823070   -2.972905
    103          7           0       -7.365692    2.043455    1.897717
    104          6           0       -7.204288    3.376718    1.832229
    105          6           0       -7.039594    3.974530    3.209133
    106          6           0       -7.367118    2.790833    4.233423
    107          6           0       -7.587168    1.639534    3.227688
    108          6           0       -5.659432    4.551571    3.523106
    109          6           0       -8.466308    3.063939    5.296371
    110          6           0       -9.813599    3.195819    4.623449
    111          7           0       -8.143602   -0.750599    1.543477
    112          6           0       -7.979812   -0.768627    2.945951
    113          6           0       -8.081530   -2.177642    3.378086
    114          6           0       -8.276012   -2.889741    2.184950
    115          6           0       -8.274040   -1.990343    1.084686
    116          6           0       -7.946217   -2.649882    4.714049
    117          6           0       -8.471916   -4.198940    1.605007
    118          8           0       -8.646604   -5.330844    2.054450
    119          6           0       -8.303830   -4.083660    0.028659
    120          6           0       -9.454721   -4.807044   -0.615312
    121          8           0      -10.618424   -4.389528   -0.480874
    122          8           0       -8.973326   -5.739744   -1.457151
    123          6           0      -10.077025   -6.476638   -2.128453
    124          1           0       -6.603060    1.289631   -4.021543
    125          1           0       -7.197899    5.093223    0.896830
    126          1           0       -7.757166    0.146641    4.724787
    127          1           0       -7.301750   -3.462002   -2.877853
    128          1           0       -7.222337   -1.174949   -4.521065
    129          1           0       -5.202729   -2.450964   -2.722984
    130          1           0       -5.006820   -0.698902   -2.937971
    131          1           0       -4.960225   -1.710543   -4.350089
    132          1           0       -9.485419   -1.642810   -3.920898
    133          1           0       -9.947825   -2.977507   -2.802873
    134          1           0       -8.338841   -4.081084   -4.876723
    135          1           0       -9.226466   -2.806729   -5.633692
    136          1           0       -7.032344    3.131247   -4.951526
    137          1           0       -6.491254    4.710821   -4.491778
    138          1           0       -8.233301    4.478970   -4.771562
    139          1           0       -7.183950    6.645907   -3.625187
    140          1           0       -8.246365    7.860968   -2.707797
    141          1           0       -8.909239    6.387098   -3.470508
    142          1           0       -7.744718    4.781305    3.367322
    143          1           0       -6.488028    2.518259    4.835689
    144          1           0       -5.689236    5.616382    3.822030
    145          1           0       -5.027998    4.417896    2.654802
    146          1           0       -5.103457    4.024292    4.296451
    147          1           0       -8.277141    4.014486    5.801170
    148          1           0       -8.525639    2.298458    6.062864
    149          1           0       -9.823041    4.238583    4.292332
    150          1           0      -10.616253    2.999209    5.331354
    151          1           0       -9.869941    2.565259    3.728534
    152          1           0       -8.729699   -3.380127    4.867006
    153          1           0       -8.014845   -1.835635    5.432430
    154          1           0       -6.939745   -3.074514    4.669820
    155          1           0       -7.342996   -4.529222   -0.231793
    156          1           0       -9.918373   -7.540905   -1.928852
    157          1           0      -10.052156   -6.153311   -3.186084
    158          1           0      -11.080237   -6.336471   -1.743257
 ---------------------------------------------------------------------

 SCF Done:  E(RCAM-B3LYP) =  -4069.81181709     A.U. after   19 cycles

 Excitation energies and oscillator strengths:

 Excited State   1:      Singlet-A      1.6704 eV  742.24 nm  f=0.0438  <S**2>=0.000
     309 -> 315        0.10265
     310 -> 316        0.13877
     311 -> 313        0.40670
     312 -> 314        0.55285
 This state for optimization and/or second-order correction.
 Total Energy, E(TD-HF/TD-DFT) =  -4069.75043113
 Copying the excited state density for this state as the 1-particle RhoCI density.

 Excited State   2:      Singlet-A      1.6851 eV  735.75 nm  f=0.7115  <S**2>=0.000
     309 -> 315        0.14249
     310 -> 316       -0.10434
     311 -> 313        0.55207
     312 -> 314       -0.40621

 Excited State   3:      Singlet-A      2.1860 eV  567.17 nm  f=0.0626  <S**2>=0.000
     309 -> 313        0.13231
     310 -> 314        0.62892
     312 -> 316       -0.26701

 Excited State   4:      Singlet-A      2.1931 eV  565.33 nm  f=0.1314  <S**2>=0.000
     309 -> 313        0.62701
     310 -> 314       -0.13130
     311 -> 315       -0.27258

 Excited State   5:      Singlet-A      2.7651 eV  448.39 nm  f=0.0000  <S**2>=0.000
     312 -> 313        0.70710

 The electronic state is 1-A.
 Alpha  occ. eigenvalues --  -46.87836 -46.87589 -19.26321 -19.26295 -19.19105
 Alpha  occ. eigenvalues --  -19.19061 -19.18837 -19.18635 -19.18212 -19.17987
 Alpha  occ. eigenvalues --  -14.42488 -14.42424 -14.41489 -14.41290 -14.39440
 Alpha  occ. eigenvalues --  -14.39279 -14.38628 -14.38530 -10.39120 -10.39034
 Alpha  occ. eigenvalues --  -10.35469 -10.35311 -10.34432 -10.34165 -10.31712
 Alpha  occ. eigenvalues --  -10.31708 -10.31445 -10.31237 -10.30946 -10.30942
 Alpha  occ. eigenvalues --  -10.30611 -10.30547 -10.30330 -10.30291 -10.30245
 Alpha  occ. eigenvalues --  -10.30070 -10.29963 -10.29830 -10.29669 -10.29362
 Alpha  occ. eigenvalues --  -10.29330 -10.29291 -10.28780 -10.28645 -10.28593
 Alpha  occ. eigenvalues --  -10.28563 -10.28402 -10.28331 -10.28149 -10.28059
 Alpha  occ. eigenvalues --  -10.27930 -10.27832 -10.27764 -10.27620 -10.27592
 Alpha  occ. eigenvalues --  -10.27549 -10.27506 -10.27492 -10.27465 -10.27441
 Alpha  occ. eigenvalues --  -10.27413 -10.27393 -10.27370 -10.27319 -10.27197
 Alpha  occ. eigenvalues --  -10.26986 -10.26735 -10.26626 -10.26417 -10.26326
 Alpha  occ. eigenvalues --  -10.26264 -10.26246 -10.26099 -10.26062 -10.25928
 Alpha  occ. eigenvalues --  -10.25900 -10.25869 -10.25803 -10.25471 -10.25336
 Alpha  occ. eigenvalues --  -10.24873 -10.24826 -10.24803 -10.24759 -10.24693
 Alpha  occ. eigenvalues --  -10.24619  -3.16579  -3.16339  -1.91461  -1.91221
 Alpha  occ. eigenvalues --   -1.91047  -1.90889  -1.90810  -1.90646  -1.16670
 Alpha  occ. eigenvalues --   -1.16589  -1.08670  -1.08596  -1.07237  -1.06890
 Alpha  occ. eigenvalues --   -1.06886  -1.06683  -1.04618  -1.04422  -1.03800
 Alpha  occ. eigenvalues --   -1.03592  -1.03273  -1.02969  -1.02451  -1.02041
 Alpha  occ. eigenvalues --   -0.92011  -0.91918  -0.89566  -0.89433  -0.89221
 Alpha  occ. eigenvalues --   -0.89075  -0.88331  -0.88161  -0.87915  -0.87731
 Alpha  occ. eigenvalues --   -0.87710  -0.87613  -0.87303  -0.87039  -0.85015
 Alpha  occ. eigenvalues --   -0.84927  -0.83984  -0.83820  -0.82994  -0.82855
 Alpha  occ. eigenvalues --   -0.82681  -0.82579  -0.81624  -0.81535  -0.80632
 Alpha  occ. eigenvalues --   -0.80375  -0.78832  -0.78561  -0.77258  -0.77075
 Alpha  occ. eigenvalues --   -0.76971  -0.76834  -0.75959  -0.75767  -0.74939
 Alpha  occ. eigenvalues --   -0.74740  -0.72815  -0.72631  -0.71709  -0.71510
 Alpha  occ. eigenvalues --   -0.69959  -0.69705  -0.68907  -0.68755  -0.67677
 Alpha  occ. eigenvalues --   -0.67533  -0.67249  -0.67128  -0.65322  -0.65201
 Alpha  occ. eigenvalues --   -0.64893  -0.64704  -0.64659  -0.64587  -0.64313
 Alpha  occ. eigenvalues --   -0.64144  -0.62337  -0.62218  -0.60475  -0.60265
 Alpha  occ. eigenvalues --   -0.59839  -0.59722  -0.59027  -0.58925  -0.58543
 Alpha  occ. eigenvalues --   -0.58359  -0.57625  -0.57492  -0.57348  -0.57171
 Alpha  occ. eigenvalues --   -0.56348  -0.56135  -0.56014  -0.55824  -0.55552
 Alpha  occ. eigenvalues --   -0.55383  -0.55381  -0.55190  -0.54567  -0.54431
 Alpha  occ. eigenvalues --   -0.53928  -0.53838  -0.53335  -0.53253  -0.53160
 Alpha  occ. eigenvalues --   -0.53071  -0.52953  -0.52836  -0.52783  -0.52585
 Alpha  occ. eigenvalues --   -0.52493  -0.52352  -0.51964  -0.51829  -0.51648
 Alpha  occ. eigenvalues --   -0.51585  -0.51238  -0.51138  -0.50596  -0.50392
 Alpha  occ. eigenvalues --   -0.50075  -0.49947  -0.49904  -0.49802  -0.49545
 Alpha  occ. eigenvalues --   -0.49412  -0.49251  -0.49130  -0.49130  -0.49034
 Alpha  occ. eigenvalues --   -0.48631  -0.48500  -0.48490  -0.48475  -0.48316
 Alpha  occ. eigenvalues --   -0.48262  -0.47730  -0.47523  -0.47331  -0.47045
 Alpha  occ. eigenvalues --   -0.46838  -0.46643  -0.46588  -0.46481  -0.46399
 Alpha  occ. eigenvalues --   -0.46204  -0.46202  -0.46024  -0.45864  -0.45762
 Alpha  occ. eigenvalues --   -0.45242  -0.45144  -0.44619  -0.44539  -0.44450
 Alpha  occ. eigenvalues --   -0.44405  -0.44186  -0.44122  -0.44057  -0.44053
 Alpha  occ. eigenvalues --   -0.44014  -0.43865  -0.43535  -0.43494  -0.43422
 Alpha  occ. eigenvalues --   -0.43317  -0.43066  -0.42869  -0.42838  -0.42739
 Alpha  occ. eigenvalues --   -0.42701  -0.42491  -0.42055  -0.41905  -0.41743
 Alpha  occ. eigenvalues --   -0.41602  -0.41568  -0.41391  -0.41177  -0.40917
 Alpha  occ. eigenvalues --   -0.40907  -0.40847  -0.40650  -0.40626  -0.40615
 Alpha  occ. eigenvalues --   -0.40433  -0.40263  -0.40156  -0.39495  -0.39374
 Alpha  occ. eigenvalues --   -0.38511  -0.38289  -0.37781  -0.37586  -0.37363
 Alpha  occ. eigenvalues --   -0.37298  -0.37203  -0.37128  -0.36754  -0.36715
 Alpha  occ. eigenvalues --   -0.36233  -0.36155  -0.34326  -0.34184  -0.33811
 Alpha  occ. eigenvalues --   -0.33803  -0.33226  -0.33106  -0.31367  -0.31195
 Alpha  occ. eigenvalues --   -0.31073  -0.30902  -0.30072  -0.29892  -0.29485
 Alpha  occ. eigenvalues --   -0.29362  -0.29252  -0.29142  -0.24120  -0.23965
 Alpha  occ. eigenvalues --   -0.21167  -0.21046
 Alpha virt. eigenvalues --   -0.08812  -0.08719  -0.01787  -0.01613  -0.00089
 Alpha virt. eigenvalues --    0.00048   0.02159   0.02273   0.03076   0.03292
 Alpha virt. eigenvalues --    0.04683   0.04802   0.05058   0.05223   0.06148

 Mulliken charges:
               1
     1  Mg   0.838680
     2  C   -0.002937
     3  C   -0.094055
     4  C   -0.045849
     5  C   -0.064078
     6  N   -0.256811
     7  C   -0.052506
     8  C   -0.013996
     9  C   -0.087030
    10  C    0.046379
    11  C    0.104789
    12  C    0.053452
    13  C   -0.071888
    14  H    0.036253
    15  N   -0.433202
    16  C    0.168472
    17  C   -0.177042
    18  C   -0.003877
    19  C    0.148744
    20  C    0.110149
    21  C    0.012399
    22  O   -0.249428
    23  C    0.062408
    24  N   -0.341130
    25  C    0.041242
    26  C   -0.028244
    27  C   -0.023904
    28  C    0.074743
    29  C    0.076133
    30  C    0.035179
    31  C   -0.004459
    32  N   -0.310414
    33  C    0.080267
    34  C   -0.170005
    35  C    0.008311
    36  C    0.082832
    37  C    0.127390
    38  C    0.045951
    39  O   -0.188626
    40  C   -0.005263
    41  C    0.212846
    42  O   -0.257243
    43  O   -0.304753
    44  C    0.157689
    45  H   -0.017451
    46  H   -0.016691
    47  H   -0.041729
    48  H    0.000972
    49  H   -0.003937
    50  H    0.025489
    51  H    0.016467
    52  H    0.016778
    53  H    0.011200
    54  H    0.044054
    55  H    0.017915
    56  H    0.018013
    57  H    0.005927
    58  H    0.027003
    59  H    0.039731
    60  H    0.037379
    61  H    0.036023
    62  H    0.031580
    63  H    0.016616
    64  H    0.009467
    65  H    0.023353
    66  H    0.012658
    67  H    0.004748
    68  H    0.006415
    69  H    0.004468
    70  H    0.009021
    71  H    0.017453
    72  H    0.029006
    73  H    0.047219
    74  H    0.008866
    75  H    0.046071
    76  H    0.035210
    77  H    0.042968
    78  H    0.046523
    79  H    0.053647
    80  Mg   0.837961
    81  C   -0.016802
    82  C   -0.087560
    83  C   -0.045327
    84  C   -0.064976
    85  N   -0.254558
    86  C   -0.049850
    87  C   -0.015124
    88  C   -0.090507
    89  C    0.045728
    90  C    0.114247
    91  C    0.062544
    92  C   -0.077833
    93  H    0.034655
    94  N   -0.423601
    95  C    0.162951
    96  C   -0.174148
    97  C   -0.007654
    98  C    0.152244
    99  C    0.099139
   100  C    0.015742
   101  O   -0.253214
   102  C    0.061166
   103  N   -0.350038
   104  C    0.037638
   105  C   -0.019875
   106  C   -0.034703
   107  C    0.088897
   108  C    0.073617
   109  C    0.034804
   110  C   -0.007634
   111  N   -0.324044
   112  C    0.078352
   113  C   -0.163341
   114  C    0.002182
   115  C    0.096107
   116  C    0.131512
   117  C    0.042275
   118  O   -0.188157
   119  C    0.000942
   120  C    0.211214
   121  O   -0.251113
   122  O   -0.305586
   123  C    0.152089
   124  H   -0.019159
   125  H   -0.015524
   126  H   -0.040827
   127  H   -0.000687
   128  H   -0.004327
   129  H    0.022440
   130  H    0.015001
   131  H    0.016459
   132  H    0.013902
   133  H    0.037558
   134  H    0.020788
   135  H    0.019634
   136  H    0.008957
   137  H    0.026910
   138  H    0.039712
   139  H    0.038739
   140  H    0.036342
   141  H    0.033728
   142  H    0.014270
   143  H    0.012134
   144  H    0.024967
   145  H    0.012307
   146  H    0.005375
   147  H    0.006015
   148  H    0.003387
   149  H    0.010916
   150  H    0.017711
   151  H    0.030242
   152  H    0.045800
   153  H    0.008230
   154  H    0.046772
   155  H    0.035092
   156  H    0.043798
   157  H    0.049501
   158  H    0.053472
 Sum of Mulliken charges =  -0.00000

 Dipole moment (field-independent basis, Debye):
    X=              4.1748    Y=              0.7447    Z=              0.4750  Tot=              4.2672
 Quadrupole moment (field-independent basis, Debye-Ang):
   XX=           -521.0681   YY=           -547.4085   ZZ=           -450.4754
   XY=            -23.0336   XZ=             67.7862   YZ=             43.3240

 Normal termination of Gaussian 16 at Sat Sep 11 21:26:38 2021.
