 Gaussian 16, Revision A.03,
 Gaussian 16:  ES64L-G16RevA.03 25-Dec-2016

 -----------------------------------
 #p cam-b3lyp/Def2SVP td=(nstates=5)
 -----------------------------------

 --------------------------------
 TDDFT excited states in gaussian
 --------------------------------
 Symbolic Z-matrix:
 Charge =  0 Multiplicity = 1

                         Standard orientation:
 ---------------------------------------------------------------------
 Center     Atomic      Atomic             Coordinates (Angstroms)
 Number     Number       Type             X           Y           Z
 ---------------------------------------------------------------------
      1         12           0        4.841894    0.956431    0.416548
      2          6           0        5.419625   -2.180861   -1.206978
      3          6           0        5.753321    2.466624   -2.504357
      4          6           0        4.778268    3.728074    1.956213
      5          6           0        5.083197   -0.737937    3.452425
      6          7           0        5.482557    0.138942   -1.538422
      7          6           0        5.604840   -1.082245   -2.049226
      8          6           0        5.874494   -1.085931   -3.583712
      9          6           0        6.509546    0.369046   -3.731194
     10          6           0        5.849641    1.043822   -2.541603
     11          6           0        8.021889    0.396495   -3.534814
     12          6           0        4.556958   -1.223267   -4.418558
     13          6           0        4.753862   -1.561714   -5.899111
     14          1           0        3.787450   -2.430857   -6.553318
     15          7           0        4.735630    2.803983   -0.274908
     16          6           0        5.137827    3.236823   -1.493995
     17          6           0        4.849172    4.686736   -1.527356
     18          6           0        4.422149    5.097229   -0.160885
     19          6           0        4.656444    3.882496    0.577294
     20          6           0        4.940888    5.515542   -2.771710
     21          6           0        3.897624    6.383724    0.394034
     22          8           0        3.807428    6.595434    1.651657
     23          6           0        3.570874    7.436571   -0.584634
     24          7           0        5.136762    1.476978    2.416477
     25          6           0        4.994394    2.741438    2.828615
     26          6           0        4.973042    2.828572    4.325909
     27          6           0        4.886611    1.324484    4.855061
     28          6           0        4.959811    0.590662    3.493292
     29          6           0        6.176066    3.528800    4.972767
     30          6           0        3.719680    0.982807    5.815242
     31          6           0        2.403802    1.069445    5.074933
     32          7           0        5.011640   -1.113883    1.045859
     33          6           0        5.120617   -1.589206    2.360722
     34          6           0        5.320744   -3.047669    2.277642
     35          6           0        5.330927   -3.318928    0.910836
     36          6           0        5.174988   -2.103241    0.185523
     37          6           0        5.522921   -3.925189    3.379240
     38          6           0        5.461942   -4.349788   -0.106032
     39          8           0        5.521785   -5.580107   -0.090931
     40          6           0        5.646708   -3.639140   -1.519067
     41          6           0        4.708863   -4.305016   -2.488792
     42          8           0        3.472377   -4.194360   -2.361422
     43          8           0        5.407101   -4.763461   -3.538951
     44          6           0        4.532024   -5.409740   -4.553208
     45          1           0        6.243256    3.049482   -3.286776
     46          1           0        4.650819    4.647940    2.530705
     47          1           0        5.082015   -1.344283    4.360057
     48          1           0        6.588107   -1.839229   -3.917961
     49          1           0        6.205275    0.853774   -4.658653
     50          1           0        8.397457   -0.569537   -3.197693
     51          1           0        8.203374    1.160475   -2.778579
     52          1           0        8.523569    0.744075   -4.438298
     53          1           0        4.087538   -0.244083   -4.512919
     54          1           0        3.888678   -1.957159   -3.966751
     55          1           0        5.770284   -1.902467   -6.098315
     56          1           0        4.658861   -0.641362   -6.475416
     57          1           0        5.438311    4.975858   -3.576605
     58          1           0        5.607603    6.348853   -2.550819
     59          1           0        3.968198    5.895807   -3.084127
     60          1           0        4.463174    7.681476   -1.161149
     61          1           0        3.126463    8.250763   -0.013285
     62          1           0        2.844232    7.043779   -1.296431
     63          1           0        4.100293    3.380094    4.673123
     64          1           0        5.779955    1.033524    5.408191
     65          1           0        5.902982    4.375218    5.603408
     66          1           0        6.854551    3.836434    4.177588
     67          1           0        6.818415    2.878827    5.566349
     68          1           0        3.676683    1.703410    6.631225
     69          1           0        3.801010   -0.011420    6.254731
     70          1           0        2.168278    2.132116    5.120656
     71          1           0        1.641524    0.478371    5.583630
     72          1           0        2.520562    0.806518    4.023399
     73          1           0        4.910598   -4.805548    3.184311
     74          1           0        5.245558   -3.450151    4.319991
     75          1           0        6.595387   -4.103050    3.301537
     76          1           0        6.690403   -3.771524   -1.802435
     77          1           0        4.913243   -6.418894   -4.709776
     78          1           0        4.506449   -4.739525   -5.412604
     79          1           0        3.508732   -5.622336   -4.241735
     80         12           0       -5.675469    0.014069   -0.192203
     81          6           0       -2.950182   -2.086314    0.827723
     82          6           0       -3.502687    2.640416   -0.065812
     83          6           0       -8.146227    1.951629   -0.648985
     84          6           0       -7.833659   -2.513479    0.856339
     85          7           0       -3.528802    0.134819    0.326922
     86          6           0       -2.582444   -0.737790    0.638846
     87          6           0       -1.148201   -0.145241    0.676232
     88          6           0       -1.529555    1.390474    0.950137
     89          6           0       -2.927961    1.408298    0.336277
     90          6           0       -1.652027    1.725935    2.427232
     91          6           0       -0.395411   -0.315290   -0.689927
     92          6           0        1.108907   -0.040264   -0.633859
     93          1           0        1.994633   -0.840700   -1.474847
     94          7           0       -5.732042    1.899819   -0.808090
     95          6           0       -4.752524    2.821596   -0.697811
     96          6           0       -5.295005    4.057182   -1.283650
     97          6           0       -6.732251    3.834958   -1.599345
     98          6           0       -6.935644    2.531874   -0.998778
     99          6           0       -4.448068    5.264016   -1.565901
    100          6           0       -7.757657    4.664325   -2.311316
    101          8           0       -9.006311    4.379144   -2.262576
    102          6           0       -7.267271    5.872942   -2.989738
    103          7           0       -7.698374   -0.150296    0.258573
    104          6           0       -8.566200    0.813615   -0.095941
    105          6           0       -9.993809    0.355263    0.083602
    106          6           0       -9.905643   -1.208883    0.404964
    107          6           0       -8.370424   -1.372769    0.445424
    108          6           0      -10.784153    1.057588    1.187449
    109          6           0      -10.726987   -2.161903   -0.505972
    110          6           0      -10.154736   -2.158782   -1.905230
    111          7           0       -5.465528   -2.017852    0.511540
    112          6           0       -6.498118   -2.889653    0.921175
    113          6           0       -5.854646   -4.120617    1.424274
    114          6           0       -4.480740   -3.868482    1.292768
    115          6           0       -4.281561   -2.564095    0.765138
    116          6           0       -6.530070   -5.251949    1.962804
    117          6           0       -3.153428   -4.405100    1.490266
    118          8           0       -2.699523   -5.497603    1.828089
    119          6           0       -2.100925   -3.226823    1.316220
    120          6           0       -1.000170   -3.716536    0.415647
    121          8           0       -1.232359   -3.990018   -0.775113
    122          8           0        0.180366   -3.574382    1.045331
    123          6           0        1.304220   -4.036380    0.187823
    124          1           0       -2.965755    3.561897    0.161024
    125          1           0       -9.036681    2.536853   -0.890001
    126          1           0       -8.439687   -3.385973    1.109613
    127          1           0       -0.522054   -0.521274    1.476430
    128          1           0       -0.868034    2.063878    0.411360
    129          1           0       -1.578089    0.845306    3.047850
    130          1           0       -2.622335    2.190629    2.543887
    131          1           0       -0.917691    2.488262    2.702813
    132          1           0       -0.707474    0.485374   -1.372789
    133          1           0       -0.569398   -1.290248   -1.102035
    134          1           0        1.483694   -0.006832    0.396361
    135          1           0        1.292287    0.965912   -1.018554
    136          1           0       -3.469421    5.192255   -1.075486
    137          1           0       -4.933942    6.116568   -1.079143
    138          1           0       -4.354858    5.472770   -2.633793
    139          1           0       -6.779122    6.520717   -2.265470
    140          1           0       -8.131375    6.284007   -3.515311
    141          1           0       -6.501294    5.579843   -3.716369
    142          1           0      -10.562427    0.495315   -0.827537
    143          1           0      -10.272937   -1.438449    1.416025
    144          1           0      -11.713755    1.534154    0.823028
    145          1           0      -10.139748    1.789775    1.655621
    146          1           0      -11.064686    0.425484    2.028250
    147          1           0      -11.757725   -1.809163   -0.591404
    148          1           0      -10.765166   -3.182571   -0.140225
    149          1           0      -10.612022   -1.273360   -2.356891
    150          1           0      -10.438679   -3.064537   -2.437244
    151          1           0       -9.070720   -1.996835   -1.886744
    152          1           0       -6.052825   -6.127939    1.544027
    153          1           0       -7.592808   -5.228088    1.730884
    154          1           0       -6.339184   -5.103748    3.029041
    155          1           0       -1.732370   -2.967416    2.309422
    156          1           0        1.853228   -4.790836    0.759733
    157          1           0        1.856259   -3.121823   -0.099535
    158          1           0        1.054996   -4.590984   -0.709251
 ---------------------------------------------------------------------

 SCF Done:  E(RCAM-B3LYP) =  -4069.81803769     A.U. after   19 cycles

 Excitation energies and oscillator strengths:

 Excited State   1:      Singlet-A      1.6494 eV  751.70 nm  f=0.0052  <S**2>=0.000
     309 -> 315        0.12397
     310 -> 316       -0.11168
     311 -> 313        0.50804
     312 -> 314       -0.46337
 This state for optimization and/or second-order correction.
 Total Energy, E(TD-HF/TD-DFT) =  -4069.75742354
 Copying the excited state density for this state as the 1-particle RhoCI density.

 Excited State   2:      Singlet-A      1.6974 eV  730.44 nm  f=0.7009  <S**2>=0.000
     309 -> 315        0.12116
     310 -> 316        0.13178
     311 -> 313        0.46116
     312 -> 314        0.50579

 Excited State   3:      Singlet-A      2.1821 eV  568.20 nm  f=0.1129  <S**2>=0.000
     310 -> 314        0.64299
     312 -> 316       -0.27068

 Excited State   4:      Singlet-A      2.1899 eV  566.17 nm  f=0.0900  <S**2>=0.000
     309 -> 313        0.64154
     311 -> 315       -0.27567

 Excited State   5:      Singlet-A      2.3302 eV  532.08 nm  f=0.0000  <S**2>=0.000
     312 -> 313        0.70628

 The electronic state is 1-A.
 Alpha  occ. eigenvalues --  -46.88203 -46.87357 -19.26826 -19.24884 -19.19866
 Alpha  occ. eigenvalues --  -19.19242 -19.18634 -19.18479 -19.18044 -19.17591
 Alpha  occ. eigenvalues --  -14.42812 -14.42196 -14.41836 -14.41055 -14.39797
 Alpha  occ. eigenvalues --  -14.39053 -14.38964 -14.38282 -10.39783 -10.38006
 Alpha  occ. eigenvalues --  -10.35873 -10.35164 -10.34852 -10.33739 -10.31973
 Alpha  occ. eigenvalues --  -10.31779 -10.31316 -10.30968 -10.30967 -10.30911
 Alpha  occ. eigenvalues --  -10.30689 -10.30580 -10.30308 -10.30091 -10.30033
 Alpha  occ. eigenvalues --  -10.30030 -10.29883 -10.29632 -10.29594 -10.29467
 Alpha  occ. eigenvalues --  -10.29162 -10.29099 -10.29090 -10.28790 -10.28767
 Alpha  occ. eigenvalues --  -10.28441 -10.28434 -10.28356 -10.28190 -10.28096
 Alpha  occ. eigenvalues --  -10.28061 -10.27993 -10.27855 -10.27844 -10.27836
 Alpha  occ. eigenvalues --  -10.27803 -10.27797 -10.27684 -10.27647 -10.27371
 Alpha  occ. eigenvalues --  -10.27293 -10.27260 -10.27172 -10.27144 -10.27120
 Alpha  occ. eigenvalues --  -10.27039 -10.26841 -10.26524 -10.26523 -10.26416
 Alpha  occ. eigenvalues --  -10.26383 -10.26359 -10.26248 -10.26105 -10.25941
 Alpha  occ. eigenvalues --  -10.25742 -10.25680 -10.25646 -10.25571 -10.25250
 Alpha  occ. eigenvalues --  -10.25194 -10.25186 -10.25107 -10.24540 -10.24535
 Alpha  occ. eigenvalues --  -10.24385  -3.16885  -3.16108  -1.91767  -1.91355
 Alpha  occ. eigenvalues --   -1.91199  -1.90990  -1.90579  -1.90415  -1.17204
 Alpha  occ. eigenvalues --   -1.15274  -1.09107  -1.08148  -1.07646  -1.07379
 Alpha  occ. eigenvalues --   -1.06737  -1.05798  -1.04960  -1.04176  -1.04145
 Alpha  occ. eigenvalues --   -1.03626  -1.03358  -1.02799  -1.02739  -1.01802
 Alpha  occ. eigenvalues --   -0.92405  -0.91570  -0.89901  -0.89522  -0.89200
 Alpha  occ. eigenvalues --   -0.88817  -0.88656  -0.88219  -0.88039  -0.87954
 Alpha  occ. eigenvalues --   -0.87675  -0.87488  -0.87379  -0.86866  -0.85333
 Alpha  occ. eigenvalues --   -0.84674  -0.84312  -0.83574  -0.83371  -0.83020
 Alpha  occ. eigenvalues --   -0.82696  -0.82278  -0.81975  -0.80988  -0.80865
 Alpha  occ. eigenvalues --   -0.79698  -0.79183  -0.78350  -0.77573  -0.77283
 Alpha  occ. eigenvalues --   -0.76858  -0.76405  -0.76282  -0.75258  -0.75203
 Alpha  occ. eigenvalues --   -0.74298  -0.73145  -0.72390  -0.72041  -0.71182
 Alpha  occ. eigenvalues --   -0.70276  -0.69503  -0.69233  -0.68502  -0.68034
 Alpha  occ. eigenvalues --   -0.67572  -0.67229  -0.66956  -0.65650  -0.65246
 Alpha  occ. eigenvalues --   -0.64997  -0.64902  -0.64648  -0.64437  -0.64080
 Alpha  occ. eigenvalues --   -0.63773  -0.62728  -0.61222  -0.60835  -0.60153
 Alpha  occ. eigenvalues --   -0.60068  -0.59463  -0.59377  -0.58910  -0.58626
 Alpha  occ. eigenvalues --   -0.58070  -0.58006  -0.57715  -0.57042  -0.56698
 Alpha  occ. eigenvalues --   -0.56674  -0.56390  -0.55905  -0.55884  -0.55751
 Alpha  occ. eigenvalues --   -0.55283  -0.54997  -0.54928  -0.54595  -0.54242
 Alpha  occ. eigenvalues --   -0.53753  -0.53683  -0.53619  -0.53558  -0.53373
 Alpha  occ. eigenvalues --   -0.53143  -0.52827  -0.52815  -0.52772  -0.52368
 Alpha  occ. eigenvalues --   -0.52337  -0.52240  -0.51973  -0.51938  -0.51581
 Alpha  occ. eigenvalues --   -0.51542  -0.51254  -0.50969  -0.50672  -0.50391
 Alpha  occ. eigenvalues --   -0.50301  -0.50251  -0.49904  -0.49700  -0.49625
 Alpha  occ. eigenvalues --   -0.49597  -0.49443  -0.49181  -0.48991  -0.48858
 Alpha  occ. eigenvalues --   -0.48836  -0.48774  -0.48764  -0.48126  -0.48075
 Alpha  occ. eigenvalues --   -0.47997  -0.47896  -0.47675  -0.47196  -0.47169
 Alpha  occ. eigenvalues --   -0.46928  -0.46746  -0.46690  -0.46555  -0.46351
 Alpha  occ. eigenvalues --   -0.46230  -0.46179  -0.45949  -0.45596  -0.45563
 Alpha  occ. eigenvalues --   -0.45156  -0.44981  -0.44880  -0.44876  -0.44529
 Alpha  occ. eigenvalues --   -0.44443  -0.44402  -0.44212  -0.44002  -0.43875
 Alpha  occ. eigenvalues --   -0.43808  -0.43762  -0.43720  -0.43478  -0.43407
 Alpha  occ. eigenvalues --   -0.43170  -0.43085  -0.43041  -0.42634  -0.42514
 Alpha  occ. eigenvalues --   -0.42390  -0.42298  -0.42106  -0.41871  -0.41701
 Alpha  occ. eigenvalues --   -0.41501  -0.41307  -0.41242  -0.41219  -0.41204
 Alpha  occ. eigenvalues --   -0.41117  -0.40934  -0.40628  -0.40584  -0.40481
 Alpha  occ. eigenvalues --   -0.40366  -0.40151  -0.39975  -0.39810  -0.39197
 Alpha  occ. eigenvalues --   -0.38815  -0.38105  -0.38057  -0.37706  -0.37626
 Alpha  occ. eigenvalues --   -0.37301  -0.37229  -0.36975  -0.36838  -0.36621
 Alpha  occ. eigenvalues --   -0.36119  -0.35297  -0.34665  -0.34466  -0.33930
 Alpha  occ. eigenvalues --   -0.33594  -0.33040  -0.32659  -0.31769  -0.31442
 Alpha  occ. eigenvalues --   -0.31034  -0.30618  -0.30482  -0.29854  -0.29714
 Alpha  occ. eigenvalues --   -0.29470  -0.29039  -0.28880  -0.24481  -0.23705
 Alpha  occ. eigenvalues --   -0.21518  -0.20818
 Alpha virt. eigenvalues --   -0.09177  -0.08481  -0.02148  -0.01391  -0.00475
 Alpha virt. eigenvalues --    0.00259   0.01759   0.02553   0.02835   0.03517
 Alpha virt. eigenvalues --    0.04312   0.04382   0.05208   0.05839   0.06138

 Mulliken charges:
               1
     1  Mg   0.812216
     2  C   -0.004694
     3  C   -0.091979
     4  C   -0.045691
     5  C   -0.062333
     6  N   -0.252431
     7  C   -0.057806
     8  C   -0.013486
     9  C   -0.087145
    10  C    0.046729
    11  C    0.104598
    12  C    0.050291
    13  C   -0.073242
    14  H    0.039386
    15  N   -0.432054
    16  C    0.167410
    17  C   -0.177464
    18  C   -0.005095
    19  C    0.148194
    20  C    0.110241
    21  C    0.010632
    22  O   -0.249548
    23  C    0.063018
    24  N   -0.336220
    25  C    0.040593
    26  C   -0.028184
    27  C   -0.023991
    28  C    0.072571
    29  C    0.075951
    30  C    0.035134
    31  C   -0.005652
    32  N   -0.308228
    33  C    0.080635
    34  C   -0.169601
    35  C    0.006982
    36  C    0.079583
    37  C    0.128717
    38  C    0.041836
    39  O   -0.186866
    40  C   -0.005589
    41  C    0.219047
    42  O   -0.260188
    43  O   -0.302845
    44  C    0.155004
    45  H   -0.017461
    46  H   -0.016932
    47  H   -0.040983
    48  H    0.001323
    49  H   -0.003316
    50  H    0.025849
    51  H    0.016874
    52  H    0.017573
    53  H    0.011934
    54  H    0.044838
    55  H    0.018332
    56  H    0.018579
    57  H    0.006788
    58  H    0.027644
    59  H    0.038918
    60  H    0.038620
    61  H    0.035822
    62  H    0.029766
    63  H    0.015779
    64  H    0.010611
    65  H    0.023690
    66  H    0.012968
    67  H    0.005709
    68  H    0.007367
    69  H    0.006698
    70  H    0.007976
    71  H    0.019976
    72  H    0.026413
    73  H    0.048438
    74  H    0.010664
    75  H    0.046704
    76  H    0.037322
    77  H    0.045476
    78  H    0.048180
    79  H    0.057446
    80  Mg   0.836888
    81  C   -0.015386
    82  C   -0.088366
    83  C   -0.046207
    84  C   -0.065965
    85  N   -0.254168
    86  C   -0.049594
    87  C   -0.019640
    88  C   -0.090965
    89  C    0.045062
    90  C    0.113188
    91  C    0.088152
    92  C   -0.146098
    93  H    0.071804
    94  N   -0.423331
    95  C    0.162244
    96  C   -0.175148
    97  C   -0.008637
    98  C    0.151907
    99  C    0.099554
   100  C    0.014995
   101  O   -0.254001
   102  C    0.061498
   103  N   -0.350295
   104  C    0.037263
   105  C   -0.019567
   106  C   -0.034811
   107  C    0.089342
   108  C    0.073946
   109  C    0.034915
   110  C   -0.007557
   111  N   -0.324251
   112  C    0.078972
   113  C   -0.163765
   114  C    0.002875
   115  C    0.095732
   116  C    0.131531
   117  C    0.041775
   118  O   -0.185947
   119  C    0.002537
   120  C    0.210956
   121  O   -0.252214
   122  O   -0.311357
   123  C    0.149846
   124  H   -0.019544
   125  H   -0.016500
   126  H   -0.041117
   127  H    0.001859
   128  H   -0.004445
   129  H    0.022107
   130  H    0.013626
   131  H    0.018606
   132  H    0.008416
   133  H    0.041949
   134  H    0.039112
   135  H    0.031549
   136  H    0.008263
   137  H    0.025590
   138  H    0.037859
   139  H    0.037921
   140  H    0.035504
   141  H    0.033046
   142  H    0.013799
   143  H    0.011967
   144  H    0.024440
   145  H    0.011536
   146  H    0.005124
   147  H    0.005644
   148  H    0.003429
   149  H    0.010551
   150  H    0.017453
   151  H    0.030557
   152  H    0.046371
   153  H    0.007792
   154  H    0.046450
   155  H    0.033075
   156  H    0.042755
   157  H    0.055335
   158  H    0.058186
 Sum of Mulliken charges =  -0.00000

 Dipole moment (field-independent basis, Debye):
    X=              4.1587    Y=              6.8022    Z=             -2.1069  Tot=              8.2464
 Quadrupole moment (field-independent basis, Debye-Ang):
   XX=           -488.1617   YY=           -549.0259   ZZ=           -472.6761
   XY=             26.9518   XZ=            -28.0278   YZ=             -9.8174

 Normal termination of Gaussian 16 at Fri Sep 10 18:41:17 2021.
