 Gaussian 16, Revision A.03,
 Gaussian 16:  ES64L-G16RevA.03 25-Dec-2016

 -----------------------------------
 #p cam-b3lyp/Def2SVP td=(nstates=5)
 -----------------------------------

 --------------------------------
 TDDFT excited states in gaussian
 --------------------------------
 Symbolic Z-matrix:
 Charge =  0 Multiplicity = 1

                         Standard orientation:
 ---------------------------------------------------------------------
 Center     Atomic      Atomic             Coordinates (Angstroms)
 Number     Number       Type             X           Y           Z
 ---------------------------------------------------------------------
      1         12           0       15.774519    0.750370    0.296883
      2          6           0       16.150754   -2.705866   -0.554641
      3          6           0       16.629107    1.483408   -2.924204
      4          6           0       15.892440    3.805680    1.138190
      5          6           0       16.067490   -0.193403    3.638907
      6          7           0       16.299032   -0.535204   -1.427307
      7          6           0       16.348027   -1.846828   -1.638053
      8          6           0       16.554159   -2.224706   -3.135415
      9          6           0       17.244171   -0.879551   -3.641814
     10          6           0       16.662988    0.088667   -2.626578
     11          6           0       18.763084   -0.884141   -3.502593
     12          6           0       15.198852   -2.486744   -3.874475
     13          6           0       15.320279   -3.173169   -5.238084
     14          1           0       14.291641   -4.121069   -5.639004
     15          7           0       15.718979    2.386710   -0.808629
     16          6           0       16.088986    2.499870   -2.106926
     17          6           0       15.861371    3.914178   -2.473814
     18          6           0       15.508628    4.655507   -1.231197
     19          6           0       15.720906    3.637847   -0.233858
     20          6           0       15.937309    4.421635   -3.881106
     21          6           0       15.062691    6.061465   -0.981093
     22          8           0       15.033237    6.567039    0.192833
     23          6           0       14.741351    6.870219   -2.170925
     24          7           0       16.173064    1.710414    2.107162
     25          6           0       16.101821    3.041888    2.212447
     26          6           0       16.145595    3.479326    3.646557
     27          6           0       16.016789    2.148100    4.518911
     28          6           0       16.002718    1.112133    3.367892
     29          6           0       17.402918    4.249435    4.073269
     30          6           0       14.876670    2.101727    5.566955
     31          6           0       13.536456    2.079219    4.866658
     32          7           0       15.881372   -1.120046    1.392864
     33          6           0       16.023757   -1.278092    2.779017
     34          6           0       16.157860   -2.723527    3.037482
     35          6           0       16.100424   -3.308460    1.773995
     36          6           0       15.966933   -2.290860    0.786593
     37          6           0       16.367369   -3.326842    4.308918
     38          6           0       16.145521   -4.554679    1.026491
     39          8           0       16.153352   -5.748418    1.330494
     40          6           0       16.302389   -4.206303   -0.519424
     41          6           0       15.298014   -5.032487   -1.275705
     42          8           0       14.073640   -4.831896   -1.141404
     43          8           0       15.932413   -5.759923   -2.207861
     44          6           0       14.989708   -6.580760   -3.013893
     45          1           0       17.111000    1.840284   -3.836541
     46          1           0       15.828034    4.840049    1.482239
     47          1           0       16.077623   -0.568665    4.663859
     48          1           0       17.220660   -3.070940   -3.303007
     49          1           0       16.923115   -0.611369   -4.648156
     50          1           0       19.110568   -1.761846   -2.957790
     51          1           0       19.007862    0.025807   -2.954350
     52          1           0       19.241693   -0.784684   -4.477179
     53          1           0       14.768192   -1.534439   -4.183841
     54          1           0       14.518928   -3.058772   -3.242167
     55          1           0       16.312207   -3.602725   -5.381153
     56          1           0       15.241117   -2.410351   -6.012708
     57          1           0       16.377829    3.683237   -4.549877
     58          1           0       16.647486    5.248286   -3.883604
     59          1           0       14.969754    4.767110   -4.245546
     60          1           0       15.618915    6.926846   -2.815305
     61          1           0       14.355898    7.817492   -1.795494
     62          1           0       13.970040    6.358899   -2.747622
     63          1           0       15.312153    4.140891    3.879219
     64          1           0       16.918816    1.949922    5.098348
     65          1           0       17.192297    5.233153    4.493559
     66          1           0       18.060756    4.326518    3.208054
     67          1           0       18.040720    3.725121    4.784408
     68          1           0       14.897958    2.995093    6.190164
     69          1           0       14.933423    1.235758    6.226597
     70          1           0       13.348587    3.133506    4.666620
     71          1           0       12.771128    1.663993    5.523219
     72          1           0       13.598687    1.570989    3.904205
     73          1           0       15.710544   -4.195844    4.346143
     74          1           0       16.149331   -2.630535    5.118374
     75          1           0       17.427177   -3.572608    4.243633
     76          1           0       17.326989   -4.454772   -0.794344
     77          1           0       15.320758   -7.616596   -2.938501
     78          1           0       14.957568   -6.130800   -4.006319
     79          1           0       13.971899   -6.661591   -2.630657
     80         12           0      -15.945040   -0.802152    0.161908
     81          6           0      -15.897852    2.555263   -1.104807
     82          6           0      -15.144187    0.496621    3.212551
     83          6           0      -15.536528   -3.769866    1.207508
     84          6           0      -15.608905   -1.900390   -3.128471
     85          7           0      -15.593601    1.273526    0.840346
     86          6           0      -15.663930    2.473344    0.283717
     87          6           0      -15.552602    3.654374    1.284896
     88          6           0      -14.760097    2.899524    2.460051
     89          6           0      -15.216887    1.468686    2.183041
     90          6           0      -13.249869    2.957917    2.301498
     91          6           0      -16.956108    4.160007    1.771228
     92          6           0      -16.937035    5.502686    2.505123
     93          1           0      -18.063804    6.413009    2.320252
     94          7           0      -15.901996   -1.517212    2.012694
     95          6           0      -15.576736   -0.845608    3.137155
     96          6           0      -15.678489   -1.822130    4.232701
     97          6           0      -15.930130   -3.164849    3.642360
     98          6           0      -15.775230   -2.866291    2.232759
     99          6           0      -15.618332   -1.430002    5.680473
    100          6           0      -16.243979   -4.499702    4.247217
    101          8           0      -16.188784   -5.580140    3.559889
    102          6           0      -16.526750   -4.515562    5.689885
    103          7           0      -15.408117   -2.570964   -0.789616
    104          6           0      -15.354422   -3.731436   -0.112593
    105          6           0      -15.218143   -4.905488   -1.052488
    106          6           0      -15.435571   -4.308435   -2.520085
    107          6           0      -15.577596   -2.811827   -2.165941
    108          6           0      -13.883981   -5.649461   -0.998534
    109          6           0      -16.537666   -4.969351   -3.392586
    110          6           0      -17.900688   -4.689713   -2.801535
    111          7           0      -15.965934    0.115584   -1.793950
    112          6           0      -15.781118   -0.525009   -3.038762
    113          6           0      -15.764029    0.529811   -4.072931
    114          6           0      -15.918267    1.722294   -3.349962
    115          6           0      -16.003752    1.432789   -1.961298
    116          6           0      -15.572359    0.323770   -5.468255
    117          6           0      -16.017537    3.160986   -3.444844
    118          8           0      -16.095016    3.967194   -4.371003
    119          6           0      -15.881809    3.774296   -1.984766
    120          6           0      -16.980527    4.785127   -1.801593
    121          8           0      -18.171753    4.428227   -1.787084
    122          8           0      -16.438468    5.967735   -1.458079
    123          6           0      -17.489479    7.000094   -1.254510
    124          1           0      -14.672889    0.774152    4.155809
    125          1           0      -15.498248   -4.820513    1.504386
    126          1           0      -15.606594   -2.168962   -4.187028
    127          1           0      -14.974276    4.498573    0.929033
    128          1           0      -15.100934    3.225765    3.439220
    129          1           0      -12.960465    3.397571    1.358583
    130          1           0      -12.907898    1.933005    2.361869
    131          1           0      -12.801115    3.476071    3.153830
    132          1           0      -17.310686    3.508634    2.580384
    133          1           0      -17.649176    4.204830    0.953749
    134          1           0      -15.987317    6.033901    2.368044
    135          1           0      -16.984438    5.311391    3.579912
    136          1           0      -15.260856   -0.400246    5.803792
    137          1           0      -14.840791   -2.045066    6.146290
    138          1           0      -16.562666   -1.599214    6.202274
    139          1           0      -15.672973   -4.112894    6.229682
    140          1           0      -16.815547   -5.543002    5.919788
    141          1           0      -17.369754   -3.844382    5.888569
    142          1           0      -15.982966   -5.647340   -0.858042
    143          1           0      -14.529005   -4.400944   -3.136044
    144          1           0      -13.994241   -6.727891   -0.777375
    145          1           0      -13.256430   -5.171639   -0.257993
    146          1           0      -13.276716   -5.574581   -1.898984
    147          1           0      -16.417607   -6.055501   -3.395683
    148          1           0      -16.524799   -4.640975   -4.426513
    149          1           0      -17.997933   -5.459690   -2.030331
    150          1           0      -18.674884   -4.790275   -3.559523
    151          1           0      -17.919451   -3.715651   -2.299036
    152          1           0      -16.292896    0.950022   -5.977314
    153          1           0      -15.695331   -0.723568   -5.736081
    154          1           0      -14.535992    0.655518   -5.573843
    155          1           0      -14.892360    4.227078   -1.910306
    156          1           0      -17.243675    7.840138   -1.911468
    157          1           0      -17.505636    7.199478   -0.166508
    158          1           0      -18.495034    6.762916   -1.581695
 ---------------------------------------------------------------------

 SCF Done:  E(RCAM-B3LYP) =  -4069.81178203     A.U. after   19 cycles

 Excitation energies and oscillator strengths:

 Excited State   1:      Singlet-A      1.6754 eV  740.03 nm  f=0.2622  <S**2>=0.000
     310 -> 316        0.17001
     311 -> 314        0.13834
     312 -> 313        0.67196
     310 <- 316        0.10249
 This state for optimization and/or second-order correction.
 Total Energy, E(TD-HF/TD-DFT) =  -4069.75021243
 Copying the excited state density for this state as the 1-particle RhoCI density.

 Excited State   2:      Singlet-A      1.6801 eV  737.97 nm  f=0.5149  <S**2>=0.000
     309 -> 315        0.17198
     311 -> 314        0.67160
     312 -> 313       -0.13830
     309 <- 315        0.10297

 Excited State   3:      Singlet-A      2.1862 eV  567.13 nm  f=0.0970  <S**2>=0.000
     310 -> 313        0.64218
     312 -> 316       -0.27300

 Excited State   4:      Singlet-A      2.1926 eV  565.48 nm  f=0.1034  <S**2>=0.000
     309 -> 314        0.64040
     311 -> 315       -0.27817

 Excited State   5:      Singlet-A      3.0658 eV  404.42 nm  f=0.0000  <S**2>=0.000
     311 -> 313        0.70711

 The electronic state is 1-A.
 Alpha  occ. eigenvalues --  -46.87796 -46.87661 -19.26353 -19.26281 -19.19165
 Alpha  occ. eigenvalues --  -19.19017 -19.18814 -19.18711 -19.18169 -19.18054
 Alpha  occ. eigenvalues --  -14.42498 -14.42449 -14.41450 -14.41359 -14.39402
 Alpha  occ. eigenvalues --  -14.39352 -14.38601 -14.38586 -10.39094 -10.39077
 Alpha  occ. eigenvalues --  -10.35447 -10.35388 -10.34389 -10.34231 -10.31761
 Alpha  occ. eigenvalues --  -10.31675 -10.31404 -10.31309 -10.31023 -10.30907
 Alpha  occ. eigenvalues --  -10.30569 -10.30507 -10.30398 -10.30362 -10.30207
 Alpha  occ. eigenvalues --  -10.30140 -10.29921 -10.29895 -10.29630 -10.29436
 Alpha  occ. eigenvalues --  -10.29401 -10.29254 -10.28745 -10.28719 -10.28655
 Alpha  occ. eigenvalues --  -10.28532 -10.28405 -10.28364 -10.28140 -10.28113
 Alpha  occ. eigenvalues --  -10.28002 -10.27792 -10.27726 -10.27669 -10.27583
 Alpha  occ. eigenvalues --  -10.27518 -10.27504 -10.27484 -10.27478 -10.27466
 Alpha  occ. eigenvalues --  -10.27462 -10.27452 -10.27402 -10.27375 -10.27157
 Alpha  occ. eigenvalues --  -10.27053 -10.26700 -10.26693 -10.26410 -10.26407
 Alpha  occ. eigenvalues --  -10.26231 -10.26189 -10.26138 -10.26023 -10.26020
 Alpha  occ. eigenvalues --  -10.25935 -10.25855 -10.25845 -10.25438 -10.25394
 Alpha  occ. eigenvalues --  -10.24874 -10.24832 -10.24788 -10.24732 -10.24693
 Alpha  occ. eigenvalues --  -10.24690  -3.16539  -3.16411  -1.91420  -1.91293
 Alpha  occ. eigenvalues --   -1.91007  -1.90881  -1.90849  -1.90718  -1.16647
 Alpha  occ. eigenvalues --   -1.16630  -1.08661  -1.08626  -1.07215  -1.06964
 Alpha  occ. eigenvalues --   -1.06949  -1.06640  -1.04580  -1.04495  -1.03760
 Alpha  occ. eigenvalues --   -1.03663  -1.03233  -1.03039  -1.02411  -1.02112
 Alpha  occ. eigenvalues --   -0.91988  -0.91971  -0.89521  -0.89495  -0.89185
 Alpha  occ. eigenvalues --   -0.89151  -0.88289  -0.88220  -0.87870  -0.87796
 Alpha  occ. eigenvalues --   -0.87684  -0.87672  -0.87272  -0.87118  -0.85000
 Alpha  occ. eigenvalues --   -0.84980  -0.83939  -0.83876  -0.82966  -0.82929
 Alpha  occ. eigenvalues --   -0.82652  -0.82646  -0.81598  -0.81584  -0.80595
 Alpha  occ. eigenvalues --   -0.80443  -0.78796  -0.78635  -0.77218  -0.77145
 Alpha  occ. eigenvalues --   -0.76933  -0.76899  -0.75921  -0.75839  -0.74899
 Alpha  occ. eigenvalues --   -0.74802  -0.72774  -0.72700  -0.71671  -0.71581
 Alpha  occ. eigenvalues --   -0.69910  -0.69758  -0.68871  -0.68827  -0.67640
 Alpha  occ. eigenvalues --   -0.67602  -0.67216  -0.67199  -0.65284  -0.65272
 Alpha  occ. eigenvalues --   -0.64853  -0.64771  -0.64655  -0.64620  -0.64271
 Alpha  occ. eigenvalues --   -0.64204  -0.62296  -0.62281  -0.60441  -0.60338
 Alpha  occ. eigenvalues --   -0.59802  -0.59797  -0.58993  -0.58987  -0.58503
 Alpha  occ. eigenvalues --   -0.58426  -0.57583  -0.57557  -0.57309  -0.57237
 Alpha  occ. eigenvalues --   -0.56309  -0.56205  -0.55976  -0.55888  -0.55519
 Alpha  occ. eigenvalues --   -0.55452  -0.55340  -0.55249  -0.54524  -0.54489
 Alpha  occ. eigenvalues --   -0.53912  -0.53892  -0.53298  -0.53228  -0.53220
 Alpha  occ. eigenvalues --   -0.53142  -0.52913  -0.52903  -0.52754  -0.52666
 Alpha  occ. eigenvalues --   -0.52442  -0.52402  -0.51915  -0.51888  -0.51658
 Alpha  occ. eigenvalues --   -0.51614  -0.51203  -0.51195  -0.50570  -0.50472
 Alpha  occ. eigenvalues --   -0.50033  -0.49979  -0.49917  -0.49866  -0.49512
 Alpha  occ. eigenvalues --   -0.49487  -0.49213  -0.49203  -0.49105  -0.49094
 Alpha  occ. eigenvalues --   -0.48592  -0.48560  -0.48462  -0.48444  -0.48376
 Alpha  occ. eigenvalues --   -0.48337  -0.47693  -0.47594  -0.47296  -0.47117
 Alpha  occ. eigenvalues --   -0.46797  -0.46710  -0.46554  -0.46552  -0.46359
 Alpha  occ. eigenvalues --   -0.46271  -0.46163  -0.46087  -0.45825  -0.45821
 Alpha  occ. eigenvalues --   -0.45208  -0.45203  -0.44577  -0.44515  -0.44505
 Alpha  occ. eigenvalues --   -0.44476  -0.44145  -0.44128  -0.44086  -0.44078
 Alpha  occ. eigenvalues --   -0.44018  -0.43939  -0.43555  -0.43494  -0.43386
 Alpha  occ. eigenvalues --   -0.43384  -0.43026  -0.42933  -0.42903  -0.42698
 Alpha  occ. eigenvalues --   -0.42656  -0.42553  -0.42010  -0.41965  -0.41703
 Alpha  occ. eigenvalues --   -0.41670  -0.41531  -0.41459  -0.41140  -0.40989
 Alpha  occ. eigenvalues --   -0.40868  -0.40821  -0.40721  -0.40698  -0.40572
 Alpha  occ. eigenvalues --   -0.40493  -0.40230  -0.40227  -0.39444  -0.39426
 Alpha  occ. eigenvalues --   -0.38470  -0.38350  -0.37745  -0.37654  -0.37321
 Alpha  occ. eigenvalues --   -0.37266  -0.37261  -0.37200  -0.36774  -0.36712
 Alpha  occ. eigenvalues --   -0.36218  -0.36192  -0.34285  -0.34254  -0.33865
 Alpha  occ. eigenvalues --   -0.33768  -0.33186  -0.33176  -0.31344  -0.31271
 Alpha  occ. eigenvalues --   -0.31035  -0.30973  -0.30028  -0.29958  -0.29448
 Alpha  occ. eigenvalues --   -0.29327  -0.29321  -0.29213  -0.24080  -0.24037
 Alpha  occ. eigenvalues --   -0.21127  -0.21117
 Alpha virt. eigenvalues --   -0.08792  -0.08773  -0.01749  -0.01684  -0.00057
 Alpha virt. eigenvalues --   -0.00028   0.02201   0.02205   0.03122   0.03228
 Alpha virt. eigenvalues --    0.04720   0.04729   0.05100   0.05162   0.06181

 Mulliken charges:
               1
     1  Mg   0.838739
     2  C   -0.002920
     3  C   -0.094083
     4  C   -0.045867
     5  C   -0.063952
     6  N   -0.256779
     7  C   -0.052480
     8  C   -0.014017
     9  C   -0.087006
    10  C    0.046331
    11  C    0.104804
    12  C    0.053466
    13  C   -0.071837
    14  H    0.036175
    15  N   -0.433139
    16  C    0.168409
    17  C   -0.177115
    18  C   -0.004007
    19  C    0.148707
    20  C    0.110165
    21  C    0.012288
    22  O   -0.249651
    23  C    0.062470
    24  N   -0.341120
    25  C    0.041242
    26  C   -0.028195
    27  C   -0.023923
    28  C    0.074788
    29  C    0.076169
    30  C    0.035143
    31  C   -0.004492
    32  N   -0.310479
    33  C    0.080404
    34  C   -0.169742
    35  C    0.008355
    36  C    0.082970
    37  C    0.127317
    38  C    0.046096
    39  O   -0.188457
    40  C   -0.005339
    41  C    0.212886
    42  O   -0.257115
    43  O   -0.304796
    44  C    0.157688
    45  H   -0.017566
    46  H   -0.016855
    47  H   -0.041538
    48  H    0.000947
    49  H   -0.003991
    50  H    0.025471
    51  H    0.016437
    52  H    0.016691
    53  H    0.011225
    54  H    0.044117
    55  H    0.017872
    56  H    0.017988
    57  H    0.005909
    58  H    0.026843
    59  H    0.039607
    60  H    0.037368
    61  H    0.035653
    62  H    0.031538
    63  H    0.016527
    64  H    0.009440
    65  H    0.023190
    66  H    0.012569
    67  H    0.004740
    68  H    0.006320
    69  H    0.004697
    70  H    0.008765
    71  H    0.018077
    72  H    0.029022
    73  H    0.047543
    74  H    0.009070
    75  H    0.046002
    76  H    0.035158
    77  H    0.042946
    78  H    0.046432
    79  H    0.053686
    80  Mg   0.837880
    81  C   -0.016834
    82  C   -0.087780
    83  C   -0.045467
    84  C   -0.064889
    85  N   -0.254584
    86  C   -0.049858
    87  C   -0.015102
    88  C   -0.090504
    89  C    0.045786
    90  C    0.114366
    91  C    0.062520
    92  C   -0.077896
    93  H    0.034879
    94  N   -0.423502
    95  C    0.162928
    96  C   -0.174579
    97  C   -0.007763
    98  C    0.152118
    99  C    0.099344
   100  C    0.015593
   101  O   -0.253128
   102  C    0.061183
   103  N   -0.350068
   104  C    0.037530
   105  C   -0.019854
   106  C   -0.034813
   107  C    0.088920
   108  C    0.073629
   109  C    0.034736
   110  C   -0.007674
   111  N   -0.324107
   112  C    0.078445
   113  C   -0.163152
   114  C    0.002219
   115  C    0.096191
   116  C    0.131489
   117  C    0.042354
   118  O   -0.187946
   119  C    0.000938
   120  C    0.211235
   121  O   -0.251011
   122  O   -0.305631
   123  C    0.152030
   124  H   -0.019599
   125  H   -0.015526
   126  H   -0.040479
   127  H   -0.000658
   128  H   -0.004301
   129  H    0.022448
   130  H    0.014471
   131  H    0.016334
   132  H    0.013928
   133  H    0.037660
   134  H    0.020791
   135  H    0.019618
   136  H    0.008789
   137  H    0.026234
   138  H    0.039824
   139  H    0.038305
   140  H    0.036447
   141  H    0.033886
   142  H    0.014415
   143  H    0.012425
   144  H    0.025192
   145  H    0.011696
   146  H    0.005699
   147  H    0.006286
   148  H    0.003621
   149  H    0.010952
   150  H    0.017911
   151  H    0.030090
   152  H    0.045968
   153  H    0.008501
   154  H    0.046918
   155  H    0.035016
   156  H    0.043884
   157  H    0.049515
   158  H    0.053571
 Sum of Mulliken charges =  -0.00000

 Dipole moment (field-independent basis, Debye):
    X=              3.8736    Y=              2.6360    Z=              0.6491  Tot=              4.7302
 Quadrupole moment (field-independent basis, Debye-Ang):
   XX=           -518.8586   YY=           -542.3488   ZZ=           -456.3355
   XY=             38.7044   XZ=           -121.9044   YZ=             39.7753

 Normal termination of Gaussian 16 at Sun Sep 12 14:08:00 2021.
