 Gaussian 16, Revision A.03,
 Gaussian 16:  ES64L-G16RevA.03 25-Dec-2016

 -----------------------------------
 #p cam-b3lyp/Def2SVP td=(nstates=5)
 -----------------------------------

 --------------------------------
 TDDFT excited states in gaussian
 --------------------------------
 Symbolic Z-matrix:
 Charge =  0 Multiplicity = 1

                         Standard orientation:
 ---------------------------------------------------------------------
 Center     Atomic      Atomic             Coordinates (Angstroms)
 Number     Number       Type             X           Y           Z
 ---------------------------------------------------------------------
      1         12           0       15.747318   -0.670604    0.289494
      2          6           0       16.043964    2.535164   -1.274879
      3          6           0       16.698596    0.828814    3.203234
      4          6           0       15.933189   -3.557896    1.587809
      5          6           0       15.933876   -2.077051   -2.893707
      6          7           0       16.275250    1.423499    0.775977
      7          6           0       16.291448    2.567616    0.099291
      8          6           0       16.521978    3.816214    1.002193
      9          6           0       17.262201    3.109562    2.224776
     10          6           0       16.685274    1.712063    2.083088
     11          6           0       18.776636    3.034863    2.059214
     12          6           0       15.177551    4.480344    1.452947
     13          6           0       15.311391    5.880311    2.059193
     14          1           0       14.265670    6.858462    1.800283
     15          7           0       15.765058   -1.223873    2.185919
     16          6           0       16.168773   -0.479073    3.243073
     17          6           0       15.990696   -1.334501    4.436058
     18          6           0       15.630143   -2.701059    3.966360
     19          6           0       15.789396   -2.553607    2.542185
     20          6           0       16.114473   -0.825527    5.839402
     21          6           0       15.219063   -3.945691    4.687495
     22          8           0       15.176413   -5.084707    4.108360
     23          6           0       14.949364   -3.810227    6.130393
     24          7           0       16.130398   -2.562734   -0.504691
     25          6           0       16.095033   -3.654920    0.266583
     26          6           0       16.117446   -4.907184   -0.558810
     27          6           0       15.929784   -4.441043   -2.074478
     28          6           0       15.913132   -2.908881   -1.849821
     29          6           0       17.385966   -5.763407   -0.441552
     30          6           0       14.764333   -5.082807   -2.868381
     31          6           0       13.440964   -4.627625   -2.295141
     32          7           0       15.774344    0.069210   -1.750847
     33          6           0       15.879295   -0.693563   -2.922954
     34          6           0       15.965593    0.254409   -4.048996
     35          6           0       15.921248    1.511078   -3.448445
     36          6           0       15.840490    1.357879   -2.034832
     37          6           0       16.127521   -0.092028   -5.419468
     38          6           0       15.948128    2.947688   -3.670449
     39          8           0       15.914407    3.672030   -4.666282
     40          6           0       16.151478    3.668173   -2.264968
     41          6           0       15.141911    4.779826   -2.173799
     42          8           0       13.920983    4.531089   -2.104296
     43          8           0       15.776982    5.939377   -1.944305
     44          6           0       14.830373    7.079127   -1.813718
     45          1           0       17.212005    1.140363    4.114985
     46          1           0       15.890458   -4.573946    1.985619
     47          1           0       15.908960   -2.442920   -3.921798
     48          1           0       17.167626    4.579045    0.566703
     49          1           0       16.972890    3.543742    3.181598
     50          1           0       19.085732    3.364634    1.067432
     51          1           0       19.034464    1.986294    2.209279
     52          1           0       19.280826    3.584207    2.854695
     53          1           0       14.781914    3.942209    2.314309
     54          1           0       14.466681    4.511801    0.626509
     55          1           0       16.293653    6.309176    1.858829
     56          1           0       15.272560    5.787616    3.144596
     57          1           0       16.549255    0.172862    5.866432
     58          1           0       16.848007   -1.454956    6.342846
     59          1           0       15.166152   -0.865368    6.375529
     60          1           0       15.843190   -3.436035    6.629998
     61          1           0       14.582560   -4.781572    6.460233
     62          1           0       14.177513   -3.053895    6.275844
     63          1           0       15.298119   -5.570667   -0.285097
     64          1           0       16.811776   -4.652318   -2.679562
     65          1           0       17.193862   -6.790213   -0.129350
     66          1           0       18.066031   -5.265444    0.248981
     67          1           0       17.991416   -5.809735   -1.346373
     68          1           0       14.796575   -6.168074   -2.778376
     69          1           0       14.780522   -4.837463   -3.930358
     70          1           0       13.288300   -5.312345   -1.461665
     71          1           0       12.648688   -4.732902   -3.037048
     72          1           0       13.511290   -3.621408   -1.881536
     73          1           0       15.445262    0.548181   -5.978597
     74          1           0       15.910528   -1.146324   -5.589693
     75          1           0       17.181064    0.146224   -5.564856
     76          1           0       17.174718    4.042158   -2.249568
     77          1           0       15.129599    7.830274   -2.544797
     78          1           0       14.834679    7.366593   -0.762171
     79          1           0       13.801880    6.889369   -2.122801
     80         12           0      -15.975197    0.388957    0.566474
     81          6           0      -15.369507   -1.219456   -2.583956
     82          6           0      -16.083480   -2.720774    1.963779
     83          6           0      -16.953341    1.743547    3.263839
     84          6           0      -16.943512    3.218970   -1.222127
     85          7           0      -15.741407   -1.632067   -0.301300
     86          6           0      -15.452970   -2.117424   -1.499461
     87          6           0      -15.162881   -3.642169   -1.523000
     88          6           0      -15.969871   -4.060944   -0.199264
     89          6           0      -15.901976   -2.736187    0.557752
     90          6           0      -17.430748   -4.386210   -0.462670
     91          6           0      -13.632609   -3.961620   -1.387992
     92          6           0      -13.246206   -5.406383   -1.712201
     93          1           0      -11.964644   -5.653909   -2.367030
     94          7           0      -15.971383   -0.303553    2.426307
     95          6           0      -15.994415   -1.596203    2.813339
     96          6           0      -16.001065   -1.575708    4.284288
     97          6           0      -16.146510   -0.164274    4.733090
     98          6           0      -16.388921    0.492194    3.464081
     99          6           0      -15.797317   -2.808526    5.116193
    100          6           0      -16.090974    0.485157    6.082664
    101          8           0      -16.481195    1.692257    6.265616
    102          6           0      -15.654180   -0.363336    7.201029
    103          7           0      -17.024428    2.138822    0.965781
    104          6           0      -17.273446    2.522337    2.230236
    105          6           0      -17.793516    3.939241    2.278110
    106          6           0      -17.612628    4.513576    0.796553
    107          6           0      -17.078469    3.244615    0.096688
    108          6           0      -19.250729    4.098738    2.711094
    109          6           0      -16.808634    5.834141    0.646962
    110          6           0      -15.358968    5.599235    1.005643
    111          7           0      -15.964378    0.997923   -1.506467
    112          6           0      -16.439854    2.215757   -2.040222
    113          6           0      -16.325785    2.120907   -3.510062
    114          6           0      -15.809265    0.835495   -3.732338
    115          6           0      -15.634077    0.168318   -2.489886
    116          6           0      -16.722011    3.121685   -4.441495
    117          6           0      -15.382376   -0.112618   -4.736110
    118          8           0      -15.223686   -0.074281   -5.955566
    119          6           0      -15.197435   -1.531772   -4.044592
    120          6           0      -13.876182   -2.096549   -4.489387
    121          8           0      -12.810694   -1.544996   -4.162109
    122          8           0      -14.077609   -3.307522   -5.040168
    123          6           0      -12.794871   -3.913151   -5.486958
    124          1           0      -16.362166   -3.650203    2.461153
    125          1           0      -17.205612    2.297633    4.170930
    126          1           0      -17.132810    4.095490   -1.845464
    127          1           0      -15.561183   -4.167140   -2.382964
    128          1           0      -15.449648   -4.841196    0.350217
    129          1           0      -17.714989   -4.167101   -1.481170
    130          1           0      -17.997284   -3.775387    0.227973
    131          1           0      -17.641046   -5.424193   -0.189377
    132          1           0      -13.351447   -3.925371   -0.327621
    133          1           0      -13.048753   -3.288670   -1.985389
    134          1           0      -14.051624   -5.942447   -2.228819
    135          1           0      -13.120916   -5.951127   -0.773285
    136          1           0      -15.882745   -3.720145    4.512002
    137          1           0      -16.639183   -2.865708    5.814654
    138          1           0      -14.866218   -2.782798    5.686328
    139          1           0      -16.318871   -1.219772    7.285608
    140          1           0      -15.593320    0.300852    8.065337
    141          1           0      -14.658496   -0.759148    6.971767
    142          1           0      -17.209831    4.542510    2.962558
    143          1           0      -18.580529    4.746559    0.328880
    144          1           0      -19.375185    4.759648    3.589595
    145          1           0      -19.656045    3.116314    2.913871
    146          1           0      -19.923304    4.471577    1.940486
    147          1           0      -17.183127    6.586684    1.345240
    148          1           0      -16.863265    6.262713   -0.348192
    149          1           0      -15.358584    5.679591    2.096811
    150          1           0      -14.724551    6.359039    0.553708
    151          1           0      -15.050693    4.578772    0.750163
    152          1           0      -15.937478    3.184183   -5.183863
    153          1           0      -16.883726    4.079424   -3.951239
    154          1           0      -17.654766    2.686623   -4.810218
    155          1           0      -16.035201   -2.158245   -4.353236
    156          1           0      -12.908546   -4.155644   -6.548077
    157          1           0      -12.605240   -4.755389   -4.795286
    158          1           0      -11.919708   -3.274347   -5.508574
 ---------------------------------------------------------------------

 SCF Done:  E(RCAM-B3LYP) =  -4069.81174493     A.U. after   19 cycles

 Excitation energies and oscillator strengths:

 Excited State   1:      Singlet-A      1.6753 eV  740.06 nm  f=0.2126  <S**2>=0.000
     310 -> 316       -0.16854
     311 -> 313        0.66637
     312 -> 314        0.16318
     310 <- 316       -0.10160
 This state for optimization and/or second-order correction.
 Total Energy, E(TD-HF/TD-DFT) =  -4069.75017810
 Copying the excited state density for this state as the 1-particle RhoCI density.

 Excited State   2:      Singlet-A      1.6801 eV  737.95 nm  f=0.5648  <S**2>=0.000
     309 -> 315        0.17055
     311 -> 313       -0.16313
     312 -> 314        0.66600
     309 <- 315        0.10210

 Excited State   3:      Singlet-A      2.1861 eV  567.16 nm  f=0.0961  <S**2>=0.000
     310 -> 313        0.64214
     311 -> 316        0.27295

 Excited State   4:      Singlet-A      2.1925 eV  565.50 nm  f=0.1042  <S**2>=0.000
     309 -> 314        0.64037
     312 -> 315       -0.27812

 Excited State   5:      Singlet-A      3.0605 eV  405.11 nm  f=0.0000  <S**2>=0.000
     312 -> 313        0.70711

 The electronic state is 1-A.
 Alpha  occ. eigenvalues --  -46.87761 -46.87660 -19.26341 -19.26242 -19.19153
 Alpha  occ. eigenvalues --  -19.18978 -19.18783 -19.18716 -19.18132 -19.18049
 Alpha  occ. eigenvalues --  -14.42497 -14.42415 -14.41415 -14.41359 -14.39368
 Alpha  occ. eigenvalues --  -14.39352 -14.38600 -14.38551 -10.39083 -10.39038
 Alpha  occ. eigenvalues --  -10.35417 -10.35393 -10.34352 -10.34226 -10.31745
 Alpha  occ. eigenvalues --  -10.31635 -10.31369 -10.31308 -10.31023 -10.30874
 Alpha  occ. eigenvalues --  -10.30534 -10.30473 -10.30398 -10.30360 -10.30173
 Alpha  occ. eigenvalues --  -10.30142 -10.29895 -10.29886 -10.29596 -10.29437
 Alpha  occ. eigenvalues --  -10.29401 -10.29220 -10.28716 -10.28712 -10.28646
 Alpha  occ. eigenvalues --  -10.28497 -10.28404 -10.28330 -10.28139 -10.28081
 Alpha  occ. eigenvalues --  -10.28001 -10.27758 -10.27692 -10.27669 -10.27550
 Alpha  occ. eigenvalues --  -10.27520 -10.27483 -10.27469 -10.27468 -10.27465
 Alpha  occ. eigenvalues --  -10.27449 -10.27418 -10.27378 -10.27368 -10.27120
 Alpha  occ. eigenvalues --  -10.27047 -10.26687 -10.26665 -10.26417 -10.26381
 Alpha  occ. eigenvalues --  -10.26200 -10.26151 -10.26139 -10.26026 -10.25985
 Alpha  occ. eigenvalues --  -10.25935 -10.25850 -10.25807 -10.25406 -10.25402
 Alpha  occ. eigenvalues --  -10.24872 -10.24797 -10.24753 -10.24731 -10.24690
 Alpha  occ. eigenvalues --  -10.24653  -3.16504  -3.16410  -1.91386  -1.91292
 Alpha  occ. eigenvalues --   -1.90972  -1.90881  -1.90814  -1.90718  -1.16635
 Alpha  occ. eigenvalues --   -1.16591  -1.08656  -1.08590  -1.07185  -1.06968
 Alpha  occ. eigenvalues --   -1.06938  -1.06600  -1.04546  -1.04495  -1.03726
 Alpha  occ. eigenvalues --   -1.03663  -1.03199  -1.03039  -1.02376  -1.02111
 Alpha  occ. eigenvalues --   -0.91986  -0.91936  -0.89495  -0.89486  -0.89151
 Alpha  occ. eigenvalues --   -0.89149  -0.88254  -0.88221  -0.87835  -0.87793
 Alpha  occ. eigenvalues --   -0.87683  -0.87638  -0.87240  -0.87121  -0.84998
 Alpha  occ. eigenvalues --   -0.84946  -0.83903  -0.83877  -0.82935  -0.82933
 Alpha  occ. eigenvalues --   -0.82651  -0.82613  -0.81592  -0.81547  -0.80560
 Alpha  occ. eigenvalues --   -0.80440  -0.78763  -0.78636  -0.77183  -0.77144
 Alpha  occ. eigenvalues --   -0.76897  -0.76896  -0.75886  -0.75836  -0.74865
 Alpha  occ. eigenvalues --   -0.74804  -0.72739  -0.72699  -0.71637  -0.71581
 Alpha  occ. eigenvalues --   -0.69874  -0.69759  -0.68837  -0.68826  -0.67606
 Alpha  occ. eigenvalues --   -0.67601  -0.67198  -0.67183  -0.65269  -0.65250
 Alpha  occ. eigenvalues --   -0.64818  -0.64769  -0.64652  -0.64585  -0.64235
 Alpha  occ. eigenvalues --   -0.64204  -0.62274  -0.62259  -0.60409  -0.60340
 Alpha  occ. eigenvalues --   -0.59795  -0.59768  -0.58992  -0.58952  -0.58468
 Alpha  occ. eigenvalues --   -0.58425  -0.57551  -0.57547  -0.57274  -0.57236
 Alpha  occ. eigenvalues --   -0.56275  -0.56204  -0.55939  -0.55882  -0.55486
 Alpha  occ. eigenvalues --   -0.55451  -0.55304  -0.55247  -0.54487  -0.54486
 Alpha  occ. eigenvalues --   -0.53910  -0.53858  -0.53264  -0.53227  -0.53186
 Alpha  occ. eigenvalues --   -0.53140  -0.52900  -0.52878  -0.52722  -0.52668
 Alpha  occ. eigenvalues --   -0.52404  -0.52401  -0.51884  -0.51879  -0.51656
 Alpha  occ. eigenvalues --   -0.51580  -0.51200  -0.51160  -0.50540  -0.50476
 Alpha  occ. eigenvalues --   -0.49998  -0.49980  -0.49885  -0.49869  -0.49487
 Alpha  occ. eigenvalues --   -0.49480  -0.49201  -0.49179  -0.49103  -0.49060
 Alpha  occ. eigenvalues --   -0.48556  -0.48556  -0.48428  -0.48411  -0.48377
 Alpha  occ. eigenvalues --   -0.48339  -0.47660  -0.47594  -0.47263  -0.47118
 Alpha  occ. eigenvalues --   -0.46762  -0.46709  -0.46552  -0.46519  -0.46324
 Alpha  occ. eigenvalues --   -0.46270  -0.46127  -0.46085  -0.45820  -0.45784
 Alpha  occ. eigenvalues --   -0.45210  -0.45168  -0.44541  -0.44512  -0.44475
 Alpha  occ. eigenvalues --   -0.44473  -0.44126  -0.44110  -0.44077  -0.44053
 Alpha  occ. eigenvalues --   -0.43984  -0.43938  -0.43549  -0.43457  -0.43384
 Alpha  occ. eigenvalues --   -0.43351  -0.42992  -0.42926  -0.42899  -0.42661
 Alpha  occ. eigenvalues --   -0.42618  -0.42554  -0.41974  -0.41963  -0.41668
 Alpha  occ. eigenvalues --   -0.41668  -0.41497  -0.41457  -0.41106  -0.40989
 Alpha  occ. eigenvalues --   -0.40834  -0.40790  -0.40722  -0.40697  -0.40537
 Alpha  occ. eigenvalues --   -0.40494  -0.40224  -0.40196  -0.39426  -0.39407
 Alpha  occ. eigenvalues --   -0.38435  -0.38351  -0.37710  -0.37650  -0.37286
 Alpha  occ. eigenvalues --   -0.37266  -0.37227  -0.37198  -0.36765  -0.36674
 Alpha  occ. eigenvalues --   -0.36216  -0.36156  -0.34253  -0.34251  -0.33855
 Alpha  occ. eigenvalues --   -0.33730  -0.33175  -0.33151  -0.31313  -0.31275
 Alpha  occ. eigenvalues --   -0.31000  -0.30973  -0.29991  -0.29953  -0.29415
 Alpha  occ. eigenvalues --   -0.29327  -0.29286  -0.29211  -0.24045  -0.24036
 Alpha  occ. eigenvalues --   -0.21117  -0.21093
 Alpha virt. eigenvalues --   -0.08792  -0.08739  -0.01715  -0.01684  -0.00029
 Alpha virt. eigenvalues --   -0.00024   0.02208   0.02236   0.03160   0.03229
 Alpha virt. eigenvalues --    0.04731   0.04754   0.05139   0.05172   0.06187

 Mulliken charges:
               1
     1  Mg   0.838810
     2  C   -0.002933
     3  C   -0.094116
     4  C   -0.045898
     5  C   -0.063979
     6  N   -0.256789
     7  C   -0.052450
     8  C   -0.014027
     9  C   -0.086990
    10  C    0.046346
    11  C    0.104814
    12  C    0.053458
    13  C   -0.071836
    14  H    0.036237
    15  N   -0.433144
    16  C    0.168415
    17  C   -0.177155
    18  C   -0.004030
    19  C    0.148717
    20  C    0.110184
    21  C    0.012273
    22  O   -0.249682
    23  C    0.062482
    24  N   -0.341154
    25  C    0.041240
    26  C   -0.028164
    27  C   -0.023965
    28  C    0.074870
    29  C    0.076192
    30  C    0.035126
    31  C   -0.004500
    32  N   -0.310483
    33  C    0.080440
    34  C   -0.169692
    35  C    0.008367
    36  C    0.083015
    37  C    0.127304
    38  C    0.046148
    39  O   -0.188386
    40  C   -0.005337
    41  C    0.212888
    42  O   -0.257038
    43  O   -0.304828
    44  C    0.157669
    45  H   -0.017629
    46  H   -0.016888
    47  H   -0.041494
    48  H    0.000937
    49  H   -0.004023
    50  H    0.025463
    51  H    0.016414
    52  H    0.016636
    53  H    0.011225
    54  H    0.044177
    55  H    0.017838
    56  H    0.017944
    57  H    0.005875
    58  H    0.026769
    59  H    0.039556
    60  H    0.037319
    61  H    0.035586
    62  H    0.031533
    63  H    0.016529
    64  H    0.009428
    65  H    0.023155
    66  H    0.012527
    67  H    0.004721
    68  H    0.006310
    69  H    0.004743
    70  H    0.008745
    71  H    0.018187
    72  H    0.029029
    73  H    0.047634
    74  H    0.009109
    75  H    0.045980
    76  H    0.035127
    77  H    0.042952
    78  H    0.046398
    79  H    0.053770
    80  Mg   0.837893
    81  C   -0.016789
    82  C   -0.087787
    83  C   -0.045497
    84  C   -0.064889
    85  N   -0.254560
    86  C   -0.049836
    87  C   -0.015094
    88  C   -0.090490
    89  C    0.045775
    90  C    0.114368
    91  C    0.062512
    92  C   -0.077938
    93  H    0.035031
    94  N   -0.423499
    95  C    0.162925
    96  C   -0.174630
    97  C   -0.007811
    98  C    0.152097
    99  C    0.099377
   100  C    0.015570
   101  O   -0.253206
   102  C    0.061195
   103  N   -0.350080
   104  C    0.037509
   105  C   -0.019829
   106  C   -0.034792
   107  C    0.088921
   108  C    0.073665
   109  C    0.034720
   110  C   -0.007676
   111  N   -0.324129
   112  C    0.078461
   113  C   -0.163106
   114  C    0.002254
   115  C    0.096216
   116  C    0.131478
   117  C    0.042409
   118  O   -0.187796
   119  C    0.000901
   120  C    0.211279
   121  O   -0.250942
   122  O   -0.305672
   123  C    0.151991
   124  H   -0.019666
   125  H   -0.015599
   126  H   -0.040451
   127  H   -0.000642
   128  H   -0.004301
   129  H    0.022453
   130  H    0.014397
   131  H    0.016282
   132  H    0.013934
   133  H    0.037732
   134  H    0.020766
   135  H    0.019592
   136  H    0.008770
   137  H    0.026116
   138  H    0.039811
   139  H    0.038240
   140  H    0.036373
   141  H    0.033922
   142  H    0.014400
   143  H    0.012396
   144  H    0.025122
   145  H    0.011620
   146  H    0.005653
   147  H    0.006244
   148  H    0.003667
   149  H    0.010919
   150  H    0.017983
   151  H    0.030129
   152  H    0.046079
   153  H    0.008521
   154  H    0.046917
   155  H    0.035011
   156  H    0.043942
   157  H    0.049497
   158  H    0.053671
 Sum of Mulliken charges =  -0.00000

 Dipole moment (field-independent basis, Debye):
    X=              0.7022    Y=             -2.9426    Z=              6.9030  Tot=              7.5368
 Quadrupole moment (field-independent basis, Debye-Ang):
   XX=           -407.4712   YY=           -469.3595   ZZ=           -530.6367
   XY=             48.1232   XZ=             29.5074   YZ=             25.1525

 Normal termination of Gaussian 16 at Sun Sep 12 13:36:30 2021.
