 Gaussian 16, Revision A.03,
 Gaussian 16:  ES64L-G16RevA.03 25-Dec-2016

 -----------------------------------
 #p cam-b3lyp/Def2SVP td=(nstates=5)
 -----------------------------------

 --------------------------------
 TDDFT excited states in gaussian
 --------------------------------
 Symbolic Z-matrix:
 Charge =  0 Multiplicity = 1

                         Standard orientation:
 ---------------------------------------------------------------------
 Center     Atomic      Atomic             Coordinates (Angstroms)
 Number     Number       Type             X           Y           Z
 ---------------------------------------------------------------------
      1         12           0        7.872076   -0.680841    0.462644
      2          6           0        8.302193    1.894910   -1.985358
      3          6           0        8.940717    1.566047    2.797716
      4          6           0        7.935432   -3.056984    2.561823
      5          6           0        7.940195   -2.977935   -2.157352
      6          7           0        8.509929    1.433032    0.303489
      7          6           0        8.572062    2.321726   -0.683189
      8          6           0        8.877661    3.768703   -0.193047
      9          6           0        9.600878    3.420381    1.184496
     10          6           0        8.953706    2.075688    1.465376
     11          6           0       11.107071    3.221789    1.048685
     12          6           0        7.574664    4.605275    0.039502
     13          6           0        7.786600    6.113331    0.201371
     14          1           0        6.786473    7.022829   -0.337060
     15          7           0        7.891682   -0.645270    2.437790
     16          6           0        8.347790    0.358339    3.225205
     17          6           0        8.146147   -0.093241    4.618796
     18          6           0        7.711545   -1.517142    4.577331
     19          6           0        7.855964   -1.808301    3.173854
     20          6           0        8.316394    0.802934    5.806919
     21          6           0        7.250787   -2.468071    5.636373
     22          8           0        7.143190   -3.723989    5.422679
     23          6           0        7.010292   -1.895924    6.973479
     24          7           0        8.149243   -2.740670    0.267913
     25          6           0        8.071980   -3.550737    1.329424
     26          6           0        8.019997   -4.991211    0.914366
     27          6           0        7.832255   -4.987851   -0.671350
     28          6           0        7.894547   -3.459475   -0.913123
     29          6           0        9.246455   -5.838087    1.281263
     30          6           0        6.624546   -5.775640   -1.238136
     31          6           0        5.334170   -5.102934   -0.826440
     32          7           0        7.904154   -0.583674   -1.705436
     33          6           0        7.953383   -1.664848   -2.597240
     34          6           0        8.068957   -1.100397   -3.954481
     35          6           0        8.095798    0.278545   -3.755376
     36          6           0        8.029324    0.557034   -2.360272
     37          6           0        8.192545   -1.846581   -5.159624
     38          6           0        8.189993    1.580753   -4.395095
     39          8           0        8.176694    1.976917   -5.561444
     40          6           0        8.450158    2.675104   -3.267914
     41          6           0        7.498093    3.814117   -3.511900
     42          8           0        6.267607    3.660646   -3.371481
     43          8           0        8.192961    4.955070   -3.638103
     44          6           0        7.305759    6.129344   -3.852825
     45          1           0        9.482798    2.107711    3.575335
     46          1           0        7.848824   -3.905147    3.244141
     47          1           0        7.881493   -3.631188   -3.029859
     48          1           0        9.553332    4.333141   -0.835934
     49          1           0        9.348041    4.133778    1.968626
     50          1           0       11.416759    3.225299    0.003696
     51          1           0       11.315214    2.253443    1.504179
     52          1           0       11.649873    3.956057    1.644499
     53          1           0        7.166283    4.368800    1.022032
     54          1           0        6.853591    4.426181   -0.758812
     55          1           0        8.785598    6.411931   -0.117610
     56          1           0        7.759932    6.349738    1.265139
     57          1           0        8.800188    1.740367    5.535428
     58          1           0        9.025683    0.314722    6.474952
     59          1           0        7.375612    0.973314    6.330591
     60          1           0        7.929035   -1.436730    7.338993
     61          1           0        6.601200   -2.704956    7.577599
     62          1           0        6.278958   -1.091783    6.887118
     63          1           0        7.173287   -5.500081    1.373232
     64          1           0        8.693368   -5.414721   -1.186075
     65          1           0        9.008827   -6.714254    1.885059
     66          1           0        9.960753   -5.193088    1.792189
     67          1           0        9.834913   -6.182567    0.431282
     68          1           0        6.604672   -6.785194   -0.829050
     69          1           0        6.636480   -5.858382   -2.324995
     70          1           0        5.160789   -5.499989    0.173120
     71          1           0        4.526363   -5.383049   -1.503341
     72          1           0        5.460320   -4.024275   -0.731223
     73          1           0        7.534138   -1.367297   -5.884025
     74          1           0        7.921295   -2.891134   -5.008184
     75          1           0        9.254187   -1.717035   -5.369364
     76          1           0        9.490693    2.983430   -3.364578
     77          1           0        7.630351    6.612616   -4.774413
     78          1           0        7.340377    6.715888   -2.934581
     79          1           0        6.264539    5.909589   -4.091380
     80         12           0       -7.936911    0.679376    0.438865
     81          6           0       -8.112343   -1.858713   -2.092215
     82          6           0       -8.799606   -1.725268    2.698968
     83          6           0       -8.231441    2.970157    2.614417
     84          6           0       -8.217382    3.042346   -2.107391
     85          7           0       -8.372695   -1.477124    0.211188
     86          6           0       -8.347884   -2.344785   -0.789259
     87          6           0       -8.509495   -3.827442   -0.358938
     88          6           0       -9.275757   -3.591811    1.032542
     89          6           0       -8.761695   -2.191529    1.360592
     90          6           0      -10.786537   -3.523233    0.883517
     91          6           0       -7.128880   -4.540414   -0.140826
     92          6           0       -7.203733   -6.064220   -0.021723
     93          1           0       -6.113211   -6.860259   -0.578100
     94          7           0       -7.958337    0.573467    2.420505
     95          6           0       -8.314003   -0.487515    3.174889
     96          6           0       -8.177646   -0.050836    4.573061
     97          6           0       -7.870928    1.405383    4.581886
     98          6           0       -8.032416    1.717304    3.175925
     99          6           0       -8.258526   -0.999708    5.733458
    100          6           0       -7.506688    2.361869    5.676716
    101          8           0       -7.516588    3.630397    5.493522
    102          6           0       -7.228744    1.773975    6.995295
    103          7           0       -8.399952    2.701634    0.303179
    104          6           0       -8.410137    3.483435    1.397068
    105          6           0       -8.496427    4.943909    1.022974
    106          6           0       -8.297474    4.993617   -0.563071
    107          6           0       -8.216080    3.479268   -0.855487
    108          6           0       -9.800286    5.649857    1.394439
    109          6           0       -7.166934    5.912325   -1.102101
    110          6           0       -5.818195    5.363852   -0.695316
    111          7           0       -7.945259    0.644525   -1.721405
    112          6           0       -8.100068    1.745773   -2.591669
    113          6           0       -8.155136    1.209390   -3.967060
    114          6           0       -8.050840   -0.179577   -3.798586
    115          6           0       -7.959004   -0.488555   -2.414528
    116          6           0       -8.333438    1.976652   -5.152664
    117          6           0       -8.008250   -1.455379   -4.476223
    118          8           0       -7.959384   -1.813062   -5.652413
    119          6           0       -8.173437   -2.608015   -3.394306
    120          6           0       -7.116264   -3.645547   -3.655873
    121          8           0       -5.911912   -3.371047   -3.511716
    122          8           0       -7.705935   -4.843710   -3.820405
    123          6           0       -6.697361   -5.907434   -4.071569
    124          1           0       -9.284934   -2.347335    3.451540
    125          1           0       -8.229177    3.807234    3.316403
    126          1           0       -8.205220    3.721335   -2.962675
    127          1           0       -9.119498   -4.429015   -1.022092
    128          1           0       -8.951668   -4.303524    1.787387
    129          1           0      -11.089689   -3.526240   -0.152937
    130          1           0      -11.087886   -2.601193    1.363186
    131          1           0      -11.258539   -4.328110    1.454227
    132          1           0       -6.751735   -4.292062    0.859586
    133          1           0       -6.435157   -4.272019   -0.913707
    134          1           0       -8.173231   -6.456362   -0.352243
    135          1           0       -7.152703   -6.332513    1.036307
    136          1           0       -8.656938   -1.975207    5.428374
    137          1           0       -9.012806   -0.601080    6.420498
    138          1           0       -7.310143   -1.095038    6.266513
    139          1           0       -8.099748    1.217735    7.333544
    140          1           0       -6.900353    2.605069    7.622444
    141          1           0       -6.413698    1.049196    6.890419
    142          1           0       -7.703557    5.511413    1.494553
    143          1           0       -9.197436    5.364631   -1.075184
    144          1           0       -9.648233    6.537707    2.036837
    145          1           0      -10.448942    4.934294    1.882029
    146          1           0      -10.406767    5.973778    0.550366
    147          1           0       -7.243902    6.907845   -0.658070
    148          1           0       -7.189034    6.037650   -2.179502
    149          1           0       -5.693351    5.745515    0.322450
    150          1           0       -5.037891    5.737286   -1.355389
    151          1           0       -5.839818    4.269436   -0.636611
    152          1           0       -7.636419    1.587697   -5.882980
    153          1           0       -8.168140    3.036253   -4.969128
    154          1           0       -9.381741    1.756616   -5.371563
    155          1           0       -9.180299   -3.013960   -3.499240
    156          1           0       -6.973827   -6.394219   -5.011943
    157          1           0       -6.693051   -6.535978   -3.161261
    158          1           0       -5.682025   -5.594906   -4.285738
 ---------------------------------------------------------------------

 SCF Done:  E(RCAM-B3LYP) =  -4069.81163695     A.U. after   19 cycles

 Excitation energies and oscillator strengths:

 Excited State   1:      Singlet-A      1.6699 eV  742.48 nm  f=0.0178  <S**2>=0.000
     309 -> 315       -0.10429
     310 -> 316        0.13723
     311 -> 313        0.54748
     312 -> 314       -0.41394
 This state for optimization and/or second-order correction.
 Total Energy, E(TD-HF/TD-DFT) =  -4069.75027031
 Copying the excited state density for this state as the 1-particle RhoCI density.

 Excited State   2:      Singlet-A      1.6850 eV  735.80 nm  f=0.7400  <S**2>=0.000
     309 -> 315        0.14100
     310 -> 316        0.10607
     311 -> 313        0.41343
     312 -> 314        0.54667

 Excited State   3:      Singlet-A      2.1854 eV  567.33 nm  f=0.0596  <S**2>=0.000
     309 -> 314        0.13664
     310 -> 313        0.62802
     311 -> 316       -0.26643

 Excited State   4:      Singlet-A      2.1924 eV  565.53 nm  f=0.1343  <S**2>=0.000
     309 -> 314        0.62612
     310 -> 313       -0.13571
     312 -> 315       -0.27190

 Excited State   5:      Singlet-A      2.8009 eV  442.66 nm  f=0.0000  <S**2>=0.000
     312 -> 313        0.70710

 The electronic state is 1-A.
 Alpha  occ. eigenvalues --  -46.87691 -46.87595 -19.26275 -19.26168 -19.19080
 Alpha  occ. eigenvalues --  -19.18898 -19.18734 -19.18669 -19.18058 -19.17980
 Alpha  occ. eigenvalues --  -14.42434 -14.42346 -14.41346 -14.41295 -14.39300
 Alpha  occ. eigenvalues --  -14.39288 -14.38532 -14.38479 -10.39012 -10.38960
 Alpha  occ. eigenvalues --  -10.35369 -10.35348 -10.34278 -10.34157 -10.31685
 Alpha  occ. eigenvalues --  -10.31566 -10.31298 -10.31242 -10.30963 -10.30809
 Alpha  occ. eigenvalues --  -10.30462 -10.30403 -10.30332 -10.30292 -10.30109
 Alpha  occ. eigenvalues --  -10.30081 -10.29829 -10.29816 -10.29527 -10.29376
 Alpha  occ. eigenvalues --  -10.29337 -10.29154 -10.28658 -10.28648 -10.28593
 Alpha  occ. eigenvalues --  -10.28437 -10.28341 -10.28262 -10.28081 -10.28018
 Alpha  occ. eigenvalues --  -10.27936 -10.27688 -10.27625 -10.27607 -10.27485
 Alpha  occ. eigenvalues --  -10.27456 -10.27419 -10.27417 -10.27405 -10.27401
 Alpha  occ. eigenvalues --  -10.27395 -10.27355 -10.27319 -10.27299 -10.27048
 Alpha  occ. eigenvalues --  -10.26981 -10.26627 -10.26598 -10.26386 -10.26347
 Alpha  occ. eigenvalues --  -10.26143 -10.26074 -10.26065 -10.25973 -10.25914
 Alpha  occ. eigenvalues --  -10.25868 -10.25771 -10.25723 -10.25354 -10.25353
 Alpha  occ. eigenvalues --  -10.24806 -10.24726 -10.24687 -10.24643 -10.24628
 Alpha  occ. eigenvalues --  -10.24560  -3.16434  -3.16344  -1.91315  -1.91226
 Alpha  occ. eigenvalues --   -1.90902  -1.90815  -1.90744  -1.90652  -1.16568
 Alpha  occ. eigenvalues --   -1.16516  -1.08585  -1.08514  -1.07137  -1.06923
 Alpha  occ. eigenvalues --   -1.06866  -1.06521  -1.04478  -1.04432  -1.03658
 Alpha  occ. eigenvalues --   -1.03599  -1.03130  -1.02974  -1.02307  -1.02047
 Alpha  occ. eigenvalues --   -0.91921  -0.91866  -0.89428  -0.89415  -0.89090
 Alpha  occ. eigenvalues --   -0.89087  -0.88186  -0.88157  -0.87760  -0.87723
 Alpha  occ. eigenvalues --   -0.87621  -0.87571  -0.87182  -0.87067  -0.84938
 Alpha  occ. eigenvalues --   -0.84881  -0.83833  -0.83811  -0.82882  -0.82882
 Alpha  occ. eigenvalues --   -0.82594  -0.82550  -0.81528  -0.81477  -0.80493
 Alpha  occ. eigenvalues --   -0.80379  -0.78699  -0.78576  -0.77115  -0.77082
 Alpha  occ. eigenvalues --   -0.76834  -0.76831  -0.75820  -0.75775  -0.74799
 Alpha  occ. eigenvalues --   -0.74742  -0.72669  -0.72634  -0.71572  -0.71520
 Alpha  occ. eigenvalues --   -0.69800  -0.69689  -0.68773  -0.68766  -0.67540
 Alpha  occ. eigenvalues --   -0.67539  -0.67142  -0.67122  -0.65208  -0.65183
 Alpha  occ. eigenvalues --   -0.64748  -0.64705  -0.64589  -0.64517  -0.64166
 Alpha  occ. eigenvalues --   -0.64139  -0.62209  -0.62188  -0.60348  -0.60283
 Alpha  occ. eigenvalues --   -0.59734  -0.59702  -0.58929  -0.58884  -0.58400
 Alpha  occ. eigenvalues --   -0.58361  -0.57483  -0.57474  -0.57207  -0.57174
 Alpha  occ. eigenvalues --   -0.56207  -0.56140  -0.55870  -0.55820  -0.55425
 Alpha  occ. eigenvalues --   -0.55394  -0.55234  -0.55181  -0.54419  -0.54415
 Alpha  occ. eigenvalues --   -0.53851  -0.53794  -0.53201  -0.53167  -0.53124
 Alpha  occ. eigenvalues --   -0.53081  -0.52836  -0.52808  -0.52666  -0.52619
 Alpha  occ. eigenvalues --   -0.52329  -0.52328  -0.51810  -0.51800  -0.51599
 Alpha  occ. eigenvalues --   -0.51517  -0.51133  -0.51089  -0.50489  -0.50427
 Alpha  occ. eigenvalues --   -0.49931  -0.49923  -0.49827  -0.49807  -0.49433
 Alpha  occ. eigenvalues --   -0.49419  -0.49140  -0.49112  -0.49041  -0.48995
 Alpha  occ. eigenvalues --   -0.48493  -0.48487  -0.48369  -0.48347  -0.48315
 Alpha  occ. eigenvalues --   -0.48286  -0.47596  -0.47534  -0.47200  -0.47061
 Alpha  occ. eigenvalues --   -0.46693  -0.46644  -0.46494  -0.46455  -0.46255
 Alpha  occ. eigenvalues --   -0.46206  -0.46057  -0.46020  -0.45753  -0.45711
 Alpha  occ. eigenvalues --   -0.45148  -0.45103  -0.44471  -0.44450  -0.44414
 Alpha  occ. eigenvalues --   -0.44411  -0.44066  -0.44042  -0.44013  -0.43990
 Alpha  occ. eigenvalues --   -0.43918  -0.43882  -0.43484  -0.43386  -0.43323
 Alpha  occ. eigenvalues --   -0.43285  -0.42924  -0.42863  -0.42833  -0.42591
 Alpha  occ. eigenvalues --   -0.42544  -0.42489  -0.41902  -0.41896  -0.41603
 Alpha  occ. eigenvalues --   -0.41600  -0.41432  -0.41396  -0.41041  -0.40929
 Alpha  occ. eigenvalues --   -0.40769  -0.40736  -0.40670  -0.40639  -0.40469
 Alpha  occ. eigenvalues --   -0.40429  -0.40168  -0.40133  -0.39355  -0.39332
 Alpha  occ. eigenvalues --   -0.38368  -0.38289  -0.37645  -0.37591  -0.37218
 Alpha  occ. eigenvalues --   -0.37202  -0.37160  -0.37136  -0.36698  -0.36601
 Alpha  occ. eigenvalues --   -0.36151  -0.36085  -0.34188  -0.34181  -0.33784
 Alpha  occ. eigenvalues --   -0.33651  -0.33110  -0.33081  -0.31264  -0.31228
 Alpha  occ. eigenvalues --   -0.30933  -0.30910  -0.29916  -0.29883  -0.29349
 Alpha  occ. eigenvalues --   -0.29266  -0.29214  -0.29144  -0.23976  -0.23971
 Alpha  occ. eigenvalues --   -0.21053  -0.21024
 Alpha virt. eigenvalues --   -0.08729  -0.08672  -0.01649  -0.01622   0.00027
 Alpha virt. eigenvalues --    0.00036   0.02275   0.02308   0.03248   0.03313
 Alpha virt. eigenvalues --    0.04792   0.04820   0.05216   0.05242   0.06244

 Mulliken charges:
               1
     1  Mg   0.839160
     2  C   -0.002871
     3  C   -0.094132
     4  C   -0.045928
     5  C   -0.063879
     6  N   -0.256763
     7  C   -0.052383
     8  C   -0.014040
     9  C   -0.087002
    10  C    0.046323
    11  C    0.104863
    12  C    0.053449
    13  C   -0.071758
    14  H    0.036193
    15  N   -0.433084
    16  C    0.168367
    17  C   -0.177273
    18  C   -0.004170
    19  C    0.148704
    20  C    0.110224
    21  C    0.012169
    22  O   -0.249956
    23  C    0.062532
    24  N   -0.341212
    25  C    0.041253
    26  C   -0.028078
    27  C   -0.024020
    28  C    0.075010
    29  C    0.076266
    30  C    0.035103
    31  C   -0.004505
    32  N   -0.310574
    33  C    0.080668
    34  C   -0.169318
    35  C    0.008446
    36  C    0.083256
    37  C    0.127208
    38  C    0.046391
    39  O   -0.188206
    40  C   -0.005439
    41  C    0.212851
    42  O   -0.256653
    43  O   -0.304930
    44  C    0.157664
    45  H   -0.017806
    46  H   -0.017117
    47  H   -0.041348
    48  H    0.000863
    49  H   -0.004103
    50  H    0.025412
    51  H    0.016355
    52  H    0.016483
    53  H    0.011295
    54  H    0.044376
    55  H    0.017716
    56  H    0.017872
    57  H    0.005826
    58  H    0.026546
    59  H    0.039400
    60  H    0.037277
    61  H    0.035184
    62  H    0.031488
    63  H    0.016396
    64  H    0.009324
    65  H    0.022904
    66  H    0.012437
    67  H    0.004637
    68  H    0.006001
    69  H    0.004928
    70  H    0.008371
    71  H    0.018831
    72  H    0.029307
    73  H    0.048091
    74  H    0.009286
    75  H    0.045815
    76  H    0.034996
    77  H    0.042840
    78  H    0.046260
    79  H    0.053929
    80  Mg   0.838253
    81  C   -0.016733
    82  C   -0.087814
    83  C   -0.045582
    84  C   -0.064825
    85  N   -0.254567
    86  C   -0.049774
    87  C   -0.015096
    88  C   -0.090519
    89  C    0.045766
    90  C    0.114415
    91  C    0.062525
    92  C   -0.077848
    93  H    0.034916
    94  N   -0.423431
    95  C    0.162888
    96  C   -0.174727
    97  C   -0.007958
    98  C    0.152115
    99  C    0.099412
   100  C    0.015459
   101  O   -0.253445
   102  C    0.061245
   103  N   -0.350117
   104  C    0.037509
   105  C   -0.019744
   106  C   -0.034873
   107  C    0.089070
   108  C    0.073739
   109  C    0.034724
   110  C   -0.007698
   111  N   -0.324211
   112  C    0.078703
   113  C   -0.162767
   114  C    0.002327
   115  C    0.096459
   116  C    0.131403
   117  C    0.042643
   118  O   -0.187640
   119  C    0.000790
   120  C    0.211252
   121  O   -0.250573
   122  O   -0.305756
   123  C    0.152013
   124  H   -0.019836
   125  H   -0.015792
   126  H   -0.040298
   127  H   -0.000715
   128  H   -0.004374
   129  H    0.022399
   130  H    0.014346
   131  H    0.016132
   132  H    0.014018
   133  H    0.037910
   134  H    0.020642
   135  H    0.019541
   136  H    0.008723
   137  H    0.025900
   138  H    0.039667
   139  H    0.038194
   140  H    0.035998
   141  H    0.033869
   142  H    0.014296
   143  H    0.012302
   144  H    0.024899
   145  H    0.011525
   146  H    0.005577
   147  H    0.005989
   148  H    0.003836
   149  H    0.010601
   150  H    0.018554
   151  H    0.030378
   152  H    0.046509
   153  H    0.008684
   154  H    0.046762
   155  H    0.034880
   156  H    0.043819
   157  H    0.049336
   158  H    0.053797
 Sum of Mulliken charges =  -0.00000

 Dipole moment (field-independent basis, Debye):
    X=              0.1838    Y=             -0.3436    Z=              7.2904  Tot=              7.3008
 Quadrupole moment (field-independent basis, Debye-Ang):
   XX=           -452.7981   YY=           -460.4317   ZZ=           -539.8384
   XY=             30.8571   XZ=              4.7695   YZ=              1.1687

 Normal termination of Gaussian 16 at Sat Sep 11 22:27:08 2021.
