 Gaussian 16, Revision A.03,
 Gaussian 16:  ES64L-G16RevA.03 25-Dec-2016

 -----------------------------------
 #p cam-b3lyp/Def2SVP td=(nstates=5)
 -----------------------------------

 --------------------------------
 TDDFT excited states in gaussian
 --------------------------------
 Symbolic Z-matrix:
 Charge =  0 Multiplicity = 1

                         Standard orientation:
 ---------------------------------------------------------------------
 Center     Atomic      Atomic             Coordinates (Angstroms)
 Number     Number       Type             X           Y           Z
 ---------------------------------------------------------------------
      1         12           0       -5.167011    0.504851   -0.770316
      2          6           0       -5.551653   -2.551393    1.052769
      3          6           0       -6.471351    2.113105    1.941746
      4          6           0       -5.261160    3.148386   -2.519453
      5          6           0       -4.976478   -1.420455   -3.669032
      6          7           0       -5.881494   -0.234577    1.190145
      7          6           0       -5.919368   -1.421732    1.787137
      8          6           0       -6.314949   -1.344128    3.292084
      9          6           0       -7.107043    0.039427    3.273136
     10          6           0       -6.422943    0.694731    2.086330
     11          6           0       -8.592300   -0.113063    2.961271
     12          6           0       -5.064967   -1.275809    4.232620
     13          6           0       -5.349336   -1.526007    5.716496
     14          1           0       -4.356597   -2.234646    6.509999
     15          7           0       -5.310567    2.397999   -0.224209
     16          6           0       -5.856159    2.871085    0.922004
     17          6           0       -5.722665    4.342483    0.859964
     18          6           0       -5.227236    4.697528   -0.498928
     19          6           0       -5.272032    3.414350   -1.152247
     20          6           0       -6.003565    5.243924    2.022826
     21          6           0       -4.793744    5.990268   -1.114589
     22          8           0       -4.620738    6.119238   -2.374752
     23          6           0       -4.660761    7.140438   -0.202192
     24          7           0       -5.345291    0.844260   -2.822304
     25          6           0       -5.300256    2.083635   -3.323208
     26          6           0       -5.162510    2.064267   -4.816724
     27          6           0       -4.877071    0.544425   -5.214665
     28          6           0       -4.988026   -0.092771   -3.807561
     29          6           0       -6.372921    2.580084   -5.607198
     30          6           0       -3.604682    0.264105   -6.053036
     31          6           0       -2.371553    0.547461   -5.224663
     32          7           0       -5.068571   -1.611598   -1.241482
     33          6           0       -5.017186   -2.189663   -2.518147
     34          6           0       -5.071821   -3.651443   -2.332990
     35          6           0       -5.168531   -3.822808   -0.953452
     36          6           0       -5.200413   -2.548189   -0.318928
     37          6           0       -5.089142   -4.623038   -3.372287
     38          6           0       -5.277169   -4.785703    0.130471
     39          8           0       -5.208104   -6.013041    0.210252
     40          6           0       -5.652233   -3.999409    1.463474
     41          6           0       -4.735271   -4.486886    2.551985
     42          8           0       -3.510531   -4.251046    2.510060
     43          8           0       -5.468018   -4.941987    3.579850
     44          6           0       -4.619026   -5.413693    4.706287
     45          1           0       -7.082773    2.693789    2.635223
     46          1           0       -5.181694    4.032790   -3.155026
     47          1           0       -4.836534   -2.086957   -4.522052
     48          1           0       -6.972424   -2.144900    3.631075
     49          1           0       -6.933350    0.620225    4.178800
     50          1           0       -8.836446   -1.136199    2.675776
     51          1           0       -8.787670    0.569866    2.134270
     52          1           0       -9.201208    0.241828    3.793173
     53          1           0       -4.708800   -0.246887    4.282887
     54          1           0       -4.288913   -1.962837    3.893417
     55          1           0       -6.338222   -1.960686    5.865046
     56          1           0       -5.398603   -0.561600    6.222156
     57          1           0       -6.508318    4.712559    2.828693
     58          1           0       -6.731916    5.981123    1.685556
     59          1           0       -5.105017    5.749921    2.376254
     60          1           0       -5.618784    7.327183    0.283470
     61          1           0       -4.256498    7.954998   -0.802119
     62          1           0       -3.959704    6.881951    0.591944
     63          1           0       -4.325380    2.681487   -5.140266
     64          1           0       -5.686014    0.118270   -5.808530
     65          1           0       -6.136817    3.403559   -6.281622
     66          1           0       -7.143851    2.868203   -4.893094
     67          1           0       -6.892618    1.822567   -6.193286
     68          1           0       -3.568074    0.924289   -6.918924
     69          1           0       -3.545708   -0.762166   -6.415721
     70          1           0       -2.244078    1.623436   -5.338063
     71          1           0       -1.512320    0.008198   -5.624821
     72          1           0       -2.548308    0.349932   -4.167201
     73          1           0       -4.407661   -5.414706   -3.061138
     74          1           0       -4.784417   -4.189654   -4.324613
     75          1           0       -6.140211   -4.911136   -3.361883
     76          1           0       -6.696736   -4.224427    1.676786
     77          1           0       -4.905728   -6.444558    4.914503
     78          1           0       -4.735005   -4.684426    5.508237
     79          1           0       -3.556746   -5.534938    4.491346
     80         12           0        5.317515    0.757803    0.704533
     81          6           0        5.507634   -1.935607   -1.659462
     82          6           0        4.169295   -1.514179    2.974851
     83          6           0        4.712282    3.175004    2.668769
     84          6           0        5.372892    2.952763   -2.001898
     85          7           0        4.931488   -1.415149    0.557798
     86          6           0        5.098987   -2.343036   -0.372431
     87          6           0        4.889839   -3.798271    0.125671
     88          6           0        3.938523   -3.488117    1.381730
     89          6           0        4.393401   -2.062367    1.686685
     90          6           0        2.462013   -3.452193    1.024019
     91          6           0        6.232266   -4.474954    0.575103
     92          6           0        6.151983   -5.989330    0.779989
     93          1           0        7.313762   -6.801679    0.429523
     94          7           0        5.025400    0.775374    2.667420
     95          6           0        4.576793   -0.241832    3.432481
     96          6           0        4.517299    0.283242    4.805408
     97          6           0        4.810172    1.741717    4.762928
     98          6           0        4.840840    1.962819    3.331051
     99          6           0        4.284483   -0.592546    6.002164
    100          6           0        5.014516    2.770099    5.833842
    101          8           0        5.021336    4.024439    5.570344
    102          6           0        5.113029    2.269940    7.212831
    103          7           0        4.863939    2.760302    0.378062
    104          6           0        4.698692    3.608552    1.408141
    105          6           0        4.654722    5.041360    0.933241
    106          6           0        5.068843    4.995103   -0.610759
    107          6           0        5.199680    3.466888   -0.792007
    108          6           0        3.307569    5.748981    1.077573
    109          6           0        6.256429    5.895659   -1.048169
    110          6           0        7.540317    5.394416   -0.427073
    111          7           0        5.605575    0.588152   -1.430011
    112          6           0        5.564150    1.630473   -2.381822
    113          6           0        5.701699    1.008567   -3.714766
    114          6           0        5.791198   -0.365419   -3.445254
    115          6           0        5.694544   -0.586020   -2.044720
    116          6           0        5.682460    1.697563   -4.960182
    117          6           0        5.934805   -1.680202   -4.027856
    118          8           0        6.146813   -2.109757   -5.161118
    119          6           0        5.630593   -2.765511   -2.907164
    120          6           0        6.720553   -3.800979   -2.955302
    121          8           0        7.891930   -3.499537   -2.666107
    122          8           0        6.167019   -5.015982   -3.121832
    123          6           0        7.207596   -6.077682   -3.164647
    124          1           0        3.589566   -2.095476    3.692400
    125          1           0        4.612704    4.054165    3.309580
    126          1           0        5.497629    3.577190   -2.889136
    127          1           0        4.380523   -4.449340   -0.574678
    128          1           0        4.160855   -4.146301    2.217632
    129          1           0        2.303799   -3.524488   -0.041766
    130          1           0        2.091595   -2.506770    1.398218
    131          1           0        1.921629   -4.227068    1.575274
    132          1           0        6.467063   -4.158929    1.599671
    133          1           0        7.023560   -4.244656   -0.111520
    134          1           0        5.239577   -6.416188    0.346092
    135          1           0        6.059312   -6.190305    1.850050
    136          1           0        3.938182   -1.591179    5.708551
    137          1           0        3.440509   -0.163480    6.553055
    138          1           0        5.151477   -0.639855    6.664551
    139          1           0        4.207632    1.722554    7.463996
    140          1           0        5.346809    3.143467    7.824528
    141          1           0        5.939589    1.552632    7.266602
    142          1           0        5.371660    5.649280    1.471311
    143          1           0        4.245112    5.319577   -1.263457
    144          1           0        3.364192    6.677401    1.676655
    145          1           0        2.602996    5.055341    1.516877
    146          1           0        2.820346    6.010259    0.139726
    147          1           0        6.112676    6.915638   -0.683304
    148          1           0        6.381372    5.953193   -2.124310
    149          1           0        7.521941    5.840686    0.571721
    150          1           0        8.401230    5.737902   -0.997069
    151          1           0        7.518171    4.305593   -0.302062
    152          1           0        6.475583    1.274568   -5.562285
    153          1           0        5.813950    2.768963   -4.823894
    154          1           0        4.675548    1.448213   -5.305476
    155          1           0        4.650357   -3.192643   -3.122266
    156          1           0        7.065881   -6.626359   -4.100893
    157          1           0        7.091288   -6.648078   -2.223973
    158          1           0        8.240585   -5.763552   -3.257874
 ---------------------------------------------------------------------

 SCF Done:  E(RCAM-B3LYP) =  -4069.81234148     A.U. after   19 cycles

 Excitation energies and oscillator strengths:

 Excited State   1:      Singlet-A      1.6695 eV  742.66 nm  f=0.2459  <S**2>=0.000
     310 -> 316        0.14405
     311 -> 313       -0.37129
     312 -> 314        0.57723
 This state for optimization and/or second-order correction.
 Total Energy, E(TD-HF/TD-DFT) =  -4069.75098959
 Copying the excited state density for this state as the 1-particle RhoCI density.

 Excited State   2:      Singlet-A      1.6815 eV  737.35 nm  f=0.4582  <S**2>=0.000
     309 -> 315        0.14826
     311 -> 313        0.57642
     312 -> 314        0.37077

 Excited State   3:      Singlet-A      2.1838 eV  567.75 nm  f=0.0886  <S**2>=0.000
     309 -> 313       -0.13605
     310 -> 314        0.62862
     312 -> 316       -0.26404

 Excited State   4:      Singlet-A      2.1935 eV  565.24 nm  f=0.1074  <S**2>=0.000
     309 -> 313        0.62605
     310 -> 314        0.13482
     311 -> 315       -0.27251

 Excited State   5:      Singlet-A      2.4751 eV  500.92 nm  f=0.0000  <S**2>=0.000
     312 -> 313        0.70709

 The electronic state is 1-A.
 Alpha  occ. eigenvalues --  -46.87897 -46.87475 -19.26527 -19.26154 -19.19269
 Alpha  occ. eigenvalues --  -19.18975 -19.18901 -19.18606 -19.18310 -19.17887
 Alpha  occ. eigenvalues --  -14.42555 -14.42283 -14.41541 -14.41182 -14.39501
 Alpha  occ. eigenvalues --  -14.39174 -14.38692 -14.38420 -10.39316 -10.38902
 Alpha  occ. eigenvalues --  -10.35533 -10.35287 -10.34534 -10.34060 -10.31952
 Alpha  occ. eigenvalues --  -10.31565 -10.31518 -10.31072 -10.31023 -10.30806
 Alpha  occ. eigenvalues --  -10.30676 -10.30607 -10.30283 -10.30235 -10.30174
 Alpha  occ. eigenvalues --  -10.30012 -10.29975 -10.29736 -10.29731 -10.29344
 Alpha  occ. eigenvalues --  -10.29262 -10.29241 -10.28892 -10.28741 -10.28475
 Alpha  occ. eigenvalues --  -10.28413 -10.28383 -10.28240 -10.28220 -10.27895
 Alpha  occ. eigenvalues --  -10.27829 -10.27826 -10.27767 -10.27681 -10.27553
 Alpha  occ. eigenvalues --  -10.27546 -10.27519 -10.27505 -10.27443 -10.27386
 Alpha  occ. eigenvalues --  -10.27319 -10.27318 -10.27310 -10.27290 -10.27259
 Alpha  occ. eigenvalues --  -10.26888 -10.26858 -10.26480 -10.26430 -10.26344
 Alpha  occ. eigenvalues --  -10.26341 -10.26194 -10.26103 -10.26025 -10.25932
 Alpha  occ. eigenvalues --  -10.25762 -10.25717 -10.25483 -10.25440 -10.25316
 Alpha  occ. eigenvalues --  -10.24943 -10.24883 -10.24701 -10.24688 -10.24626
 Alpha  occ. eigenvalues --  -10.24526  -3.16640  -3.16225  -1.91521  -1.91108
 Alpha  occ. eigenvalues --   -1.91107  -1.90950  -1.90695  -1.90533  -1.16875
 Alpha  occ. eigenvalues --   -1.16450  -1.08777  -1.08493  -1.07302  -1.06887
 Alpha  occ. eigenvalues --   -1.06862  -1.06759  -1.04689  -1.04282  -1.03856
 Alpha  occ. eigenvalues --   -1.03477  -1.03333  -1.02867  -1.02510  -1.01932
 Alpha  occ. eigenvalues --   -0.92095  -0.91796  -0.89592  -0.89339  -0.89319
 Alpha  occ. eigenvalues --   -0.88832  -0.88356  -0.88077  -0.87971  -0.87779
 Alpha  occ. eigenvalues --   -0.87628  -0.87476  -0.87362  -0.86978  -0.85110
 Alpha  occ. eigenvalues --   -0.84742  -0.84006  -0.83743  -0.83043  -0.82813
 Alpha  occ. eigenvalues --   -0.82773  -0.82423  -0.81747  -0.81407  -0.80723
 Alpha  occ. eigenvalues --   -0.80258  -0.78890  -0.78474  -0.77318  -0.77068
 Alpha  occ. eigenvalues --   -0.76945  -0.76668  -0.76057  -0.75574  -0.74981
 Alpha  occ. eigenvalues --   -0.74648  -0.72871  -0.72516  -0.71777  -0.71364
 Alpha  occ. eigenvalues --   -0.69955  -0.69620  -0.68995  -0.68588  -0.67752
 Alpha  occ. eigenvalues --   -0.67431  -0.67354  -0.66987  -0.65419  -0.65027
 Alpha  occ. eigenvalues --   -0.64978  -0.64739  -0.64581  -0.64445  -0.64347
 Alpha  occ. eigenvalues --   -0.64047  -0.62467  -0.62095  -0.60527  -0.60194
 Alpha  occ. eigenvalues --   -0.59925  -0.59531  -0.59094  -0.58809  -0.58616
 Alpha  occ. eigenvalues --   -0.58246  -0.57747  -0.57407  -0.57370  -0.57084
 Alpha  occ. eigenvalues --   -0.56422  -0.56162  -0.56026  -0.55690  -0.55627
 Alpha  occ. eigenvalues --   -0.55447  -0.55280  -0.55094  -0.54653  -0.54328
 Alpha  occ. eigenvalues --   -0.54030  -0.53614  -0.53397  -0.53345  -0.53064
 Alpha  occ. eigenvalues --   -0.53058  -0.52947  -0.52856  -0.52705  -0.52483
 Alpha  occ. eigenvalues --   -0.52471  -0.52271  -0.52018  -0.51748  -0.51734
 Alpha  occ. eigenvalues --   -0.51429  -0.51312  -0.51018  -0.50646  -0.50340
 Alpha  occ. eigenvalues --   -0.50098  -0.50010  -0.49794  -0.49699  -0.49633
 Alpha  occ. eigenvalues --   -0.49335  -0.49279  -0.49223  -0.49004  -0.48824
 Alpha  occ. eigenvalues --   -0.48732  -0.48565  -0.48538  -0.48334  -0.48240
 Alpha  occ. eigenvalues --   -0.48184  -0.47802  -0.47397  -0.47395  -0.46953
 Alpha  occ. eigenvalues --   -0.46894  -0.46690  -0.46518  -0.46463  -0.46285
 Alpha  occ. eigenvalues --   -0.46270  -0.46104  -0.45962  -0.45927  -0.45629
 Alpha  occ. eigenvalues --   -0.45276  -0.45064  -0.44710  -0.44605  -0.44339
 Alpha  occ. eigenvalues --   -0.44248  -0.44247  -0.44198  -0.44137  -0.43931
 Alpha  occ. eigenvalues --   -0.43863  -0.43763  -0.43647  -0.43493  -0.43364
 Alpha  occ. eigenvalues --   -0.43167  -0.43137  -0.42898  -0.42745  -0.42726
 Alpha  occ. eigenvalues --   -0.42713  -0.42409  -0.42101  -0.41818  -0.41787
 Alpha  occ. eigenvalues --   -0.41659  -0.41479  -0.41248  -0.41227  -0.40981
 Alpha  occ. eigenvalues --   -0.40921  -0.40755  -0.40646  -0.40568  -0.40474
 Alpha  occ. eigenvalues --   -0.40387  -0.40292  -0.39976  -0.39483  -0.39292
 Alpha  occ. eigenvalues --   -0.38547  -0.38186  -0.37900  -0.37419  -0.37402
 Alpha  occ. eigenvalues --   -0.37394  -0.37090  -0.36964  -0.36905  -0.36592
 Alpha  occ. eigenvalues --   -0.36320  -0.36036  -0.34391  -0.34065  -0.33996
 Alpha  occ. eigenvalues --   -0.33678  -0.33295  -0.32993  -0.31432  -0.31163
 Alpha  occ. eigenvalues --   -0.31142  -0.30783  -0.30173  -0.29789  -0.29548
 Alpha  occ. eigenvalues --   -0.29429  -0.29170  -0.29044  -0.24184  -0.23848
 Alpha  occ. eigenvalues --   -0.21226  -0.20931
 Alpha virt. eigenvalues --   -0.08874  -0.08618  -0.01845  -0.01508  -0.00159
 Alpha virt. eigenvalues --    0.00139   0.02085   0.02370   0.03007   0.03397
 Alpha virt. eigenvalues --    0.04597   0.04877   0.04962   0.05354   0.06006

 Mulliken charges:
               1
     1  Mg   0.838718
     2  C   -0.003633
     3  C   -0.094087
     4  C   -0.045726
     5  C   -0.063591
     6  N   -0.256830
     7  C   -0.052643
     8  C   -0.014042
     9  C   -0.087053
    10  C    0.046275
    11  C    0.104744
    12  C    0.053528
    13  C   -0.071374
    14  H    0.034195
    15  N   -0.433199
    16  C    0.168573
    17  C   -0.176869
    18  C   -0.003785
    19  C    0.148787
    20  C    0.110040
    21  C    0.012257
    22  O   -0.249516
    23  C    0.062380
    24  N   -0.341150
    25  C    0.041431
    26  C   -0.028230
    27  C   -0.024074
    28  C    0.074824
    29  C    0.076095
    30  C    0.035009
    31  C   -0.004745
    32  N   -0.310329
    33  C    0.080134
    34  C   -0.169802
    35  C    0.008007
    36  C    0.082631
    37  C    0.127398
    38  C    0.045494
    39  O   -0.189111
    40  C   -0.005152
    41  C    0.213073
    42  O   -0.259068
    43  O   -0.304177
    44  C    0.158227
    45  H   -0.017400
    46  H   -0.016579
    47  H   -0.040945
    48  H    0.000859
    49  H   -0.003969
    50  H    0.025493
    51  H    0.016746
    52  H    0.016857
    53  H    0.011527
    54  H    0.042795
    55  H    0.018345
    56  H    0.018479
    57  H    0.005961
    58  H    0.027060
    59  H    0.040170
    60  H    0.037580
    61  H    0.035665
    62  H    0.031805
    63  H    0.016713
    64  H    0.009692
    65  H    0.023449
    66  H    0.012460
    67  H    0.005043
    68  H    0.006796
    69  H    0.005314
    70  H    0.008462
    71  H    0.019687
    72  H    0.028351
    73  H    0.047068
    74  H    0.009797
    75  H    0.046168
    76  H    0.035430
    77  H    0.043235
    78  H    0.046591
    79  H    0.051663
    80  Mg   0.837816
    81  C   -0.016861
    82  C   -0.087247
    83  C   -0.046187
    84  C   -0.065065
    85  N   -0.254884
    86  C   -0.048976
    87  C   -0.015275
    88  C   -0.090513
    89  C    0.045855
    90  C    0.114144
    91  C    0.062406
    92  C   -0.077738
    93  H    0.033642
    94  N   -0.423526
    95  C    0.162840
    96  C   -0.174434
    97  C   -0.008547
    98  C    0.152419
    99  C    0.099463
   100  C    0.015075
   101  O   -0.254070
   102  C    0.061382
   103  N   -0.350112
   104  C    0.037656
   105  C   -0.019746
   106  C   -0.034892
   107  C    0.088925
   108  C    0.073753
   109  C    0.034865
   110  C   -0.007566
   111  N   -0.324049
   112  C    0.078454
   113  C   -0.163490
   114  C    0.002136
   115  C    0.096178
   116  C    0.131580
   117  C    0.041975
   118  O   -0.188535
   119  C    0.001177
   120  C    0.211203
   121  O   -0.251391
   122  O   -0.305239
   123  C    0.152219
   124  H   -0.017806
   125  H   -0.016572
   126  H   -0.040858
   127  H    0.000363
   128  H   -0.004618
   129  H    0.022803
   130  H    0.015346
   131  H    0.022479
   132  H    0.013343
   133  H    0.036906
   134  H    0.022204
   135  H    0.019598
   136  H    0.009594
   137  H    0.025377
   138  H    0.039214
   139  H    0.037780
   140  H    0.035601
   141  H    0.034005
   142  H    0.013905
   143  H    0.012719
   144  H    0.023991
   145  H    0.011019
   146  H    0.006146
   147  H    0.005758
   148  H    0.003607
   149  H    0.010578
   150  H    0.017600
   151  H    0.030378
   152  H    0.045604
   153  H    0.008303
   154  H    0.046440
   155  H    0.035713
   156  H    0.043586
   157  H    0.049988
   158  H    0.053087
 Sum of Mulliken charges =  -0.00000

 Dipole moment (field-independent basis, Debye):
    X=             -5.0745    Y=              1.6500    Z=              5.4674  Tot=              7.6398
 Quadrupole moment (field-independent basis, Debye-Ang):
   XX=           -518.6530   YY=           -515.0721   ZZ=           -485.0625
   XY=            -20.0195   XZ=              3.0245   YZ=            -16.1522

 Normal termination of Gaussian 16 at Sat Sep  4 06:25:37 2021.
