 Gaussian 16, Revision A.03,
 Gaussian 16:  ES64L-G16RevA.03 25-Dec-2016

 -----------------------------------
 #p cam-b3lyp/Def2SVP td=(nstates=5)
 -----------------------------------

 --------------------------------
 TDDFT excited states in gaussian
 --------------------------------
 Symbolic Z-matrix:
 Charge =  0 Multiplicity = 1

                         Standard orientation:
 ---------------------------------------------------------------------
 Center     Atomic      Atomic             Coordinates (Angstroms)
 Number     Number       Type             X           Y           Z
 ---------------------------------------------------------------------
      1         12           0        5.328153   -0.577227    0.897633
      2          6           0        5.854250    2.300531   -1.164875
      3          6           0        5.720107    1.471151    3.598296
      4          6           0        5.319814   -3.167705    2.726835
      5          6           0        6.102449   -2.529270   -1.883672
      6          7           0        5.730164    1.593137    1.066604
      7          6           0        5.850931    2.594374    0.200515
      8          6           0        5.897910    3.996023    0.879151
      9          6           0        6.417099    3.559788    2.322114
     10          6           0        5.895071    2.134033    2.347294
     11          6           0        7.937598    3.528269    2.438691
     12          6           0        4.485052    4.666451    0.957188
     13          6           0        4.487914    6.158153    1.303846
     14          1           0        3.491575    7.021977    0.688652
     15          7           0        5.013650   -0.774470    2.838002
     16          6           0        5.210590    0.168699    3.790333
     17          6           0        4.833892   -0.462695    5.073345
     18          6           0        4.583058   -1.907499    4.813119
     19          6           0        4.992860   -2.014422    3.436163
     20          6           0        4.696798    0.298589    6.356078
     21          6           0        4.067324   -3.018133    5.672562
     22          8           0        4.145555   -4.244275    5.318967
     23          6           0        3.541451   -2.635190    6.995383
     24          7           0        5.874551   -2.561947    0.551262
     25          6           0        5.717230   -3.495869    1.495732
     26          6           0        5.905231   -4.874980    0.936584
     27          6           0        5.985588   -4.702059   -0.648785
     28          6           0        5.906904   -3.157156   -0.721953
     29          6           0        7.144373   -5.634256    1.430586
     30          6           0        4.990661   -5.532310   -1.498033
     31          6           0        3.579569   -5.043793   -1.258720
     32          7           0        5.709804   -0.220847   -1.209113
     33          6           0        6.034102   -1.178419   -2.180999
     34          6           0        6.307188   -0.448308   -3.432570
     35          6           0        6.137849    0.893149   -3.095431
     36          6           0        5.807238    0.996236   -1.713996
     37          6           0        6.717100   -1.030392   -4.664473
     38          6           0        6.183420    2.264948   -3.574958
     39          8           0        6.318322    2.793427   -4.679496
     40          6           0        6.121178    3.238135   -2.316045
     41          6           0        5.095736    4.298536   -2.611559
     42          8           0        3.885828    4.008861   -2.709422
     43          8           0        5.662645    5.509346   -2.497117
     44          6           0        4.691665    6.607513   -2.748874
     45          1           0        6.057246    1.967549    4.510364
     46          1           0        5.221091   -4.095202    3.294674
     47          1           0        6.267474   -3.076980   -2.813313
     48          1           0        6.600119    4.696623    0.426952
     49          1           0        5.954759    4.146675    3.115542
     50          1           0        8.414678    3.686259    1.471554
     51          1           0        8.179409    2.538012    2.825231
     52          1           0        8.283089    4.236605    3.192132
     53          1           0        3.949215    4.275959    1.822321
     54          1           0        3.933445    4.513078    0.029000
     55          1           0        5.483909    6.589567    1.200004
     56          1           0        4.256502    6.262896    2.363882
     57          1           0        5.105288    1.304730    6.270281
     58          1           0        5.337192   -0.193060    7.088120
     59          1           0        3.668413    0.311997    6.717431
     60          1           0        4.325778   -2.134226    7.563200
     61          1           0        3.135477   -3.546560    7.432920
     62          1           0        2.745232   -1.902577    6.860244
     63          1           0        5.059741   -5.515721    1.183617
     64          1           0        6.964697   -4.977805   -1.041193
     65          1           0        6.914209   -6.595005    1.891772
     66          1           0        7.682421   -4.987132    2.122702
     67          1           0        7.902799   -5.815724    0.669484
     68          1           0        5.021855   -6.580268   -1.201794
     69          1           0        5.193404   -5.483943   -2.567989
     70          1           0        3.289851   -5.571780   -0.350906
     71          1           0        2.934699   -5.319937   -2.093644
     72          1           0        3.560143   -3.976902   -1.035444
     73          1           0        6.136970   -0.535858   -5.443482
     74          1           0        6.549318   -2.107162   -4.668859
     75          1           0        7.776103   -0.772787   -4.667036
     76          1           0        7.119601    3.656883   -2.193881
     77          1           0        5.106247    7.226351   -3.544736
     78          1           0        4.503289    7.081511   -1.785419
     79          1           0        3.738065    6.315977   -3.190453
     80         12           0       -5.090518   -0.707968   -0.911820
     81          6           0       -6.946280    1.585538    1.131472
     82          6           0       -4.332213    1.935794   -2.929268
     83          6           0       -3.829346   -2.767659   -2.969626
     84          6           0       -6.901779   -3.285238    0.579061
     85          7           0       -5.627878    1.435051   -0.807137
     86          6           0       -6.286456    2.202500    0.048226
     87          6           0       -6.168074    3.724927   -0.230611
     88          6           0       -5.832228    3.656645   -1.799509
     89          6           0       -5.190720    2.271592   -1.852085
     90          6           0       -7.070705    3.643149   -2.680035
     91          6           0       -5.000530    4.391720    0.578244
     92          6           0       -5.020976    5.921786    0.593942
     93          1           0       -4.581189    6.611372    1.803702
     94          7           0       -3.814891   -0.414851   -2.403611
     95          6           0       -3.620076    0.727618   -3.095064
     96          6           0       -2.591475    0.418942   -4.100489
     97          6           0       -2.313883   -1.042397   -4.054189
     98          6           0       -3.346130   -1.477803   -3.134971
     99          6           0       -1.920439    1.475681   -4.929000
    100          6           0       -1.296868   -1.906982   -4.735636
    101          8           0       -1.389395   -3.185369   -4.732682
    102          6           0       -0.241147   -1.210658   -5.485362
    103          7           0       -5.474239   -2.710841   -1.316319
    104          6           0       -4.745887   -3.384746   -2.223661
    105          6           0       -5.015696   -4.868543   -2.146534
    106          6           0       -5.900077   -5.076563   -0.830407
    107          6           0       -6.070917   -3.601804   -0.404626
    108          6           0       -5.740149   -5.476257   -3.347465
    109          6           0       -5.371837   -6.092479    0.219142
    110          6           0       -4.100651   -5.570052    0.848851
    111          7           0       -6.509217   -0.876588    0.708954
    112          6           0       -7.164851   -2.046787    1.150385
    113          6           0       -8.119785   -1.640521    2.201796
    114          6           0       -7.968749   -0.248042    2.283650
    115          6           0       -7.003420    0.185536    1.335149
    116          6           0       -9.008345   -2.507215    2.898518
    117          6           0       -8.414122    0.954931    2.949380
    118          8           0       -9.155386    1.197533    3.900902
    119          6           0       -7.863696    2.210745    2.145416
    120          6           0       -7.263124    3.169809    3.136385
    121          8           0       -6.250285    2.855594    3.786017
    122          8           0       -7.849478    4.372708    2.996395
    123          6           0       -7.279595    5.361007    3.950493
    124          1           0       -4.224694    2.647487   -3.748309
    125          1           0       -3.346125   -3.534052   -3.580049
    126          1           0       -7.432832   -4.041688    1.160819
    127          1           0       -7.079277    4.288437   -0.069611
    128          1           0       -5.113279    4.420859   -2.083163
    129          1           0       -7.977314    3.562224   -2.098961
    130          1           0       -6.960112    2.785117   -3.330113
    131          1           0       -7.076908    4.518897   -3.335302
    132          1           0       -4.054787    4.221889    0.047714
    133          1           0       -4.973331    4.020363    1.584220
    134          1           0       -5.981116    6.324739    0.249401
    135          1           0       -4.298421    6.286031   -0.140401
    136          1           0       -2.447826    2.435194   -4.861149
    137          1           0       -2.031318    1.178343   -5.977404
    138          1           0       -0.857267    1.577581   -4.701090
    139          1           0       -0.694305   -0.585953   -6.251413
    140          1           0        0.439758   -1.993003   -5.826212
    141          1           0        0.287161   -0.536841   -4.801649
    142          1           0       -4.092226   -5.424549   -2.040893
    143          1           0       -6.905403   -5.452856   -1.070309
    144          1           0       -5.181149   -6.305583   -3.820549
    145          1           0       -5.931872   -4.689134   -4.064569
    146          1           0       -6.741624   -5.850367   -3.141809
    147          1           0       -5.112763   -7.037170   -0.265197
    148          1           0       -6.089067   -6.317685    1.001357
    149          1           0       -3.330810   -5.859352    0.127229
    150          1           0       -3.931364   -6.039166    1.815965
    151          1           0       -4.108554   -4.475136    0.901254
    152          1           0       -8.968797   -2.220977    3.941107
    153          1           0       -8.734429   -3.551219    2.761402
    154          1           0       -9.950475   -2.261321    2.401336
    155          1           0       -8.705096    2.650395    1.608444
    156          1           0       -8.116451    5.769047    4.525695
    157          1           0       -6.698749    6.071723    3.333031
    158          1           0       -6.642821    4.983805    4.742127
 ---------------------------------------------------------------------

 SCF Done:  E(RCAM-B3LYP) =  -4069.81273111     A.U. after   18 cycles

 Excitation energies and oscillator strengths:

 Excited State   1:      Singlet-A      1.6559 eV  748.76 nm  f=0.0670  <S**2>=0.000
     309 -> 315        0.11579
     310 -> 316       -0.12363
     311 -> 313       -0.46860
     312 -> 314        0.50266
 This state for optimization and/or second-order correction.
 Total Energy, E(TD-HF/TD-DFT) =  -4069.75187966
 Copying the excited state density for this state as the 1-particle RhoCI density.

 Excited State   2:      Singlet-A      1.6977 eV  730.29 nm  f=0.6668  <S**2>=0.000
     309 -> 315       -0.13190
     310 -> 316       -0.12223
     311 -> 313        0.50074
     312 -> 314        0.46700

 Excited State   3:      Singlet-A      2.1868 eV  566.98 nm  f=0.0127  <S**2>=0.000
     309 -> 313        0.33375
     310 -> 314        0.54991
     311 -> 315        0.14097
     312 -> 316        0.23327

 Excited State   4:      Singlet-A      2.1956 eV  564.69 nm  f=0.1693  <S**2>=0.000
     309 -> 313        0.54717
     310 -> 314       -0.33117
     311 -> 315        0.23995
     312 -> 316       -0.14531

 Excited State   5:      Singlet-A      2.5240 eV  491.23 nm  f=0.0000  <S**2>=0.000
     312 -> 313        0.70700

 The electronic state is 1-A.
 Alpha  occ. eigenvalues --  -46.87794 -46.87465 -19.26469 -19.26274 -19.19218
 Alpha  occ. eigenvalues --  -19.19073 -19.18765 -19.18443 -19.18248 -19.17887
 Alpha  occ. eigenvalues --  -14.42453 -14.42305 -14.41434 -14.41169 -14.39395
 Alpha  occ. eigenvalues --  -14.39144 -14.38600 -14.38409 -10.39261 -10.38997
 Alpha  occ. eigenvalues --  -10.35394 -10.35107 -10.34471 -10.34070 -10.31890
 Alpha  occ. eigenvalues --  -10.31715 -10.31428 -10.31130 -10.30917 -10.30814
 Alpha  occ. eigenvalues --  -10.30585 -10.30508 -10.30210 -10.30165 -10.30163
 Alpha  occ. eigenvalues --  -10.29929 -10.29913 -10.29731 -10.29632 -10.29237
 Alpha  occ. eigenvalues --  -10.29210 -10.29179 -10.28790 -10.28624 -10.28558
 Alpha  occ. eigenvalues --  -10.28553 -10.28378 -10.28197 -10.28143 -10.27968
 Alpha  occ. eigenvalues --  -10.27805 -10.27790 -10.27726 -10.27575 -10.27462
 Alpha  occ. eigenvalues --  -10.27425 -10.27422 -10.27415 -10.27385 -10.27357
 Alpha  occ. eigenvalues --  -10.27295 -10.27248 -10.27228 -10.27225 -10.27009
 Alpha  occ. eigenvalues --  -10.26906 -10.26773 -10.26550 -10.26310 -10.26256
 Alpha  occ. eigenvalues --  -10.26027 -10.25996 -10.25991 -10.25985 -10.25884
 Alpha  occ. eigenvalues --  -10.25868 -10.25740 -10.25699 -10.25381 -10.25268
 Alpha  occ. eigenvalues --  -10.24860 -10.24778 -10.24674 -10.24577 -10.24504
 Alpha  occ. eigenvalues --  -10.24451  -3.16536  -3.16216  -1.91418  -1.91098
 Alpha  occ. eigenvalues --   -1.91004  -1.90847  -1.90686  -1.90523  -1.16817
 Alpha  occ. eigenvalues --   -1.16564  -1.08720  -1.08507  -1.07163  -1.06856
 Alpha  occ. eigenvalues --   -1.06834  -1.06698  -1.04589  -1.04301  -1.03750
 Alpha  occ. eigenvalues --   -1.03468  -1.03233  -1.02844  -1.02410  -1.01916
 Alpha  occ. eigenvalues --   -0.92006  -0.91807  -0.89471  -0.89317  -0.89217
 Alpha  occ. eigenvalues --   -0.88985  -0.88234  -0.88053  -0.87894  -0.87676
 Alpha  occ. eigenvalues --   -0.87611  -0.87492  -0.87242  -0.86812  -0.85006
 Alpha  occ. eigenvalues --   -0.84825  -0.83879  -0.83718  -0.82904  -0.82663
 Alpha  occ. eigenvalues --   -0.82661  -0.82417  -0.81662  -0.81456  -0.80623
 Alpha  occ. eigenvalues --   -0.80262  -0.78783  -0.78377  -0.77208  -0.76965
 Alpha  occ. eigenvalues --   -0.76948  -0.76750  -0.75963  -0.75663  -0.74869
 Alpha  occ. eigenvalues --   -0.74637  -0.72774  -0.72504  -0.71680  -0.71406
 Alpha  occ. eigenvalues --   -0.69806  -0.69595  -0.68889  -0.68642  -0.67652
 Alpha  occ. eigenvalues --   -0.67411  -0.67238  -0.66993  -0.65320  -0.65105
 Alpha  occ. eigenvalues --   -0.64884  -0.64632  -0.64596  -0.64488  -0.64225
 Alpha  occ. eigenvalues --   -0.64034  -0.62383  -0.62147  -0.60410  -0.60083
 Alpha  occ. eigenvalues --   -0.59827  -0.59616  -0.58996  -0.58813  -0.58519
 Alpha  occ. eigenvalues --   -0.58245  -0.57675  -0.57412  -0.57298  -0.57037
 Alpha  occ. eigenvalues --   -0.56332  -0.56078  -0.56002  -0.55743  -0.55518
 Alpha  occ. eigenvalues --   -0.55343  -0.55230  -0.55094  -0.54547  -0.54349
 Alpha  occ. eigenvalues --   -0.53929  -0.53744  -0.53291  -0.53236  -0.53036
 Alpha  occ. eigenvalues --   -0.52963  -0.52934  -0.52732  -0.52731  -0.52356
 Alpha  occ. eigenvalues --   -0.52325  -0.52239  -0.51953  -0.51721  -0.51641
 Alpha  occ. eigenvalues --   -0.51449  -0.51214  -0.51033  -0.50505  -0.50139
 Alpha  occ. eigenvalues --   -0.49971  -0.49886  -0.49737  -0.49666  -0.49525
 Alpha  occ. eigenvalues --   -0.49257  -0.49241  -0.49130  -0.48985  -0.48939
 Alpha  occ. eigenvalues --   -0.48650  -0.48465  -0.48415  -0.48393  -0.48221
 Alpha  occ. eigenvalues --   -0.48074  -0.47691  -0.47384  -0.47290  -0.46885
 Alpha  occ. eigenvalues --   -0.46787  -0.46587  -0.46532  -0.46372  -0.46364
 Alpha  occ. eigenvalues --   -0.46174  -0.46065  -0.45920  -0.45887  -0.45681
 Alpha  occ. eigenvalues --   -0.45158  -0.45041  -0.44629  -0.44481  -0.44353
 Alpha  occ. eigenvalues --   -0.44293  -0.44154  -0.44074  -0.44023  -0.43952
 Alpha  occ. eigenvalues --   -0.43888  -0.43675  -0.43562  -0.43422  -0.43384
 Alpha  occ. eigenvalues --   -0.43214  -0.43039  -0.42830  -0.42805  -0.42728
 Alpha  occ. eigenvalues --   -0.42585  -0.42360  -0.41974  -0.41802  -0.41721
 Alpha  occ. eigenvalues --   -0.41548  -0.41496  -0.41290  -0.41149  -0.40868
 Alpha  occ. eigenvalues --   -0.40814  -0.40786  -0.40545  -0.40520  -0.40460
 Alpha  occ. eigenvalues --   -0.40333  -0.40270  -0.40040  -0.39322  -0.39264
 Alpha  occ. eigenvalues --   -0.38426  -0.38191  -0.37791  -0.37503  -0.37295
 Alpha  occ. eigenvalues --   -0.37285  -0.37092  -0.37014  -0.36834  -0.36668
 Alpha  occ. eigenvalues --   -0.36217  -0.36063  -0.34294  -0.34068  -0.33937
 Alpha  occ. eigenvalues --   -0.33755  -0.33197  -0.32984  -0.31298  -0.31039
 Alpha  occ. eigenvalues --   -0.31013  -0.30779  -0.30112  -0.29799  -0.29448
 Alpha  occ. eigenvalues --   -0.29338  -0.29100  -0.29004  -0.24084  -0.23846
 Alpha  occ. eigenvalues --   -0.21125  -0.20915
 Alpha virt. eigenvalues --   -0.08774  -0.08580  -0.01737  -0.01486  -0.00048
 Alpha virt. eigenvalues --    0.00213   0.02168   0.02387   0.03110   0.03436
 Alpha virt. eigenvalues --    0.04701   0.04899   0.04937   0.05269   0.06114

 Mulliken charges:
               1
     1  Mg   0.838939
     2  C   -0.003741
     3  C   -0.093932
     4  C   -0.045470
     5  C   -0.063375
     6  N   -0.256896
     7  C   -0.052694
     8  C   -0.014075
     9  C   -0.087107
    10  C    0.046516
    11  C    0.104771
    12  C    0.053414
    13  C   -0.071503
    14  H    0.034584
    15  N   -0.433288
    16  C    0.168899
    17  C   -0.176578
    18  C   -0.003433
    19  C    0.148983
    20  C    0.110018
    21  C    0.012848
    22  O   -0.249272
    23  C    0.062112
    24  N   -0.341276
    25  C    0.041641
    26  C   -0.028198
    27  C   -0.023969
    28  C    0.074999
    29  C    0.076181
    30  C    0.034930
    31  C   -0.005206
    32  N   -0.309995
    33  C    0.079708
    34  C   -0.170886
    35  C    0.007346
    36  C    0.081985
    37  C    0.127647
    38  C    0.044480
    39  O   -0.189973
    40  C   -0.004816
    41  C    0.212996
    42  O   -0.259677
    43  O   -0.304111
    44  C    0.158256
    45  H   -0.017379
    46  H   -0.016386
    47  H   -0.041129
    48  H    0.000603
    49  H   -0.003768
    50  H    0.025340
    51  H    0.016693
    52  H    0.016797
    53  H    0.012049
    54  H    0.042814
    55  H    0.017980
    56  H    0.018687
    57  H    0.005912
    58  H    0.026999
    59  H    0.041076
    60  H    0.037197
    61  H    0.036127
    62  H    0.032838
    63  H    0.017144
    64  H    0.009187
    65  H    0.023365
    66  H    0.012275
    67  H    0.004771
    68  H    0.006236
    69  H    0.004946
    70  H    0.008230
    71  H    0.023041
    72  H    0.027996
    73  H    0.045831
    74  H    0.009866
    75  H    0.046048
    76  H    0.035326
    77  H    0.042948
    78  H    0.046908
    79  H    0.051645
    80  Mg   0.837418
    81  C   -0.017014
    82  C   -0.086353
    83  C   -0.045732
    84  C   -0.065029
    85  N   -0.254514
    86  C   -0.050458
    87  C   -0.015081
    88  C   -0.090648
    89  C    0.045661
    90  C    0.114389
    91  C    0.062220
    92  C   -0.077377
    93  H    0.033050
    94  N   -0.423749
    95  C    0.163278
    96  C   -0.172860
    97  C   -0.007385
    98  C    0.152150
    99  C    0.098109
   100  C    0.015468
   101  O   -0.255051
   102  C    0.060417
   103  N   -0.350033
   104  C    0.037824
   105  C   -0.019802
   106  C   -0.034516
   107  C    0.088489
   108  C    0.073849
   109  C    0.034860
   110  C   -0.007485
   111  N   -0.323824
   112  C    0.077738
   113  C   -0.163827
   114  C    0.001822
   115  C    0.095626
   116  C    0.131658
   117  C    0.041744
   118  O   -0.189173
   119  C    0.001053
   120  C    0.211221
   121  O   -0.251675
   122  O   -0.305489
   123  C    0.152356
   124  H   -0.019052
   125  H   -0.016002
   126  H   -0.041102
   127  H   -0.001219
   128  H   -0.003743
   129  H    0.022106
   130  H    0.014537
   131  H    0.016177
   132  H    0.015148
   133  H    0.036964
   134  H    0.020552
   135  H    0.020065
   136  H    0.008677
   137  H    0.025614
   138  H    0.048679
   139  H    0.038696
   140  H    0.034584
   141  H    0.040336
   142  H    0.014018
   143  H    0.011934
   144  H    0.024620
   145  H    0.011715
   146  H    0.005388
   147  H    0.005681
   148  H    0.003315
   149  H    0.010693
   150  H    0.017956
   151  H    0.030295
   152  H    0.045206
   153  H    0.008123
   154  H    0.046392
   155  H    0.034659
   156  H    0.043488
   157  H    0.049395
   158  H    0.052787
 Sum of Mulliken charges =  -0.00000

 Dipole moment (field-independent basis, Debye):
    X=              2.4776    Y=              3.0652    Z=              0.4163  Tot=              3.9633
 Quadrupole moment (field-independent basis, Debye-Ang):
   XX=           -519.7165   YY=           -462.6764   ZZ=           -524.2302
   XY=              5.5260   XZ=             53.2918   YZ=             15.0648

 Normal termination of Gaussian 16 at Fri Sep 10 11:37:30 2021.
