 Gaussian 16, Revision A.03,
 Gaussian 16:  ES64L-G16RevA.03 25-Dec-2016

 -----------------------------------
 #p cam-b3lyp/Def2SVP td=(nstates=5)
 -----------------------------------

 --------------------------------
 TDDFT excited states in gaussian
 --------------------------------
 Symbolic Z-matrix:
 Charge =  0 Multiplicity = 1

                         Standard orientation:
 ---------------------------------------------------------------------
 Center     Atomic      Atomic             Coordinates (Angstroms)
 Number     Number       Type             X           Y           Z
 ---------------------------------------------------------------------
      1         12           0       15.847085   -0.650590    0.452359
      2          6           0       16.156169    1.916020   -2.023361
      3          6           0       16.818135    1.666480    2.761323
      4          6           0       16.021319   -2.999289    2.576006
      5          6           0       16.013347   -2.969710   -2.143734
      6          7           0       16.388916    1.488028    0.269662
      7          6           0       16.409101    2.368197   -0.726362
      8          6           0       16.650269    3.832520   -0.252052
      9          6           0       17.391096    3.531556    1.127293
     10          6           0       16.805601    2.162158    1.423721
     11          6           0       18.904430    3.399451    0.989920
     12          6           0       15.311422    4.612075   -0.025081
     13          6           0       15.455637    6.129752    0.120566
     14          1           0       14.414575    6.987666   -0.424889
     15          7           0       15.868912   -0.593416    2.426974
     16          6           0       16.280953    0.437900    3.202793
     17          6           0       16.102533   -0.007615    4.601493
     18          6           0       15.732327   -1.449970    4.575907
     19          6           0       15.886965   -1.749077    3.175193
     20          6           0       16.234614    0.907744    5.779807
     21          6           0       15.316861   -2.409464    5.645902
     22          8           0       15.265440   -3.671127    5.445557
     23          6           0       15.053479   -1.834684    6.977555
     24          7           0       16.216228   -2.697811    0.278417
     25          6           0       16.177538   -3.499331    1.348488
     26          6           0       16.189583   -4.944968    0.948578
     27          6           0       15.998797   -4.966717   -0.636629
     28          6           0       15.991820   -3.439711   -0.894453
     29          6           0       17.453596   -5.731956    1.321310
     30          6           0       14.826638   -5.813909   -1.192264
     31          6           0       13.508117   -5.195595   -0.784479
     32          7           0       15.870546   -0.574871   -1.716687
     33          6           0       15.966614   -1.662053   -2.597301
     34          6           0       16.054047   -1.107273   -3.960621
     35          6           0       16.019233    0.273498   -3.775950
     36          6           0       15.943014    0.563365   -2.383664
     37          6           0       16.208725   -1.859773   -5.158225
     38          6           0       16.053526    1.571828   -4.429418
     39          8           0       16.020156    1.954713   -5.599794
     40          6           0       16.266403    2.688553   -3.314324
     41          6           0       15.263604    3.780993   -3.567857
     42          8           0       14.041541    3.573851   -3.422876
     43          8           0       15.906211    4.950637   -3.707610
     44          6           0       14.966681    6.081524   -3.932405
     45          1           0       17.336818    2.240105    3.531948
     46          1           0       15.974270   -3.843269    3.267325
     47          1           0       15.982386   -3.634075   -3.009248
     48          1           0       17.298621    4.419970   -0.902411
     49          1           0       17.107957    4.241069    1.904561
     50          1           0       19.211614    3.405895   -0.055794
     51          1           0       19.156796    2.446280    1.454968
     52          1           0       19.414818    4.163597    1.576744
     53          1           0       14.916001    4.367822    0.960842
     54          1           0       14.597582    4.392369   -0.819743
     55          1           0       16.439574    6.469585   -0.203919
     56          1           0       15.420433    6.375887    1.181876
     57          1           0       16.675232    1.863071    5.497402
     58          1           0       16.966439    0.458956    6.451171
     59          1           0       15.288142    1.041159    6.303946
     60          1           0       15.951351   -1.330841    7.336048
     61          1           0       14.682360   -2.654893    7.591051
     62          1           0       14.286554   -1.065182    6.884592
     63          1           0       15.367507   -5.486532    1.414760
     64          1           0       16.877233   -5.359834   -1.148960
     65          1           0       17.256786   -6.611525    1.934768
     66          1           0       18.139156   -5.050168    1.823766
     67          1           0       18.055297   -6.058552    0.473543
     68          1           0       14.852982   -6.818980   -0.772641
     69          1           0       14.840168   -5.907449   -2.278228
     70          1           0       13.354713   -5.589515    0.219576
     71          1           0       12.712411   -5.518836   -1.456474
     72          1           0       13.585815   -4.111415   -0.700803
     73          1           0       15.528021   -1.418209   -5.885984
     74          1           0       15.985019   -2.913813   -4.995262
     75          1           0       17.263056   -1.684849   -5.371865
     76          1           0       17.291829    3.042306   -3.416706
     77          1           0       15.267418    6.569184   -4.859755
     78          1           0       14.976671    6.678649   -3.020403
     79          1           0       13.935936    5.812693   -4.166144
     80         12           0      -15.869310    0.651223    0.449270
     81          6           0      -16.098913   -1.909203   -2.054841
     82          6           0      -16.769740   -1.713563    2.736534
     83          6           0      -16.115192    2.969422    2.601700
     84          6           0      -16.113454    2.992544   -2.120624
     85          7           0      -16.345508   -1.499082    0.245166
     86          6           0      -16.339621   -2.377344   -0.746278
     87          6           0      -16.527349   -3.852230   -0.300143
     88          6           0      -17.285103   -3.588099    1.090862
     89          6           0      -16.744319   -2.194249    1.402975
     90          6           0      -18.794771   -3.493129    0.945219
     91          6           0      -15.159507   -4.588332   -0.078376
     92          6           0      -15.262152   -6.109170    0.056744
     93          1           0      -14.188131   -6.930962   -0.494268
     94          7           0      -15.886958    0.566210    2.431953
     95          6           0      -16.259983   -0.480156    3.198272
     96          6           0      -16.111550   -0.031650    4.591459
     97          6           0      -15.777959    1.418654    4.584333
     98          6           0      -15.937716    1.718962    3.175654
     99          6           0      -16.206588   -0.966825    5.761856
    100          6           0      -15.392944    2.379493    5.668192
    101          8           0      -15.379945    3.646032    5.471862
    102          6           0      -15.122099    1.800218    6.992038
    103          7           0      -16.295314    2.680193    0.293832
    104          6           0      -16.287897    3.473306    1.379578
    105          6           0      -16.348273    4.931191    0.990569
    106          6           0      -16.153018    4.960821   -0.596441
    107          6           0      -16.100460    3.442285   -0.873329
    108          6           0      -17.637785    5.664936    1.358199
    109          6           0      -15.007264    5.852829   -1.148022
    110          6           0      -13.667717    5.283731   -0.739202
    111          7           0      -15.884549    0.594208   -1.710487
    112          6           0      -16.021501    1.689088   -2.591727
    113          6           0      -16.090448    1.139636   -3.961322
    114          6           0      -16.011336   -0.249206   -3.778711
    115          6           0      -15.921218   -0.545512   -2.391777
    116          6           0      -16.257971    1.897773   -5.154335
    117          6           0      -15.994276   -1.532517   -4.443185
    118          8           0      -15.955422   -1.903174   -5.615718
    119          6           0      -16.177597   -2.670649   -3.348908
    120          6           0      -15.140522   -3.730215   -3.602540
    121          8           0      -13.930887   -3.476563   -3.464501
    122          8           0      -15.752701   -4.918902   -3.753036
    123          6           0      -14.764678   -6.003636   -3.995864
    124          1           0      -17.264305   -2.318743    3.496839
    125          1           0      -16.095442    3.813516    3.294948
    126          1           0      -16.091212    3.662317   -2.982937
    127          1           0      -17.150263   -4.449234   -0.955373
    128          1           0      -16.972027   -4.297847    1.852181
    129          1           0      -19.100928   -3.501234   -0.090327
    130          1           0      -19.077663   -2.560769    1.416093
    131          1           0      -19.279914   -4.283201    1.525526
    132          1           0      -14.774946   -4.336679    0.918387
    133          1           0      -14.463189   -4.340810   -0.855865
    134          1           0      -16.239680   -6.486717   -0.267067
    135          1           0      -15.213028   -6.367429    1.117362
    136          1           0      -16.623820   -1.937895    5.467994
    137          1           0      -16.951381   -0.547233    6.446754
    138          1           0      -15.258584   -1.074177    6.293308
    139          1           0      -16.002252    1.263705    7.338393
    140          1           0      -14.776600    2.631525    7.609643
    141          1           0      -14.320883    1.059432    6.892506
    142          1           0      -15.543692    5.488767    1.454097
    143          1           0      -17.047449    5.343106   -1.109938
    144          1           0      -17.467513    6.556416    1.990936
    145          1           0      -18.298140    4.966572    1.854950
    146          1           0      -18.240623    5.991282    0.512450
    147          1           0      -15.064539    6.854145   -0.714153
    148          1           0      -15.030159    5.967414   -2.226597
    149          1           0      -13.532899    5.673527    0.274195
    150          1           0      -12.882553    5.635827   -1.405222
    151          1           0      -13.709387    4.190573   -0.669081
    152          1           0      -15.570356    1.488468   -5.882456
    153          1           0      -16.072601    2.955981   -4.982266
    154          1           0      -17.310785    1.694922   -5.368110
    155          1           0      -17.192076   -3.058972   -3.446906
    156          1           0      -15.052810   -6.494913   -4.930381
    157          1           0      -14.769349   -6.622712   -3.079091
    158          1           0      -13.744365   -5.712171   -4.216001
 ---------------------------------------------------------------------

 SCF Done:  E(RCAM-B3LYP) =  -4069.81174798     A.U. after   19 cycles

 Excitation energies and oscillator strengths:

 Excited State   1:      Singlet-A      1.6753 eV  740.06 nm  f=0.2137  <S**2>=0.000
     310 -> 316        0.16861
     311 -> 313        0.66662
     312 -> 314       -0.16215
     310 <- 316        0.10165
 This state for optimization and/or second-order correction.
 Total Energy, E(TD-HF/TD-DFT) =  -4069.75018077
 Copying the excited state density for this state as the 1-particle RhoCI density.

 Excited State   2:      Singlet-A      1.6801 eV  737.95 nm  f=0.5638  <S**2>=0.000
     309 -> 315        0.17062
     311 -> 313        0.16210
     312 -> 314        0.66625
     309 <- 315        0.10215

 Excited State   3:      Singlet-A      2.1861 eV  567.15 nm  f=0.0956  <S**2>=0.000
     310 -> 313        0.64214
     311 -> 316       -0.27296

 Excited State   4:      Singlet-A      2.1925 eV  565.49 nm  f=0.1046  <S**2>=0.000
     309 -> 314        0.64036
     312 -> 315       -0.27814

 Excited State   5:      Singlet-A      3.0594 eV  405.26 nm  f=0.0000  <S**2>=0.000
     312 -> 313        0.70711

 The electronic state is 1-A.
 Alpha  occ. eigenvalues --  -46.87755 -46.87661 -19.26344 -19.26238 -19.19155
 Alpha  occ. eigenvalues --  -19.18974 -19.18776 -19.18716 -19.18127 -19.18050
 Alpha  occ. eigenvalues --  -14.42498 -14.42409 -14.41408 -14.41360 -14.39362
 Alpha  occ. eigenvalues --  -14.39352 -14.38600 -14.38545 -10.39086 -10.39034
 Alpha  occ. eigenvalues --  -10.35410 -10.35393 -10.34347 -10.34227 -10.31749
 Alpha  occ. eigenvalues --  -10.31632 -10.31363 -10.31309 -10.31023 -10.30868
 Alpha  occ. eigenvalues --  -10.30528 -10.30466 -10.30398 -10.30360 -10.30167
 Alpha  occ. eigenvalues --  -10.30142 -10.29895 -10.29880 -10.29590 -10.29438
 Alpha  occ. eigenvalues --  -10.29401 -10.29214 -10.28718 -10.28707 -10.28650
 Alpha  occ. eigenvalues --  -10.28494 -10.28405 -10.28324 -10.28140 -10.28076
 Alpha  occ. eigenvalues --  -10.28001 -10.27752 -10.27686 -10.27670 -10.27544
 Alpha  occ. eigenvalues --  -10.27519 -10.27484 -10.27468 -10.27465 -10.27461
 Alpha  occ. eigenvalues --  -10.27442 -10.27410 -10.27378 -10.27362 -10.27115
 Alpha  occ. eigenvalues --  -10.27049 -10.26689 -10.26660 -10.26418 -10.26373
 Alpha  occ. eigenvalues --  -10.26195 -10.26143 -10.26137 -10.26027 -10.25978
 Alpha  occ. eigenvalues --  -10.25935 -10.25850 -10.25801 -10.25402 -10.25399
 Alpha  occ. eigenvalues --  -10.24873 -10.24791 -10.24747 -10.24729 -10.24691
 Alpha  occ. eigenvalues --  -10.24644  -3.16498  -3.16411  -1.91380  -1.91293
 Alpha  occ. eigenvalues --   -1.90966  -1.90882  -1.90808  -1.90718  -1.16638
 Alpha  occ. eigenvalues --   -1.16587  -1.08657  -1.08584  -1.07177  -1.06968
 Alpha  occ. eigenvalues --   -1.06940  -1.06596  -1.04540  -1.04495  -1.03719
 Alpha  occ. eigenvalues --   -1.03664  -1.03193  -1.03039  -1.02370  -1.02112
 Alpha  occ. eigenvalues --   -0.91987  -0.91930  -0.89495  -0.89479  -0.89151
 Alpha  occ. eigenvalues --   -0.89146  -0.88247  -0.88221  -0.87829  -0.87794
 Alpha  occ. eigenvalues --   -0.87684  -0.87632  -0.87234  -0.87121  -0.84999
 Alpha  occ. eigenvalues --   -0.84940  -0.83896  -0.83877  -0.82933  -0.82928
 Alpha  occ. eigenvalues --   -0.82652  -0.82607  -0.81594  -0.81542  -0.80554
 Alpha  occ. eigenvalues --   -0.80442  -0.78757  -0.78636  -0.77177  -0.77144
 Alpha  occ. eigenvalues --   -0.76897  -0.76892  -0.75881  -0.75838  -0.74858
 Alpha  occ. eigenvalues --   -0.74804  -0.72733  -0.72699  -0.71631  -0.71581
 Alpha  occ. eigenvalues --   -0.69866  -0.69758  -0.68832  -0.68827  -0.67602
 Alpha  occ. eigenvalues --   -0.67600  -0.67199  -0.67178  -0.65271  -0.65244
 Alpha  occ. eigenvalues --   -0.64812  -0.64770  -0.64653  -0.64579  -0.64229
 Alpha  occ. eigenvalues --   -0.64204  -0.62276  -0.62254  -0.60402  -0.60341
 Alpha  occ. eigenvalues --   -0.59796  -0.59763  -0.58993  -0.58946  -0.58462
 Alpha  occ. eigenvalues --   -0.58425  -0.57552  -0.57541  -0.57268  -0.57237
 Alpha  occ. eigenvalues --   -0.56269  -0.56204  -0.55934  -0.55884  -0.55480
 Alpha  occ. eigenvalues --   -0.55452  -0.55298  -0.55247  -0.54486  -0.54481
 Alpha  occ. eigenvalues --   -0.53912  -0.53853  -0.53258  -0.53228  -0.53181
 Alpha  occ. eigenvalues --   -0.53141  -0.52901  -0.52872  -0.52716  -0.52669
 Alpha  occ. eigenvalues --   -0.52401  -0.52397  -0.51885  -0.51873  -0.51658
 Alpha  occ. eigenvalues --   -0.51575  -0.51200  -0.51154  -0.50533  -0.50477
 Alpha  occ. eigenvalues --   -0.49991  -0.49980  -0.49878  -0.49868  -0.49488
 Alpha  occ. eigenvalues --   -0.49474  -0.49202  -0.49173  -0.49104  -0.49055
 Alpha  occ. eigenvalues --   -0.48557  -0.48551  -0.48422  -0.48404  -0.48377
 Alpha  occ. eigenvalues --   -0.48339  -0.47654  -0.47594  -0.47256  -0.47119
 Alpha  occ. eigenvalues --   -0.46756  -0.46709  -0.46553  -0.46513  -0.46318
 Alpha  occ. eigenvalues --   -0.46271  -0.46121  -0.46085  -0.45821  -0.45779
 Alpha  occ. eigenvalues --   -0.45210  -0.45162  -0.44535  -0.44513  -0.44476
 Alpha  occ. eigenvalues --   -0.44466  -0.44127  -0.44103  -0.44078  -0.44047
 Alpha  occ. eigenvalues --   -0.43978  -0.43939  -0.43551  -0.43452  -0.43385
 Alpha  occ. eigenvalues --   -0.43345  -0.42986  -0.42928  -0.42900  -0.42656
 Alpha  occ. eigenvalues --   -0.42612  -0.42554  -0.41968  -0.41963  -0.41669
 Alpha  occ. eigenvalues --   -0.41662  -0.41492  -0.41458  -0.41100  -0.40990
 Alpha  occ. eigenvalues --   -0.40828  -0.40783  -0.40722  -0.40698  -0.40531
 Alpha  occ. eigenvalues --   -0.40494  -0.40225  -0.40191  -0.39426  -0.39400
 Alpha  occ. eigenvalues --   -0.38428  -0.38351  -0.37705  -0.37652  -0.37280
 Alpha  occ. eigenvalues --   -0.37266  -0.37221  -0.37199  -0.36767  -0.36669
 Alpha  occ. eigenvalues --   -0.36216  -0.36150  -0.34254  -0.34245  -0.33858
 Alpha  occ. eigenvalues --   -0.33725  -0.33176  -0.33145  -0.31306  -0.31275
 Alpha  occ. eigenvalues --   -0.30994  -0.30973  -0.29986  -0.29954  -0.29408
 Alpha  occ. eigenvalues --   -0.29328  -0.29280  -0.29212  -0.24039  -0.24036
 Alpha  occ. eigenvalues --   -0.21117  -0.21086
 Alpha virt. eigenvalues --   -0.08792  -0.08733  -0.01709  -0.01684  -0.00029
 Alpha virt. eigenvalues --   -0.00018   0.02207   0.02242   0.03167   0.03230
 Alpha virt. eigenvalues --    0.04730   0.04760   0.05143   0.05169   0.06185

 Mulliken charges:
               1
     1  Mg   0.838855
     2  C   -0.002962
     3  C   -0.094107
     4  C   -0.045891
     5  C   -0.063975
     6  N   -0.256792
     7  C   -0.052449
     8  C   -0.014014
     9  C   -0.087025
    10  C    0.046354
    11  C    0.104823
    12  C    0.053461
    13  C   -0.071822
    14  H    0.036213
    15  N   -0.433148
    16  C    0.168412
    17  C   -0.177155
    18  C   -0.004021
    19  C    0.148714
    20  C    0.110177
    21  C    0.012283
    22  O   -0.249666
    23  C    0.062478
    24  N   -0.341173
    25  C    0.041249
    26  C   -0.028158
    27  C   -0.023972
    28  C    0.074863
    29  C    0.076184
    30  C    0.035117
    31  C   -0.004498
    32  N   -0.310485
    33  C    0.080447
    34  C   -0.169686
    35  C    0.008359
    36  C    0.083015
    37  C    0.127301
    38  C    0.046147
    39  O   -0.188405
    40  C   -0.005341
    41  C    0.212873
    42  O   -0.257030
    43  O   -0.304826
    44  C    0.157674
    45  H   -0.017635
    46  H   -0.016875
    47  H   -0.041490
    48  H    0.000929
    49  H   -0.004030
    50  H    0.025457
    51  H    0.016418
    52  H    0.016626
    53  H    0.011233
    54  H    0.044174
    55  H    0.017830
    56  H    0.017943
    57  H    0.005867
    58  H    0.026771
    59  H    0.039568
    60  H    0.037311
    61  H    0.035603
    62  H    0.031541
    63  H    0.016549
    64  H    0.009425
    65  H    0.023167
    66  H    0.012519
    67  H    0.004719
    68  H    0.006324
    69  H    0.004743
    70  H    0.008760
    71  H    0.018208
    72  H    0.029016
    73  H    0.047627
    74  H    0.009119
    75  H    0.045972
    76  H    0.035120
    77  H    0.042938
    78  H    0.046395
    79  H    0.053759
    80  Mg   0.837956
    81  C   -0.016818
    82  C   -0.087787
    83  C   -0.045529
    84  C   -0.064891
    85  N   -0.254588
    86  C   -0.049834
    87  C   -0.015076
    88  C   -0.090518
    89  C    0.045782
    90  C    0.114376
    91  C    0.062529
    92  C   -0.077933
    93  H    0.034993
    94  N   -0.423495
    95  C    0.162910
    96  C   -0.174621
    97  C   -0.007816
    98  C    0.152111
    99  C    0.099359
   100  C    0.015573
   101  O   -0.253205
   102  C    0.061189
   103  N   -0.350084
   104  C    0.037517
   105  C   -0.019818
   106  C   -0.034819
   107  C    0.088932
   108  C    0.073654
   109  C    0.034731
   110  C   -0.007682
   111  N   -0.324127
   112  C    0.078483
   113  C   -0.163099
   114  C    0.002247
   115  C    0.096221
   116  C    0.131474
   117  C    0.042410
   118  O   -0.187809
   119  C    0.000899
   120  C    0.211272
   121  O   -0.250950
   122  O   -0.305659
   123  C    0.152003
   124  H   -0.019666
   125  H   -0.015586
   126  H   -0.040437
   127  H   -0.000646
   128  H   -0.004307
   129  H    0.022448
   130  H    0.014400
   131  H    0.016277
   132  H    0.013937
   133  H    0.037720
   134  H    0.020764
   135  H    0.019592
   136  H    0.008767
   137  H    0.026118
   138  H    0.039816
   139  H    0.038240
   140  H    0.036378
   141  H    0.033927
   142  H    0.014410
   143  H    0.012397
   144  H    0.025127
   145  H    0.011614
   146  H    0.005656
   147  H    0.006250
   148  H    0.003675
   149  H    0.010922
   150  H    0.018012
   151  H    0.030121
   152  H    0.046083
   153  H    0.008536
   154  H    0.046915
   155  H    0.035006
   156  H    0.043929
   157  H    0.049489
   158  H    0.053654
 Sum of Mulliken charges =  -0.00000

 Dipole moment (field-independent basis, Debye):
    X=              0.1080    Y=             -0.1444    Z=              7.4779  Tot=              7.4801
 Quadrupole moment (field-independent basis, Debye-Ang):
   XX=           -388.2403   YY=           -459.6573   ZZ=           -539.6380
   XY=             55.3721   XZ=              3.9332   YZ=              0.2270

 Normal termination of Gaussian 16 at Sun Sep 12 12:47:58 2021.
