 Gaussian 16, Revision A.03,
 Gaussian 16:  ES64L-G16RevA.03 25-Dec-2016

 -----------------------------------
 #p cam-b3lyp/Def2SVP td=(nstates=5)
 -----------------------------------

 --------------------------------
 TDDFT excited states in gaussian
 --------------------------------
 Symbolic Z-matrix:
 Charge =  0 Multiplicity = 1

                         Standard orientation:
 ---------------------------------------------------------------------
 Center     Atomic      Atomic             Coordinates (Angstroms)
 Number     Number       Type             X           Y           Z
 ---------------------------------------------------------------------
      1         12           0        4.437521    0.515584    1.381817
      2          6           0        5.288432   -2.407402   -0.500820
      3          6           0        6.081261    2.338926   -0.988121
      4          6           0        4.093280    3.053654    3.251662
      5          6           0        3.877216   -1.582964    4.107219
      6          7           0        5.506845   -0.073670   -0.464794
      7          6           0        5.709142   -1.220769   -1.105427
      8          6           0        6.343514   -1.036816   -2.516493
      9          6           0        7.043191    0.378651   -2.295354
     10          6           0        6.136577    0.930742   -1.209457
     11          6           0        8.462461    0.277517   -1.745858
     12          6           0        5.264690   -0.971838   -3.649474
     13          6           0        5.804337   -1.121183   -5.074897
     14          1           0        4.997749   -1.827613   -6.058625
     15          7           0        4.563803    2.442094    0.962936
     16          6           0        5.264438    3.006400   -0.049959
     17          6           0        5.040732    4.463819    0.062135
     18          6           0        4.308124    4.715204    1.334215
     19          6           0        4.315554    3.399449    1.920825
     20          6           0        5.459634    5.443922   -0.990324
     21          6           0        3.707318    5.948069    1.931884
     22          8           0        3.321120    5.994815    3.149768
     23          6           0        3.663368    7.142252    1.068729
     24          7           0        4.254364    0.742172    3.448879
     25          6           0        4.058016    1.946638    3.996321
     26          6           0        3.676161    1.833439    5.442458
     27          6           0        3.413911    0.281255    5.710232
     28          6           0        3.791664   -0.266578    4.311857
     29          6           0        4.708321    2.357904    6.450225
     30          6           0        2.037889   -0.106654    6.307316
     31          6           0        0.945104    0.166973    5.298334
     32          7           0        4.380513   -1.627111    1.723365
     33          6           0        4.150732   -2.280717    2.942658
     34          6           0        4.316643   -3.725008    2.696562
     35          6           0        4.649848   -3.810595    1.346193
     36          6           0        4.715281   -2.500903    0.790569
     37          6           0        4.215746   -4.753938    3.674087
     38          6           0        4.989954   -4.702248    0.249317
     39          8           0        5.003554   -5.924690    0.097841
     40          6           0        5.536161   -3.822618   -0.960533
     41          6           0        4.840709   -4.287698   -2.210876
     42          8           0        3.614722   -4.112031   -2.364051
     43          8           0        5.757747   -4.647189   -3.122111
     44          6           0        5.134621   -5.091154   -4.397557
     45          1           0        6.765752    2.987080   -1.538858
     46          1           0        3.860511    3.894653    3.908150
     47          1           0        3.635316   -2.304074    4.890122
     48          1           0        7.091632   -1.784860   -2.779504
     49          1           0        6.989770    1.002769   -3.187175
     50          1           0        8.712591   -0.748095   -1.474796
     51          1           0        8.479830    0.919200   -0.864702
     52          1           0        9.179979    0.708501   -2.444569
     53          1           0        4.864989    0.040549   -3.707539
     54          1           0        4.482688   -1.712959   -3.480538
     55          1           0        6.826834   -1.499875   -5.076337
     56          1           0        5.882837   -0.127571   -5.516228
     57          1           0        6.119674    4.984758   -1.725212
     58          1           0        6.079855    6.193234   -0.498829
     59          1           0        4.605233    5.927338   -1.464285
     60          1           0        4.676669    7.401548    0.761262
     61          1           0        3.120592    7.900560    1.631946
     62          1           0        3.118996    6.898339    0.155978
     63          1           0        2.763938    2.390981    5.650840
     64          1           0        4.135824   -0.140798    6.409794
     65          1           0        4.318286    3.128574    7.115542
     66          1           0        5.569585    2.722953    5.891427
     67          1           0        5.165189    1.592398    7.076874
     68          1           0        1.821677    0.499262    7.186556
     69          1           0        1.976955   -1.154036    6.603171
     70          1           0        0.740854    1.227351    5.442251
     71          1           0        0.062875   -0.434241    5.520652
     72          1           0        1.305249    0.040163    4.277207
     73          1           0        3.640383   -5.556913    3.213480
     74          1           0        3.733865   -4.391740    4.581946
     75          1           0        5.268426   -4.991654    3.826439
     76          1           0        6.612459   -3.985853   -1.005890
     77          1           0        5.508835   -6.093578   -4.605752
     78          1           0        5.340970   -4.311563   -5.131085
     79          1           0        4.059844   -5.274135   -4.370887
     80         12           0       -4.137107    0.399124   -1.327712
     81          6           0       -6.305172   -1.673073    0.643207
     82          6           0       -6.381552    2.926260   -0.868733
     83          6           0       -2.484157    2.114331   -3.423725
     84          6           0       -2.691654   -2.523471   -2.558494
     85          7           0       -6.057290    0.492186   -0.233876
     86          6           0       -6.750499   -0.339627    0.528943
     87          6           0       -7.946302    0.314189    1.271997
     88          6           0       -8.192930    1.556316    0.284504
     89          6           0       -6.783884    1.697169   -0.287708
     90          6           0       -9.142769    1.237448   -0.858066
     91          6           0       -7.562330    0.795245    2.715320
     92          6           0       -8.749920    1.160255    3.608727
     93          1           0       -8.663463    0.865363    5.036322
     94          7           0       -4.117055    2.356573   -1.654183
     95          6           0       -5.104879    3.236306   -1.386712
     96          6           0       -4.606841    4.547564   -1.830252
     97          6           0       -3.310345    4.344043   -2.531948
     98          6           0       -3.262729    2.896561   -2.583191
     99          6           0       -5.306534    5.835654   -1.506713
    100          6           0       -2.289289    5.294945   -3.079148
    101          8           0       -1.352931    4.901011   -3.860739
    102          6           0       -2.472799    6.715639   -2.748314
    103          7           0       -2.929346   -0.123413   -2.937252
    104          6           0       -2.285692    0.815981   -3.652228
    105          6           0       -1.266246    0.194527   -4.576831
    106          6           0       -1.189157   -1.346838   -4.157517
    107          6           0       -2.290570   -1.370012   -3.075046
    108          6           0       -1.571218    0.300598   -6.070862
    109          6           0        0.213313   -1.908873   -3.797148
    110          6           0        0.710803   -1.273990   -2.518547
    111          7           0       -4.292768   -1.712873   -0.899586
    112          6           0       -3.616792   -2.767437   -1.551525
    113          6           0       -4.135042   -4.030927   -0.988096
    114          6           0       -5.100717   -3.621084   -0.056434
    115          6           0       -5.193147   -2.202997   -0.054868
    116          6           0       -3.743612   -5.340845   -1.384362
    117          6           0       -6.070456   -4.066020    0.918411
    118          8           0       -6.374669   -5.153247    1.407413
    119          6           0       -6.983187   -2.829559    1.323988
    120          6           0       -7.083230   -2.798497    2.824493
    121          8           0       -6.077184   -2.574815    3.520530
    122          8           0       -8.380669   -2.821186    3.180168
    123          6           0       -8.531737   -2.780714    4.659144
    124          1           0       -7.124830    3.716552   -0.977639
    125          1           0       -1.813274    2.661696   -4.089897
    126          1           0       -2.222445   -3.474503   -2.819351
    127          1           0       -8.837356   -0.299633    1.327099
    128          1           0       -8.471512    2.450346    0.836295
    129          1           0       -9.403735    0.189907   -0.884615
    130          1           0       -8.620322    1.520251   -1.762561
    131          1           0      -10.025113    1.881695   -0.805720
    132          1           0       -7.070420    1.774104    2.647455
    133          1           0       -6.949083    0.066783    3.209167
    134          1           0       -9.700727    0.798809    3.198535
    135          1           0       -8.857307    2.247655    3.616097
    136          1           0       -6.319012    5.658224   -1.123543
    137          1           0       -5.463200    6.361343   -2.454858
    138          1           0       -4.724336    6.475309   -0.839972
    139          1           0       -3.443824    7.047662   -3.107926
    140          1           0       -1.596381    7.225501   -3.153049
    141          1           0       -2.487903    6.821793   -1.657851
    142          1           0       -0.291620    0.645864   -4.437197
    143          1           0       -1.531137   -2.007179   -4.967980
    144          1           0       -0.767153    0.797030   -6.646291
    145          1           0       -2.507289    0.829516   -6.191446
    146          1           0       -1.774777   -0.645782   -6.568983
    147          1           0        0.936416   -1.649403   -4.574300
    148          1           0        0.231160   -2.988114   -3.688047
    149          1           0        1.138102   -0.327495   -2.863002
    150          1           0        1.466371   -1.900331   -2.048596
    151          1           0       -0.122559   -1.034699   -1.847794
    152          1           0       -3.619783   -5.916695   -0.476851
    153          1           0       -2.828099   -5.321558   -1.971928
    154          1           0       -4.610457   -5.630278   -1.984427
    155          1           0       -7.955982   -2.971605    0.851684
    156          1           0       -9.133231   -3.649884    4.942764
    157          1           0       -8.949049   -1.782479    4.889617
    158          1           0       -7.641897   -2.934746    5.258241
 ---------------------------------------------------------------------

 SCF Done:  E(RCAM-B3LYP) =  -4069.81467664     A.U. after   19 cycles

 Excitation energies and oscillator strengths:

 Excited State   1:      Singlet-A      1.6448 eV  753.80 nm  f=0.0043  <S**2>=0.000
     309 -> 315       -0.11218
     310 -> 316        0.12254
     311 -> 313       -0.46227
     312 -> 314        0.50923
 This state for optimization and/or second-order correction.
 Total Energy, E(TD-HF/TD-DFT) =  -4069.75423199
 Copying the excited state density for this state as the 1-particle RhoCI density.

 Excited State   2:      Singlet-A      1.7024 eV  728.30 nm  f=0.6967  <S**2>=0.000
     309 -> 315        0.13434
     310 -> 316        0.12089
     311 -> 313        0.50673
     312 -> 314        0.45996

 Excited State   3:      Singlet-A      2.1808 eV  568.52 nm  f=0.0475  <S**2>=0.000
     309 -> 313        0.23593
     310 -> 314        0.59985
     312 -> 316       -0.25007

 Excited State   4:      Singlet-A      2.1958 eV  564.64 nm  f=0.1373  <S**2>=0.000
     309 -> 313        0.59572
     310 -> 314       -0.23231
     311 -> 315       -0.26115
     312 -> 316        0.10428

 Excited State   5:      Singlet-A      2.4220 eV  511.90 nm  f=0.0000  <S**2>=0.000
     312 -> 313        0.70685

 The electronic state is 1-A.
 Alpha  occ. eigenvalues --  -46.87689 -46.87384 -19.26560 -19.26193 -19.19434
 Alpha  occ. eigenvalues --  -19.18992 -19.18712 -19.18569 -19.18148 -19.17824
 Alpha  occ. eigenvalues --  -14.42359 -14.42234 -14.41340 -14.41051 -14.39293
 Alpha  occ. eigenvalues --  -14.39089 -14.38488 -14.38320 -10.39400 -10.38915
 Alpha  occ. eigenvalues --  -10.35344 -10.35254 -10.34382 -10.34000 -10.31923
 Alpha  occ. eigenvalues --  -10.31629 -10.31334 -10.31036 -10.30854 -10.30800
 Alpha  occ. eigenvalues --  -10.30475 -10.30406 -10.30114 -10.30070 -10.30069
 Alpha  occ. eigenvalues --  -10.29815 -10.29811 -10.29572 -10.29528 -10.29171
 Alpha  occ. eigenvalues --  -10.29131 -10.29129 -10.28764 -10.28654 -10.28524
 Alpha  occ. eigenvalues --  -10.28513 -10.28291 -10.28164 -10.28087 -10.27931
 Alpha  occ. eigenvalues --  -10.27742 -10.27690 -10.27626 -10.27475 -10.27404
 Alpha  occ. eigenvalues --  -10.27356 -10.27327 -10.27306 -10.27306 -10.27270
 Alpha  occ. eigenvalues --  -10.27227 -10.27224 -10.27213 -10.27000 -10.26995
 Alpha  occ. eigenvalues --  -10.26837 -10.26810 -10.26522 -10.26348 -10.26289
 Alpha  occ. eigenvalues --  -10.26196 -10.25936 -10.25889 -10.25835 -10.25691
 Alpha  occ. eigenvalues --  -10.25572 -10.25469 -10.25314 -10.25266 -10.25141
 Alpha  occ. eigenvalues --  -10.24747 -10.24689 -10.24616 -10.24416 -10.24373
 Alpha  occ. eigenvalues --  -10.23658  -3.16430  -3.16134  -1.91311  -1.91016
 Alpha  occ. eigenvalues --   -1.90898  -1.90740  -1.90604  -1.90441  -1.16916
 Alpha  occ. eigenvalues --   -1.16483  -1.08632  -1.08434  -1.07114  -1.06981
 Alpha  occ. eigenvalues --   -1.06831  -1.06775  -1.04501  -1.04239  -1.03657
 Alpha  occ. eigenvalues --   -1.03385  -1.03129  -1.02742  -1.02310  -1.01828
 Alpha  occ. eigenvalues --   -0.91936  -0.91732  -0.89384  -0.89170  -0.89095
 Alpha  occ. eigenvalues --   -0.88914  -0.88149  -0.87777  -0.87760  -0.87593
 Alpha  occ. eigenvalues --   -0.87497  -0.87408  -0.87149  -0.86908  -0.84959
 Alpha  occ. eigenvalues --   -0.84772  -0.83806  -0.83408  -0.82840  -0.82698
 Alpha  occ. eigenvalues --   -0.82620  -0.82380  -0.81625  -0.81350  -0.80559
 Alpha  occ. eigenvalues --   -0.80197  -0.78680  -0.78382  -0.77131  -0.76921
 Alpha  occ. eigenvalues --   -0.76875  -0.76573  -0.75903  -0.75596  -0.74795
 Alpha  occ. eigenvalues --   -0.74451  -0.72670  -0.72396  -0.71604  -0.71319
 Alpha  occ. eigenvalues --   -0.69723  -0.69173  -0.68833  -0.68576  -0.67576
 Alpha  occ. eigenvalues --   -0.67348  -0.67202  -0.67008  -0.65272  -0.65041
 Alpha  occ. eigenvalues --   -0.64826  -0.64570  -0.64486  -0.64380  -0.64142
 Alpha  occ. eigenvalues --   -0.63754  -0.62367  -0.62019  -0.60322  -0.60085
 Alpha  occ. eigenvalues --   -0.59759  -0.59564  -0.58917  -0.58706  -0.58450
 Alpha  occ. eigenvalues --   -0.58141  -0.57661  -0.57329  -0.57220  -0.56919
 Alpha  occ. eigenvalues --   -0.56276  -0.56054  -0.55935  -0.55673  -0.55459
 Alpha  occ. eigenvalues --   -0.55302  -0.55251  -0.54908  -0.54532  -0.54090
 Alpha  occ. eigenvalues --   -0.53892  -0.53701  -0.53208  -0.53194  -0.52991
 Alpha  occ. eigenvalues --   -0.52958  -0.52868  -0.52670  -0.52649  -0.52500
 Alpha  occ. eigenvalues --   -0.52242  -0.51816  -0.51709  -0.51594  -0.51538
 Alpha  occ. eigenvalues --   -0.51460  -0.51139  -0.50867  -0.50427  -0.50275
 Alpha  occ. eigenvalues --   -0.49908  -0.49810  -0.49758  -0.49514  -0.49390
 Alpha  occ. eigenvalues --   -0.49269  -0.49173  -0.49066  -0.48986  -0.48846
 Alpha  occ. eigenvalues --   -0.48598  -0.48408  -0.48339  -0.48337  -0.48164
 Alpha  occ. eigenvalues --   -0.48038  -0.47631  -0.47332  -0.47216  -0.46875
 Alpha  occ. eigenvalues --   -0.46709  -0.46545  -0.46413  -0.46300  -0.46284
 Alpha  occ. eigenvalues --   -0.46090  -0.45955  -0.45819  -0.45782  -0.45554
 Alpha  occ. eigenvalues --   -0.45085  -0.44844  -0.44561  -0.44425  -0.44308
 Alpha  occ. eigenvalues --   -0.44186  -0.44093  -0.44010  -0.43953  -0.43917
 Alpha  occ. eigenvalues --   -0.43742  -0.43651  -0.43515  -0.43321  -0.43244
 Alpha  occ. eigenvalues --   -0.43116  -0.42965  -0.42839  -0.42708  -0.42627
 Alpha  occ. eigenvalues --   -0.42506  -0.42148  -0.41905  -0.41647  -0.41510
 Alpha  occ. eigenvalues --   -0.41491  -0.41395  -0.41096  -0.41074  -0.40816
 Alpha  occ. eigenvalues --   -0.40746  -0.40738  -0.40564  -0.40440  -0.40418
 Alpha  occ. eigenvalues --   -0.40261  -0.40056  -0.39972  -0.39240  -0.38791
 Alpha  occ. eigenvalues --   -0.38351  -0.37952  -0.37772  -0.37437  -0.37236
 Alpha  occ. eigenvalues --   -0.37203  -0.36973  -0.36902  -0.36863  -0.36550
 Alpha  occ. eigenvalues --   -0.36168  -0.35870  -0.34218  -0.34051  -0.33974
 Alpha  occ. eigenvalues --   -0.33673  -0.33108  -0.32893  -0.31245  -0.31128
 Alpha  occ. eigenvalues --   -0.30964  -0.30704  -0.30019  -0.29726  -0.29339
 Alpha  occ. eigenvalues --   -0.29223  -0.29087  -0.28945  -0.23996  -0.23756
 Alpha  occ. eigenvalues --   -0.21023  -0.20835
 Alpha virt. eigenvalues --   -0.08674  -0.08528  -0.01647  -0.01407   0.00031
 Alpha virt. eigenvalues --    0.00174   0.02265   0.02470   0.02891   0.03846
 Alpha virt. eigenvalues --    0.04695   0.04780   0.04986   0.05347   0.05997

 Mulliken charges:
               1
     1  Mg   0.838814
     2  C   -0.005178
     3  C   -0.093347
     4  C   -0.045625
     5  C   -0.062810
     6  N   -0.256978
     7  C   -0.053436
     8  C   -0.013724
     9  C   -0.087343
    10  C    0.046764
    11  C    0.104774
    12  C    0.050414
    13  C   -0.071656
    14  H    0.033485
    15  N   -0.433277
    16  C    0.169476
    17  C   -0.175820
    18  C   -0.003421
    19  C    0.148978
    20  C    0.109803
    21  C    0.012536
    22  O   -0.250143
    23  C    0.061723
    24  N   -0.341009
    25  C    0.041509
    26  C   -0.028088
    27  C   -0.024140
    28  C    0.074898
    29  C    0.076299
    30  C    0.034917
    31  C   -0.005071
    32  N   -0.310687
    33  C    0.080734
    34  C   -0.168823
    35  C    0.007633
    36  C    0.083146
    37  C    0.127211
    38  C    0.045338
    39  O   -0.188995
    40  C   -0.005648
    41  C    0.215705
    42  O   -0.258447
    43  O   -0.303298
    44  C    0.157372
    45  H   -0.017697
    46  H   -0.016903
    47  H   -0.040539
    48  H    0.000551
    49  H   -0.003659
    50  H    0.025284
    51  H    0.016870
    52  H    0.016698
    53  H    0.013088
    54  H    0.043408
    55  H    0.018609
    56  H    0.019367
    57  H    0.005901
    58  H    0.026148
    59  H    0.042653
    60  H    0.037289
    61  H    0.034439
    62  H    0.033679
    63  H    0.016689
    64  H    0.009240
    65  H    0.022949
    66  H    0.012170
    67  H    0.004764
    68  H    0.005959
    69  H    0.005727
    70  H    0.007587
    71  H    0.022647
    72  H    0.028588
    73  H    0.048025
    74  H    0.010417
    75  H    0.045568
    76  H    0.035611
    77  H    0.044286
    78  H    0.047168
    79  H    0.051926
    80  Mg   0.837462
    81  C   -0.017649
    82  C   -0.088308
    83  C   -0.046048
    84  C   -0.063137
    85  N   -0.254637
    86  C   -0.049803
    87  C   -0.015096
    88  C   -0.090388
    89  C    0.045481
    90  C    0.114577
    91  C    0.062596
    92  C   -0.077497
    93  H    0.034012
    94  N   -0.423205
    95  C    0.162576
    96  C   -0.175130
    97  C   -0.008527
    98  C    0.151889
    99  C    0.099452
   100  C    0.014629
   101  O   -0.255526
   102  C    0.061522
   103  N   -0.350543
   104  C    0.037954
   105  C   -0.018696
   106  C   -0.036298
   107  C    0.090103
   108  C    0.074588
   109  C    0.037556
   110  C   -0.021594
   111  N   -0.324421
   112  C    0.079208
   113  C   -0.161337
   114  C    0.001740
   115  C    0.096733
   116  C    0.130779
   117  C    0.042451
   118  O   -0.188129
   119  C    0.000911
   120  C    0.211268
   121  O   -0.251465
   122  O   -0.305601
   123  C    0.152273
   124  H   -0.020616
   125  H   -0.017096
   126  H   -0.036600
   127  H   -0.001066
   128  H   -0.004841
   129  H    0.022140
   130  H    0.014348
   131  H    0.015578
   132  H    0.014089
   133  H    0.037372
   134  H    0.020592
   135  H    0.019450
   136  H    0.008434
   137  H    0.025009
   138  H    0.039241
   139  H    0.038408
   140  H    0.033321
   141  H    0.034304
   142  H    0.013056
   143  H    0.010886
   144  H    0.022487
   145  H    0.010486
   146  H    0.005086
   147  H    0.001991
   148  H    0.013156
   149  H    0.003293
   150  H    0.043001
   151  H    0.022952
   152  H    0.046725
   153  H    0.012765
   154  H    0.045794
   155  H    0.034519
   156  H    0.043608
   157  H    0.049286
   158  H    0.053047
 Sum of Mulliken charges =  -0.00000

 Dipole moment (field-independent basis, Debye):
    X=              0.6513    Y=              6.6299    Z=             -2.4087  Tot=              7.0838
 Quadrupole moment (field-independent basis, Debye-Ang):
   XX=           -452.3677   YY=           -538.5870   ZZ=           -482.9261
   XY=            -19.5594   XZ=            -19.5287   YZ=              5.2790

 Normal termination of Gaussian 16 at Thu Sep  9 15:36:15 2021.
