 Gaussian 16, Revision A.03,
 Gaussian 16:  ES64L-G16RevA.03 25-Dec-2016

 -----------------------------------
 #p cam-b3lyp/Def2SVP td=(nstates=5)
 -----------------------------------

 --------------------------------
 TDDFT excited states in gaussian
 --------------------------------
 Symbolic Z-matrix:
 Charge =  0 Multiplicity = 1

                         Standard orientation:
 ---------------------------------------------------------------------
 Center     Atomic      Atomic             Coordinates (Angstroms)
 Number     Number       Type             X           Y           Z
 ---------------------------------------------------------------------
      1         12           0        4.460074   -0.574791    0.967048
      2          6           0        5.104651    2.220417   -1.173873
      3          6           0        4.730332    1.573002    3.604663
      4          6           0        4.345861   -3.093909    2.889968
      5          6           0        5.359183   -2.634166   -1.696829
      6          7           0        4.866215    1.598754    1.073790
      7          6           0        5.035618    2.565889    0.177618
      8          6           0        5.057384    3.992084    0.804410
      9          6           0        5.502014    3.608811    2.286775
     10          6           0        4.970863    2.187195    2.339774
     11          6           0        7.014679    3.575499    2.479743
     12          6           0        3.646431    4.670784    0.786924
     13          6           0        3.641077    6.174546    1.076798
     14          1           0        2.681540    7.018477    0.380798
     15          7           0        4.048894   -0.696944    2.895483
     16          6           0        4.204168    0.280880    3.820165
     17          6           0        3.760758   -0.299805    5.105807
     18          6           0        3.514455   -1.752404    4.888126
     19          6           0        3.991156   -1.913200    3.538208
     20          6           0        3.564997    0.510179    6.350537
     21          6           0        2.950249   -2.827487    5.762197
     22          8           0        3.038524   -4.066478    5.459407
     23          6           0        2.361947   -2.392450    7.041918
     24          7           0        5.011044   -2.573454    0.723299
     25          6           0        4.801660   -3.470198    1.693348
     26          6           0        5.008813   -4.870301    1.196619
     27          6           0        5.168449   -4.758015   -0.388203
     28          6           0        5.102716   -3.216693   -0.523391
     29          6           0        6.217466   -5.615357    1.779765
     30          6           0        4.211758   -5.615815   -1.253849
     31          6           0        2.793511   -5.112778   -1.103424
     32          7           0        4.947493   -0.300209   -1.130110
     33          6           0        5.313690   -1.295306   -2.047909
     34          6           0        5.652653   -0.614358   -3.311033
     35          6           0        5.474886    0.739613   -3.033536
     36          6           0        5.077034    0.896421   -1.675075
     37          6           0        6.119454   -1.244463   -4.498257
     38          6           0        5.552300    2.092023   -3.561600
     39          8           0        5.744778    2.577634   -4.677229
     40          6           0        5.433742    3.112544   -2.344921
     41          6           0        4.430516    4.165163   -2.730718
     42          8           0        3.225212    3.876949   -2.877489
     43          8           0        4.998306    5.377107   -2.634035
     44          6           0        4.047538    6.468902   -2.974884
     45          1           0        5.024949    2.102276    4.512964
     46          1           0        4.213653   -3.998770    3.486781
     47          1           0        5.566669   -3.217443   -2.595823
     48          1           0        5.785259    4.672126    0.361505
     49          1           0        5.004548    4.227286    3.033593
     50          1           0        7.539906    3.694704    1.532195
     51          1           0        7.231166    2.599645    2.914871
     52          1           0        7.326744    4.310501    3.222148
     53          1           0        3.066170    4.315617    1.638519
     54          1           0        3.140459    4.484554   -0.161041
     55          1           0        4.643549    6.597616    1.006299
     56          1           0        3.358195    6.320402    2.119344
     57          1           0        3.983237    1.510653    6.247230
     58          1           0        4.165482    0.044048    7.131466
     59          1           0        2.520110    0.541515    6.659666
     60          1           0        3.120237   -1.873517    7.628650
     61          1           0        1.929404   -3.284881    7.492833
     62          1           0        1.577774   -1.662234    6.839915
     63          1           0        4.148332   -5.497726    1.425390
     64          1           0        6.164087   -5.052475   -0.720878
     65          1           0        5.959052   -6.556953    2.264867
     66          1           0        6.724515   -4.944640    2.472825
     67          1           0        7.011478   -5.828696    1.064610
     68          1           0        4.222008   -6.651891   -0.917120
     69          1           0        4.467414   -5.608931   -2.313492
     70          1           0        2.456133   -5.604731   -0.191837
     71          1           0        2.189049   -5.417767   -1.958303
     72          1           0        2.769455   -4.038110   -0.921779
     73          1           0        5.581497   -0.777479   -5.323179
     74          1           0        5.945658   -2.319925   -4.470353
     75          1           0        7.178812   -0.991489   -4.457994
     76          1           0        6.427394    3.531526   -2.189255
     77          1           0        4.504636    7.055376   -3.771968
     78          1           0        3.814619    6.979900   -2.040521
     79          1           0        3.115198    6.164730   -3.451917
     80         12           0       -4.308004   -0.706666   -1.004705
     81          6           0       -5.773929    1.652215    1.268138
     82          6           0       -4.038697    1.848615   -3.248051
     83          6           0       -3.433295   -2.842443   -3.182034
     84          6           0       -5.715946   -3.238177    0.933040
     85          7           0       -4.868362    1.429848   -0.888140
     86          6           0       -5.361246    2.226839    0.047913
     87          6           0       -5.340505    3.735762   -0.315801
     88          6           0       -5.324994    3.597287   -1.915637
     89          6           0       -4.671692    2.221975   -2.035614
     90          6           0       -6.714324    3.521037   -2.526598
     91          6           0       -4.051841    4.459831    0.210598
     92          6           0       -4.108100    5.988325    0.162741
     93          1           0       -3.452173    6.742628    1.227279
     94          7           0       -3.366001   -0.465122   -2.734690
     95          6           0       -3.343515    0.645642   -3.500840
     96          6           0       -2.530238    0.305618   -4.678610
     97          6           0       -2.211480   -1.147046   -4.625019
     98          6           0       -3.026498   -1.554366   -3.498108
     99          6           0       -2.066715    1.331944   -5.671200
    100          6           0       -1.330162   -2.026795   -5.458997
    101          8           0       -1.387275   -3.304888   -5.381161
    102          6           0       -0.464830   -1.350343   -6.436285
    103          7           0       -4.713477   -2.732733   -1.234876
    104          6           0       -4.165119   -3.437689   -2.239990
    105          6           0       -4.375659   -4.920233   -2.044766
    106          6           0       -4.971996   -5.078872   -0.569374
    107          6           0       -5.091730   -3.588260   -0.183197
    108          6           0       -5.310690   -5.596997   -3.046823
    109          6           0       -4.217743   -6.034142    0.395631
    110          6           0       -2.859847   -5.461205    0.732175
    111          7           0       -5.367418   -0.819969    0.874889
    112          6           0       -5.890676   -1.978049    1.490631
    113          6           0       -6.625101   -1.537131    2.694229
    114          6           0       -6.496595   -0.140046    2.682539
    115          6           0       -5.752945    0.262935    1.540571
    116          6           0       -7.332992   -2.383572    3.593414
    117          6           0       -6.829982    1.086230    3.370864
    118          8           0       -7.371007    1.362368    4.440800
    119          6           0       -6.484773    2.310579    2.417870
    120          6           0       -5.722277    3.326080    3.224024
    121          8           0       -4.591843    3.060198    3.669037
    122          8           0       -6.355565    4.511069    3.152459
    123          6           0       -5.631274    5.553480    3.927451
    124          1           0       -4.116234    2.521578   -4.102452
    125          1           0       -3.062972   -3.629425   -3.843088
    126          1           0       -6.099664   -3.974222    1.642737
    127          1           0       -6.215000    4.291417    0.000847
    128          1           0       -4.697593    4.358552   -2.371921
    129          1           0       -7.483349    3.453458   -1.771497
    130          1           0       -6.714522    2.634533   -3.147205
    131          1           0       -6.874565    4.363890   -3.205015
    132          1           0       -3.227891    4.280052   -0.491917
    133          1           0       -3.813596    4.137981    1.205721
    134          1           0       -5.127917    6.358418    0.001686
    135          1           0       -3.557390    6.328446   -0.717635
    136          1           0       -2.594244    2.284855   -5.540594
    137          1           0       -2.378229    0.982541   -6.661530
    138          1           0       -0.982416    1.462093   -5.667298
    139          1           0       -1.078546   -0.770843   -7.121846
    140          1           0        0.153642   -2.136998   -6.872787
    141          1           0        0.172523   -0.635742   -5.903622
    142          1           0       -3.435799   -5.455328   -2.103331
    143          1           0       -5.994995   -5.482698   -0.584620
    144          1           0       -4.836947   -6.438964   -3.586024
    145          1           0       -5.662729   -4.848667   -3.744392
    146          1           0       -6.240472   -5.977057   -2.626990
    147          1           0       -4.037009   -6.996767   -0.088983
    148          1           0       -4.757189   -6.233005    1.315649
    149          1           0       -2.243465   -5.772406   -0.116531
    150          1           0       -2.487745   -5.880247    1.664902
    151          1           0       -2.885243   -4.365312    0.736850
    152          1           0       -7.092211   -2.046705    4.592934
    153          1           0       -7.065427   -3.428367    3.449926
    154          1           0       -8.361802   -2.177413    3.286303
    155          1           0       -7.427905    2.709976    2.042962
    156          1           0       -6.345765    5.975091    4.641205
    157          1           0       -5.204781    6.242934    3.174795
    158          1           0       -4.838976    5.225399    4.590080
 ---------------------------------------------------------------------

 SCF Done:  E(RCAM-B3LYP) =  -4069.81287705     A.U. after   18 cycles

 Excitation energies and oscillator strengths:

 Excited State   1:      Singlet-A      1.6475 eV  752.56 nm  f=0.0222  <S**2>=0.000
     309 -> 315        0.11485
     310 -> 316        0.12131
     311 -> 313       -0.47155
     312 -> 314        0.50062
 This state for optimization and/or second-order correction.
 Total Energy, E(TD-HF/TD-DFT) =  -4069.75233259
 Copying the excited state density for this state as the 1-particle RhoCI density.

 Excited State   2:      Singlet-A      1.7046 eV  727.34 nm  f=0.6840  <S**2>=0.000
     309 -> 315       -0.13256
     310 -> 316        0.12414
     311 -> 313        0.49800
     312 -> 314        0.46923

 Excited State   3:      Singlet-A      2.1851 eV  567.40 nm  f=0.0089  <S**2>=0.000
     309 -> 313        0.36016
     310 -> 314        0.53397
     311 -> 315        0.15097
     312 -> 316       -0.22473

 Excited State   4:      Singlet-A      2.1970 eV  564.33 nm  f=0.1673  <S**2>=0.000
     309 -> 313        0.53017
     310 -> 314       -0.35654
     311 -> 315        0.23369
     312 -> 316        0.15742

 Excited State   5:      Singlet-A      2.4468 eV  506.72 nm  f=0.0000  <S**2>=0.000
     312 -> 313        0.70705

 The electronic state is 1-A.
 Alpha  occ. eigenvalues --  -46.87699 -46.87441 -19.26414 -19.26306 -19.19154
 Alpha  occ. eigenvalues --  -19.19104 -19.18667 -19.18433 -19.18174 -19.17885
 Alpha  occ. eigenvalues --  -14.42359 -14.42279 -14.41345 -14.41147 -14.39298
 Alpha  occ. eigenvalues --  -14.39118 -14.38505 -14.38389 -10.39196 -10.39024
 Alpha  occ. eigenvalues --  -10.35294 -10.35100 -10.34398 -10.34069 -10.31851
 Alpha  occ. eigenvalues --  -10.31760 -10.31337 -10.31109 -10.30819 -10.30790
 Alpha  occ. eigenvalues --  -10.30491 -10.30419 -10.30191 -10.30144 -10.30071
 Alpha  occ. eigenvalues --  -10.29902 -10.29833 -10.29715 -10.29537 -10.29183
 Alpha  occ. eigenvalues --  -10.29163 -10.29138 -10.28700 -10.28549 -10.28545
 Alpha  occ. eigenvalues --  -10.28537 -10.28282 -10.28176 -10.28053 -10.27946
 Alpha  occ. eigenvalues --  -10.27769 -10.27712 -10.27629 -10.27475 -10.27435
 Alpha  occ. eigenvalues --  -10.27348 -10.27333 -10.27332 -10.27324 -10.27288
 Alpha  occ. eigenvalues --  -10.27277 -10.27213 -10.27206 -10.27173 -10.26990
 Alpha  occ. eigenvalues --  -10.26908 -10.26673 -10.26522 -10.26184 -10.26178
 Alpha  occ. eigenvalues --  -10.25987 -10.25973 -10.25959 -10.25904 -10.25855
 Alpha  occ. eigenvalues --  -10.25811 -10.25716 -10.25689 -10.25328 -10.25259
 Alpha  occ. eigenvalues --  -10.24769 -10.24692 -10.24657 -10.24532 -10.24486
 Alpha  occ. eigenvalues --  -10.24407  -3.16441  -3.16192  -1.91323  -1.91074
 Alpha  occ. eigenvalues --   -1.90909  -1.90752  -1.90662  -1.90499  -1.16761
 Alpha  occ. eigenvalues --   -1.16595  -1.08650  -1.08509  -1.07065  -1.06885
 Alpha  occ. eigenvalues --   -1.06771  -1.06688  -1.04495  -1.04277  -1.03661
 Alpha  occ. eigenvalues --   -1.03445  -1.03139  -1.02822  -1.02318  -1.01895
 Alpha  occ. eigenvalues --   -0.91919  -0.91794  -0.89393  -0.89295  -0.89128
 Alpha  occ. eigenvalues --   -0.88964  -0.88161  -0.88032  -0.87807  -0.87595
 Alpha  occ. eigenvalues --   -0.87583  -0.87469  -0.87132  -0.86794  -0.84916
 Alpha  occ. eigenvalues --   -0.84807  -0.83811  -0.83698  -0.82806  -0.82650
 Alpha  occ. eigenvalues --   -0.82570  -0.82407  -0.81590  -0.81459  -0.80537
 Alpha  occ. eigenvalues --   -0.80253  -0.78681  -0.78360  -0.77122  -0.76930
 Alpha  occ. eigenvalues --   -0.76891  -0.76741  -0.75882  -0.75655  -0.74798
 Alpha  occ. eigenvalues --   -0.74623  -0.72686  -0.72485  -0.71597  -0.71391
 Alpha  occ. eigenvalues --   -0.69741  -0.69568  -0.68800  -0.68627  -0.67564
 Alpha  occ. eigenvalues --   -0.67397  -0.67142  -0.66977  -0.65233  -0.65089
 Alpha  occ. eigenvalues --   -0.64802  -0.64585  -0.64550  -0.64475  -0.64151
 Alpha  occ. eigenvalues --   -0.64014  -0.62314  -0.62152  -0.60312  -0.60068
 Alpha  occ. eigenvalues --   -0.59736  -0.59596  -0.58911  -0.58797  -0.58434
 Alpha  occ. eigenvalues --   -0.58233  -0.57601  -0.57416  -0.57216  -0.57023
 Alpha  occ. eigenvalues --   -0.56247  -0.56006  -0.55994  -0.55746  -0.55424
 Alpha  occ. eigenvalues --   -0.55275  -0.55229  -0.55082  -0.54482  -0.54345
 Alpha  occ. eigenvalues --   -0.53839  -0.53726  -0.53206  -0.53141  -0.53021
 Alpha  occ. eigenvalues --   -0.52929  -0.52882  -0.52722  -0.52622  -0.52340
 Alpha  occ. eigenvalues --   -0.52263  -0.52212  -0.51874  -0.51712  -0.51545
 Alpha  occ. eigenvalues --   -0.51434  -0.51137  -0.51023  -0.50386  -0.50122
 Alpha  occ. eigenvalues --   -0.49889  -0.49797  -0.49721  -0.49646  -0.49433
 Alpha  occ. eigenvalues --   -0.49247  -0.49152  -0.49049  -0.48976  -0.48928
 Alpha  occ. eigenvalues --   -0.48571  -0.48394  -0.48388  -0.48321  -0.48212
 Alpha  occ. eigenvalues --   -0.48064  -0.47604  -0.47371  -0.47198  -0.46872
 Alpha  occ. eigenvalues --   -0.46704  -0.46514  -0.46501  -0.46357  -0.46277
 Alpha  occ. eigenvalues --   -0.46095  -0.46052  -0.45908  -0.45814  -0.45678
 Alpha  occ. eigenvalues --   -0.45087  -0.45024  -0.44553  -0.44390  -0.44347
 Alpha  occ. eigenvalues --   -0.44277  -0.44076  -0.43993  -0.43943  -0.43928
 Alpha  occ. eigenvalues --   -0.43875  -0.43666  -0.43491  -0.43426  -0.43301
 Alpha  occ. eigenvalues --   -0.43201  -0.42957  -0.42817  -0.42767  -0.42715
 Alpha  occ. eigenvalues --   -0.42514  -0.42338  -0.41902  -0.41780  -0.41640
 Alpha  occ. eigenvalues --   -0.41485  -0.41464  -0.41273  -0.41066  -0.40799
 Alpha  occ. eigenvalues --   -0.40784  -0.40687  -0.40526  -0.40450  -0.40445
 Alpha  occ. eigenvalues --   -0.40313  -0.40174  -0.40021  -0.39264  -0.39231
 Alpha  occ. eigenvalues --   -0.38352  -0.38171  -0.37705  -0.37490  -0.37208
 Alpha  occ. eigenvalues --   -0.37201  -0.37072  -0.36996  -0.36771  -0.36686
 Alpha  occ. eigenvalues --   -0.36141  -0.36050  -0.34204  -0.34051  -0.33868
 Alpha  occ. eigenvalues --   -0.33776  -0.33105  -0.32962  -0.31201  -0.31003
 Alpha  occ. eigenvalues --   -0.30950  -0.30761  -0.30040  -0.29799  -0.29353
 Alpha  occ. eigenvalues --   -0.29242  -0.29081  -0.28984  -0.23992  -0.23825
 Alpha  occ. eigenvalues --   -0.21032  -0.20891
 Alpha virt. eigenvalues --   -0.08679  -0.08558  -0.01645  -0.01464   0.00051
 Alpha virt. eigenvalues --    0.00232   0.02249   0.02396   0.02891   0.03799
 Alpha virt. eigenvalues --    0.04790   0.04918   0.05002   0.05247   0.06189

 Mulliken charges:
               1
     1  Mg   0.839362
     2  C   -0.003556
     3  C   -0.093189
     4  C   -0.045701
     5  C   -0.063158
     6  N   -0.256917
     7  C   -0.052652
     8  C   -0.014224
     9  C   -0.087209
    10  C    0.046693
    11  C    0.104795
    12  C    0.053189
    13  C   -0.071254
    14  H    0.033864
    15  N   -0.433368
    16  C    0.169290
    17  C   -0.175852
    18  C   -0.003243
    19  C    0.149037
    20  C    0.109906
    21  C    0.013013
    22  O   -0.249898
    23  C    0.061749
    24  N   -0.341275
    25  C    0.041689
    26  C   -0.028126
    27  C   -0.023925
    28  C    0.074765
    29  C    0.076277
    30  C    0.035015
    31  C   -0.005459
    32  N   -0.310035
    33  C    0.079922
    34  C   -0.171028
    35  C    0.007016
    36  C    0.082324
    37  C    0.127780
    38  C    0.044266
    39  O   -0.190653
    40  C   -0.004777
    41  C    0.212750
    42  O   -0.259465
    43  O   -0.304100
    44  C    0.158448
    45  H   -0.017403
    46  H   -0.016710
    47  H   -0.041240
    48  H    0.000311
    49  H   -0.003532
    50  H    0.025182
    51  H    0.016637
    52  H    0.016661
    53  H    0.013171
    54  H    0.042781
    55  H    0.017693
    56  H    0.018925
    57  H    0.005912
    58  H    0.026592
    59  H    0.042762
    60  H    0.037012
    61  H    0.035694
    62  H    0.034460
    63  H    0.016719
    64  H    0.009042
    65  H    0.023051
    66  H    0.012319
    67  H    0.004653
    68  H    0.005682
    69  H    0.005355
    70  H    0.007526
    71  H    0.022936
    72  H    0.028674
    73  H    0.045218
    74  H    0.010036
    75  H    0.045807
    76  H    0.035141
    77  H    0.042692
    78  H    0.046926
    79  H    0.051245
    80  Mg   0.837671
    81  C   -0.017153
    82  C   -0.085264
    83  C   -0.045852
    84  C   -0.064905
    85  N   -0.254558
    86  C   -0.050440
    87  C   -0.015151
    88  C   -0.090827
    89  C    0.045921
    90  C    0.114410
    91  C    0.061804
    92  C   -0.077095
    93  H    0.032140
    94  N   -0.423894
    95  C    0.164190
    96  C   -0.171835
    97  C   -0.007026
    98  C    0.152189
    99  C    0.098509
   100  C    0.016027
   101  O   -0.255266
   102  C    0.059655
   103  N   -0.350089
   104  C    0.037931
   105  C   -0.019725
   106  C   -0.034483
   107  C    0.088461
   108  C    0.073918
   109  C    0.034874
   110  C   -0.007725
   111  N   -0.323747
   112  C    0.077594
   113  C   -0.164016
   114  C    0.001605
   115  C    0.095480
   116  C    0.131725
   117  C    0.041396
   118  O   -0.189673
   119  C    0.001128
   120  C    0.211260
   121  O   -0.252233
   122  O   -0.305322
   123  C    0.152573
   124  H   -0.019262
   125  H   -0.016207
   126  H   -0.041116
   127  H   -0.001467
   128  H   -0.003465
   129  H    0.022009
   130  H    0.014491
   131  H    0.016056
   132  H    0.016795
   133  H    0.036524
   134  H    0.020359
   135  H    0.020349
   136  H    0.008698
   137  H    0.024879
   138  H    0.048966
   139  H    0.038140
   140  H    0.034612
   141  H    0.040932
   142  H    0.013721
   143  H    0.011833
   144  H    0.024460
   145  H    0.011671
   146  H    0.005379
   147  H    0.005380
   148  H    0.003445
   149  H    0.010191
   150  H    0.019153
   151  H    0.030276
   152  H    0.044824
   153  H    0.008240
   154  H    0.046293
   155  H    0.034620
   156  H    0.043394
   157  H    0.049511
   158  H    0.052119
 Sum of Mulliken charges =  -0.00000

 Dipole moment (field-independent basis, Debye):
    X=              1.3298    Y=              3.0856    Z=              0.2290  Tot=              3.3677
 Quadrupole moment (field-independent basis, Debye-Ang):
   XX=           -512.3951   YY=           -462.1060   ZZ=           -526.0978
   XY=              2.0368   XZ=             46.1902   YZ=              9.0406

 Normal termination of Gaussian 16 at Thu Sep  9 16:24:40 2021.
