 Gaussian 16, Revision A.03,
 Gaussian 16:  ES64L-G16RevA.03 25-Dec-2016

 -----------------------------------
 #p cam-b3lyp/Def2SVP td=(nstates=5)
 -----------------------------------

 --------------------------------
 TDDFT excited states in gaussian
 --------------------------------
 Symbolic Z-matrix:
 Charge =  0 Multiplicity = 1

                         Standard orientation:
 ---------------------------------------------------------------------
 Center     Atomic      Atomic             Coordinates (Angstroms)
 Number     Number       Type             X           Y           Z
 ---------------------------------------------------------------------
      1         12           0        8.052091    0.514286    0.935364
      2          6           0        8.515996   -2.389914   -1.104887
      3          6           0        9.226174    2.359188   -1.683973
      4          6           0        8.081292    3.032222    2.862997
      5          6           0        8.007763   -1.613041    3.695469
      6          7           0        8.749109   -0.057399   -1.086513
      7          6           0        8.820524   -1.197834   -1.765836
      8          6           0        9.176932   -0.999952   -3.269561
      9          6           0        9.913004    0.410841   -3.170260
     10          6           0        9.231404    0.953419   -1.926494
     11          6           0       11.410156    0.299291   -2.900824
     12          6           0        7.903300   -0.919024   -4.176779
     13          6           0        8.162291   -1.053972   -5.680131
     14          1           0        7.180331   -1.746891   -6.500475
     15          7           0        8.106474    2.444991    0.520308
     16          6           0        8.605325    3.018531   -0.601068
     17          6           0        8.414307    4.475264   -0.433371
     18          6           0        7.937314    4.714545    0.957067
     19          6           0        8.049099    3.392270    1.517845
     20          6           0        8.631144    5.465862   -1.535844
     21          6           0        7.466909    5.942416    1.670638
     22          8           0        7.318737    5.976642    2.940066
     23          6           0        7.266245    7.146342    0.843995
     24          7           0        8.265108    0.718198    3.001926
     25          6           0        8.182166    1.917025    3.589225
     26          6           0        8.080701    1.788741    5.080260
     27          6           0        7.866078    0.234441    5.376643
     28          6           0        7.969215   -0.298786    3.926366
     29          6           0        9.287774    2.298763    5.879549
     30          6           0        6.626186   -0.156022    6.219628
     31          6           0        5.363402    0.132190    5.438982
     32          7           0        8.049975   -1.631928    1.259103
     33          6           0        8.052100   -2.298492    2.492944
     34          6           0        8.161044   -3.740420    2.204773
     35          6           0        8.231881   -3.811837    0.814908
     36          6           0        8.197479   -2.496191    0.270679
     37          6           0        8.241998   -4.779953    3.172890
     38          6           0        8.353444   -4.692134   -0.335813
     39          8           0        8.331895   -5.912833   -0.499894
     40          6           0        8.664943   -3.800616   -1.617995
     41          6           0        7.742806   -4.249541   -2.718648
     42          8           0        6.510913   -4.068493   -2.634825
     43          8           0        8.468716   -4.601525   -3.790891
     44          6           0        7.612943   -5.029273   -4.929679
     45          1           0        9.797176    3.011430   -2.347658
     46          1           0        7.981411    3.866491    3.560462
     47          1           0        7.914951   -2.342168    4.502446
     48          1           0        9.857852   -1.747234   -3.677411
     49          1           0        9.694718    1.045090   -4.029213
     50          1           0       11.701916   -0.730046   -2.692825
     51          1           0       11.597440    0.930984   -2.032273
     52          1           0       11.984445    0.735940   -3.718324
     53          1           0        7.504977    0.095145   -4.147442
     54          1           0        7.163733   -1.659648   -3.870442
     55          1           0        9.164055   -1.435686   -5.879310
     56          1           0        8.160774   -0.055707   -6.117926
     57          1           0        9.137628    5.013002   -2.387276
     58          1           0        9.337055    6.207746   -1.163009
     59          1           0        7.704871    5.957127   -1.834188
     60          1           0        8.204223    7.406036    0.352767
     61          1           0        6.843884    7.899902    1.507779
     62          1           0        6.557542    6.914325    0.048472
     63          1           0        7.227333    2.346639    5.463587
     64          1           0        8.705327   -0.197601    5.922238
     65          1           0        9.034795    3.063079    6.614755
     66          1           0       10.029382    2.667480    5.171483
     67          1           0        9.851226    1.524903    6.400203
     68          1           0        6.583580    0.440630    7.130198
     69          1           0        6.617109   -1.206472    6.510701
     70          1           0        5.195504    1.191493    5.630084
     71          1           0        4.536251   -0.468836    5.818191
     72          1           0        5.522873    0.015774    4.366833
     73          1           0        7.585713   -5.575978    2.821317
     74          1           0        7.942729   -4.426528    4.159364
     75          1           0        9.303257   -5.022518    3.120459
     76          1           0        9.712304   -3.966556   -1.868238
     77          1           0        7.935837   -6.030412   -5.215499
     78          1           0        7.680502   -4.242116   -5.680829
     79          1           0        6.561780   -5.209320   -4.701692
     80         12           0       -7.714242    0.403815   -0.900130
     81          6           0       -9.597971   -1.702569    1.312064
     82          6           0       -9.898815    2.908791   -0.133765
     83          6           0       -6.354934    2.150161   -3.173882
     84          6           0       -6.418126   -2.496412   -2.333475
     85          7           0       -9.479250    0.472053    0.431171
     86          6           0      -10.063411   -0.371814    1.268417
     87          6           0      -11.158754    0.265969    2.164526
     88          6           0      -11.538248    1.514507    1.228566
     89          6           0      -10.215023    1.671581    0.482201
     90          6           0      -12.624282    1.197822    0.213879
     91          6           0      -10.596554    0.737697    3.551393
     92          6           0      -11.662519    1.085480    4.592798
     93          1           0      -11.392060    0.779056    5.994735
     94          7           0       -7.749586    2.364078   -1.207798
     95          6           0       -8.701089    3.233527   -0.807806
     96          6           0       -8.272928    4.552501   -1.298876
     97          6           0       -7.075516    4.365429   -2.162542
     98          6           0       -7.024894    2.918873   -2.233250
     99          6           0       -8.934301    5.832103   -0.876245
    100          6           0       -6.139441    5.329168   -2.826748
    101          8           0       -5.308124    4.949481   -3.725409
    102          6           0       -6.288861    6.745441   -2.461640
    103          7           0       -6.718825   -0.095176   -2.655831
    104          6           0       -6.178434    0.855458   -3.438260
    105          6           0       -5.281436    0.250166   -4.491549
    106          6           0       -5.140739   -1.294076   -4.100252
    107          6           0       -6.094380   -1.335378   -2.886074
    108          6           0       -5.775811    0.366590   -5.933223
    109          6           0       -3.699844   -1.847884   -3.927605
    110          6           0       -3.047199   -1.220011   -2.717136
    111          7           0       -7.799313   -1.712962   -0.475767
    112          6           0       -7.205095   -2.756437   -1.218828
    113          6           0       -7.638278   -4.028831   -0.605812
    114          6           0       -8.479588   -3.634765    0.445570
    115          6           0       -8.580793   -2.217534    0.472476
    116          6           0       -7.291797   -5.332110   -1.061354
    117          6           0       -9.313521   -4.095823    1.532161
    118          8           0       -9.545165   -5.189619    2.045669
    119          6           0      -10.175325   -2.870265    2.062918
    120          6           0      -10.082726   -2.852879    3.564131
    121          8           0       -8.997447   -2.627103    4.127864
    122          8           0      -11.323798   -2.889040    4.082592
    123          6           0      -11.284632   -2.862476    5.569057
    124          1           0      -10.655331    3.693997   -0.139167
    125          1           0       -5.778598    2.708597   -3.915149
    126          1           0       -5.979622   -3.441362   -2.661264
    127          1           0      -12.031184   -0.355437    2.327275
    128          1           0      -11.750066    2.401491    1.819960
    129          1           0      -12.879293    0.148489    0.210933
    130          1           0      -12.223840    1.492562   -0.747273
    131          1           0      -13.497088    1.834489    0.384791
    132          1           0      -10.124112    1.721022    3.430510
    133          1           0       -9.920155    0.009976    3.955785
    134          1           0      -12.655499    0.719935    4.304155
    135          1           0      -11.775546    2.171874    4.624210
    136          1           0       -9.888166    5.643255   -0.368427
    137          1           0       -9.214612    6.364637   -1.791498
    138          1           0       -8.275976    6.470675   -0.283368
    139          1           0       -7.300182    7.072736   -2.690919
    140          1           0       -5.474976    7.265788   -2.970259
    141          1           0       -6.165026    6.842127   -1.377233
    142          1           0       -4.300083    0.708109   -4.473422
    143          1           0       -5.579070   -1.950164   -4.866578
    144          1           0       -5.055432    0.874387   -6.602012
    145          1           0       -6.723237    0.888983   -5.928038
    146          1           0       -6.034941   -0.577088   -6.410212
    147          1           0       -3.083939   -1.575960   -4.788347
    148          1           0       -3.660774   -2.927850   -3.831965
    149          1           0       -2.674009   -0.267201   -3.104381
    150          1           0       -2.233417   -1.844270   -2.353682
    151          1           0       -3.789497   -0.993192   -1.943055
    152          1           0       -7.048888   -5.914705   -0.182679
    153          1           0       -6.459146   -5.300433   -1.760979
    154          1           0       -8.226289   -5.623352   -1.548356
    155          1           0      -11.199560   -3.016069    1.717587
    156          1           0      -11.838901   -3.738851    5.918974
    157          1           0      -11.675862   -1.869633    5.860519
    158          1           0      -10.324399   -3.014481    6.047924
 ---------------------------------------------------------------------

 SCF Done:  E(RCAM-B3LYP) =  -4069.81181131     A.U. after   19 cycles

 Excitation energies and oscillator strengths:

 Excited State   1:      Singlet-A      1.6696 eV  742.58 nm  f=0.0194  <S**2>=0.000
     309 -> 315       -0.10298
     310 -> 316        0.13825
     311 -> 314       -0.40855
     312 -> 313        0.55153
 This state for optimization and/or second-order correction.
 Total Energy, E(TD-HF/TD-DFT) =  -4069.75045310
 Copying the excited state density for this state as the 1-particle RhoCI density.

 Excited State   2:      Singlet-A      1.6851 eV  735.76 nm  f=0.7379  <S**2>=0.000
     309 -> 315        0.14218
     310 -> 316        0.10475
     311 -> 314        0.55071
     312 -> 313        0.40804

 Excited State   3:      Singlet-A      2.1854 eV  567.32 nm  f=0.0773  <S**2>=0.000
     310 -> 313        0.63485
     312 -> 316       -0.26940

 Excited State   4:      Singlet-A      2.1928 eV  565.42 nm  f=0.1195  <S**2>=0.000
     309 -> 314        0.63297
     311 -> 315       -0.27502

 Excited State   5:      Singlet-A      2.8073 eV  441.64 nm  f=0.0000  <S**2>=0.000
     311 -> 313        0.70709

 The electronic state is 1-A.
 Alpha  occ. eigenvalues --  -46.87716 -46.87588 -19.26289 -19.26236 -19.19096
 Alpha  occ. eigenvalues --  -19.18968 -19.18735 -19.18664 -19.18097 -19.17982
 Alpha  occ. eigenvalues --  -14.42429 -14.42372 -14.41368 -14.41283 -14.39322
 Alpha  occ. eigenvalues --  -14.39282 -14.38526 -14.38507 -10.39026 -10.39026
 Alpha  occ. eigenvalues --  -10.35368 -10.35343 -10.34318 -10.34160 -10.31701
 Alpha  occ. eigenvalues --  -10.31641 -10.31329 -10.31238 -10.30961 -10.30834
 Alpha  occ. eigenvalues --  -10.30490 -10.30426 -10.30324 -10.30286 -10.30123
 Alpha  occ. eigenvalues --  -10.30065 -10.29839 -10.29816 -10.29550 -10.29368
 Alpha  occ. eigenvalues --  -10.29330 -10.29173 -10.28684 -10.28662 -10.28605
 Alpha  occ. eigenvalues --  -10.28489 -10.28338 -10.28287 -10.28083 -10.28049
 Alpha  occ. eigenvalues --  -10.27931 -10.27713 -10.27649 -10.27601 -10.27504
 Alpha  occ. eigenvalues --  -10.27418 -10.27415 -10.27414 -10.27410 -10.27401
 Alpha  occ. eigenvalues --  -10.27399 -10.27363 -10.27327 -10.27292 -10.27092
 Alpha  occ. eigenvalues --  -10.26985 -10.26646 -10.26637 -10.26381 -10.26329
 Alpha  occ. eigenvalues --  -10.26170 -10.26079 -10.25995 -10.25974 -10.25936
 Alpha  occ. eigenvalues --  -10.25852 -10.25756 -10.25756 -10.25357 -10.25334
 Alpha  occ. eigenvalues --  -10.24802 -10.24754 -10.24708 -10.24619 -10.24570
 Alpha  occ. eigenvalues --  -10.24560  -3.16459  -3.16338  -1.91340  -1.91220
 Alpha  occ. eigenvalues --   -1.90927  -1.90808  -1.90769  -1.90645  -1.16583
 Alpha  occ. eigenvalues --   -1.16583  -1.08589  -1.08556  -1.07136  -1.06918
 Alpha  occ. eigenvalues --   -1.06881  -1.06590  -1.04504  -1.04427  -1.03680
 Alpha  occ. eigenvalues --   -1.03591  -1.03153  -1.02964  -1.02331  -1.02039
 Alpha  occ. eigenvalues --   -0.91918  -0.91897  -0.89433  -0.89404  -0.89120
 Alpha  occ. eigenvalues --   -0.89090  -0.88201  -0.88130  -0.87789  -0.87716
 Alpha  occ. eigenvalues --   -0.87614  -0.87596  -0.87193  -0.87061  -0.84937
 Alpha  occ. eigenvalues --   -0.84912  -0.83849  -0.83779  -0.82885  -0.82870
 Alpha  occ. eigenvalues --   -0.82590  -0.82577  -0.81528  -0.81520  -0.80524
 Alpha  occ. eigenvalues --   -0.80376  -0.78717  -0.78569  -0.77140  -0.77073
 Alpha  occ. eigenvalues --   -0.76865  -0.76825  -0.75854  -0.75774  -0.74818
 Alpha  occ. eigenvalues --   -0.74724  -0.72694  -0.72624  -0.71597  -0.71513
 Alpha  occ. eigenvalues --   -0.69813  -0.69646  -0.68801  -0.68763  -0.67564
 Alpha  occ. eigenvalues --   -0.67534  -0.67151  -0.67143  -0.65216  -0.65207
 Alpha  occ. eigenvalues --   -0.64779  -0.64696  -0.64584  -0.64547  -0.64185
 Alpha  occ. eigenvalues --   -0.64113  -0.62233  -0.62208  -0.60361  -0.60273
 Alpha  occ. eigenvalues --   -0.59733  -0.59732  -0.58920  -0.58910  -0.58427
 Alpha  occ. eigenvalues --   -0.58353  -0.57517  -0.57486  -0.57230  -0.57161
 Alpha  occ. eigenvalues --   -0.56232  -0.56134  -0.55919  -0.55823  -0.55444
 Alpha  occ. eigenvalues --   -0.55392  -0.55261  -0.55164  -0.54450  -0.54403
 Alpha  occ. eigenvalues --   -0.53852  -0.53827  -0.53219  -0.53157  -0.53150
 Alpha  occ. eigenvalues --   -0.53078  -0.52844  -0.52834  -0.52680  -0.52616
 Alpha  occ. eigenvalues --   -0.52342  -0.52278  -0.51833  -0.51800  -0.51601
 Alpha  occ. eigenvalues --   -0.51547  -0.51124  -0.51119  -0.50490  -0.50419
 Alpha  occ. eigenvalues --   -0.49945  -0.49916  -0.49841  -0.49781  -0.49442
 Alpha  occ. eigenvalues --   -0.49429  -0.49140  -0.49139  -0.49039  -0.49027
 Alpha  occ. eigenvalues --   -0.48523  -0.48493  -0.48381  -0.48371  -0.48298
 Alpha  occ. eigenvalues --   -0.48283  -0.47619  -0.47527  -0.47221  -0.47054
 Alpha  occ. eigenvalues --   -0.46717  -0.46631  -0.46492  -0.46487  -0.46280
 Alpha  occ. eigenvalues --   -0.46195  -0.46086  -0.46010  -0.45751  -0.45749
 Alpha  occ. eigenvalues --   -0.45129  -0.45119  -0.44505  -0.44450  -0.44429
 Alpha  occ. eigenvalues --   -0.44404  -0.44063  -0.44062  -0.44017  -0.43991
 Alpha  occ. eigenvalues --   -0.43946  -0.43881  -0.43479  -0.43426  -0.43319
 Alpha  occ. eigenvalues --   -0.43310  -0.42951  -0.42863  -0.42830  -0.42637
 Alpha  occ. eigenvalues --   -0.42570  -0.42462  -0.41926  -0.41871  -0.41628
 Alpha  occ. eigenvalues --   -0.41598  -0.41463  -0.41387  -0.41066  -0.40923
 Alpha  occ. eigenvalues --   -0.40794  -0.40746  -0.40667  -0.40628  -0.40488
 Alpha  occ. eigenvalues --   -0.40402  -0.40172  -0.40170  -0.39344  -0.39307
 Alpha  occ. eigenvalues --   -0.38386  -0.38267  -0.37683  -0.37593  -0.37237
 Alpha  occ. eigenvalues --   -0.37193  -0.37183  -0.37134  -0.36703  -0.36651
 Alpha  occ. eigenvalues --   -0.36140  -0.36121  -0.34207  -0.34181  -0.33796
 Alpha  occ. eigenvalues --   -0.33713  -0.33108  -0.33103  -0.31265  -0.31223
 Alpha  occ. eigenvalues --   -0.30958  -0.30903  -0.29957  -0.29886  -0.29369
 Alpha  occ. eigenvalues --   -0.29261  -0.29242  -0.29139  -0.24002  -0.23964
 Alpha  occ. eigenvalues --   -0.21048  -0.21045
 Alpha virt. eigenvalues --   -0.08722  -0.08695  -0.01669  -0.01613   0.00020
 Alpha virt. eigenvalues --    0.00031   0.02278   0.02279   0.03213   0.03314
 Alpha virt. eigenvalues --    0.04790   0.04795   0.05155   0.05229   0.06236

 Mulliken charges:
               1
     1  Mg   0.838900
     2  C   -0.003078
     3  C   -0.094115
     4  C   -0.045789
     5  C   -0.063861
     6  N   -0.256784
     7  C   -0.052514
     8  C   -0.014014
     9  C   -0.087018
    10  C    0.046325
    11  C    0.104831
    12  C    0.053477
    13  C   -0.071671
    14  H    0.035703
    15  N   -0.433117
    16  C    0.168468
    17  C   -0.177127
    18  C   -0.003963
    19  C    0.148741
    20  C    0.110183
    21  C    0.012377
    22  O   -0.249681
    23  C    0.062421
    24  N   -0.341164
    25  C    0.041257
    26  C   -0.028146
    27  C   -0.024019
    28  C    0.074908
    29  C    0.076213
    30  C    0.035102
    31  C   -0.004564
    32  N   -0.310465
    33  C    0.080443
    34  C   -0.169578
    35  C    0.008312
    36  C    0.083029
    37  C    0.127280
    38  C    0.046097
    39  O   -0.188534
    40  C   -0.005343
    41  C    0.212893
    42  O   -0.257253
    43  O   -0.304751
    44  C    0.157797
    45  H   -0.017702
    46  H   -0.016864
    47  H   -0.041348
    48  H    0.000829
    49  H   -0.004060
    50  H    0.025415
    51  H    0.016458
    52  H    0.016556
    53  H    0.011356
    54  H    0.043961
    55  H    0.017841
    56  H    0.018037
    57  H    0.005809
    58  H    0.026682
    59  H    0.039775
    60  H    0.037219
    61  H    0.035531
    62  H    0.031800
    63  H    0.016642
    64  H    0.009383
    65  H    0.023140
    66  H    0.012421
    67  H    0.004698
    68  H    0.006324
    69  H    0.004865
    70  H    0.008745
    71  H    0.018720
    72  H    0.028955
    73  H    0.047697
    74  H    0.009313
    75  H    0.045891
    76  H    0.035071
    77  H    0.042894
    78  H    0.046344
    79  H    0.053399
    80  Mg   0.838020
    81  C   -0.016888
    82  C   -0.087920
    83  C   -0.045484
    84  C   -0.064689
    85  N   -0.254564
    86  C   -0.049824
    87  C   -0.015120
    88  C   -0.090480
    89  C    0.045733
    90  C    0.114426
    91  C    0.062560
    92  C   -0.077832
    93  H    0.034827
    94  N   -0.423438
    95  C    0.162876
    96  C   -0.174772
    97  C   -0.007974
    98  C    0.152108
    99  C    0.099423
   100  C    0.015507
   101  O   -0.253509
   102  C    0.061257
   103  N   -0.350134
   104  C    0.037543
   105  C   -0.019697
   106  C   -0.035000
   107  C    0.089107
   108  C    0.073802
   109  C    0.034674
   110  C   -0.007912
   111  N   -0.324164
   112  C    0.078646
   113  C   -0.162757
   114  C    0.002216
   115  C    0.096371
   116  C    0.131376
   117  C    0.042513
   118  O   -0.187790
   119  C    0.000853
   120  C    0.211256
   121  O   -0.250885
   122  O   -0.305691
   123  C    0.152052
   124  H   -0.019896
   125  H   -0.015809
   126  H   -0.039946
   127  H   -0.000736
   128  H   -0.004443
   129  H    0.022396
   130  H    0.014371
   131  H    0.016100
   132  H    0.013944
   133  H    0.037752
   134  H    0.020698
   135  H    0.019511
   136  H    0.008662
   137  H    0.025861
   138  H    0.039650
   139  H    0.038138
   140  H    0.035927
   141  H    0.033976
   142  H    0.014401
   143  H    0.012303
   144  H    0.024763
   145  H    0.011365
   146  H    0.005603
   147  H    0.006262
   148  H    0.004329
   149  H    0.010514
   150  H    0.020043
   151  H    0.029659
   152  H    0.046363
   153  H    0.009111
   154  H    0.046760
   155  H    0.034886
   156  H    0.043840
   157  H    0.049392
   158  H    0.053626
 Sum of Mulliken charges =  -0.00000

 Dipole moment (field-independent basis, Debye):
    X=             -0.2050    Y=              7.0297    Z=             -2.6750  Tot=              7.5242
 Quadrupole moment (field-independent basis, Debye-Ang):
   XX=           -426.1584   YY=           -539.2191   ZZ=           -476.2130
   XY=            -20.9532   XZ=            -25.3312   YZ=              6.1634

 Normal termination of Gaussian 16 at Sat Sep 11 20:40:23 2021.
