 Gaussian 16, Revision A.03,
 Gaussian 16:  ES64L-G16RevA.03 25-Dec-2016

 -----------------------------------
 #p cam-b3lyp/Def2SVP td=(nstates=5)
 -----------------------------------

 --------------------------------
 TDDFT excited states in gaussian
 --------------------------------
 Symbolic Z-matrix:
 Charge =  0 Multiplicity = 1

                         Standard orientation:
 ---------------------------------------------------------------------
 Center     Atomic      Atomic             Coordinates (Angstroms)
 Number     Number       Type             X           Y           Z
 ---------------------------------------------------------------------
      1         12           0        8.067619    0.501346    0.940617
      2          6           0        8.524180   -2.395033   -1.112369
      3          6           0        9.240343    2.355401   -1.672860
      4          6           0        8.103431    3.011222    2.878622
      5          6           0        8.024456   -1.637343    3.691945
      6          7           0        8.760698   -0.062953   -1.084686
      7          6           0        8.829417   -1.200662   -1.768840
      8          6           0        9.183798   -0.997060   -3.272280
      9          6           0        9.922064    0.412246   -3.168269
     10          6           0        9.243164    0.950644   -1.921214
     11          6           0       11.419465    0.297421   -2.901610
     12          6           0        7.908891   -0.910534   -4.177188
     13          6           0        8.165374   -1.039619   -5.681484
     14          1           0        7.181151   -1.727715   -6.503177
     15          7           0        8.124160    2.433675    0.533484
     16          6           0        8.622115    3.011142   -0.586275
     17          6           0        8.433465    4.467441   -0.412246
     18          6           0        7.958958    4.701640    0.979906
     19          6           0        8.069691    3.376891    1.535025
     20          6           0        8.650040    5.462289   -1.510937
     21          6           0        7.491430    5.927218    1.699287
     22          8           0        7.345260    5.956393    2.969073
     23          6           0        7.291238    7.134850    0.877952
     24          7           0        8.284109    0.696379    3.007675
     25          6           0        8.203807    1.892879    3.600065
     26          6           0        8.104450    1.758558    5.090711
     27          6           0        7.888032    0.203354    5.380979
     28          6           0        7.988166   -0.324002    3.928347
     29          6           0        9.313488    2.263520    5.890242
     30          6           0        6.648874   -0.188815    6.224252
     31          6           0        5.385310    0.104453    5.446758
     32          7           0        8.062894   -1.646186    1.255460
     33          6           0        8.065951   -2.317863    2.486522
     34          6           0        8.172364   -3.758740    2.192210
     35          6           0        8.240960   -3.824494    0.801952
     36          6           0        8.207626   -2.506555    0.263235
     37          6           0        8.253301   -4.802395    3.155883
     38          6           0        8.359478   -4.700186   -0.352593
     39          8           0        8.335909   -5.920162   -0.521700
     40          6           0        8.670295   -3.803808   -1.631549
     41          6           0        7.745817   -4.246835   -2.732628
     42          8           0        6.514318   -4.064360   -2.646153
     43          8           0        8.469567   -4.595416   -3.807440
     44          6           0        7.611425   -5.017202   -4.946669
     45          1           0        9.811267    3.009566   -2.334717
     46          1           0        8.005831    3.842734    3.579693
     47          1           0        7.931830   -2.369676    4.496036
     48          1           0        9.863007   -1.743625   -3.684275
     49          1           0        9.703376    1.050366   -4.024248
     50          1           0       11.710054   -0.733188   -2.698330
     51          1           0       11.609000    0.925237   -2.030738
     52          1           0       11.993128    0.736629   -3.718179
     53          1           0        7.512082    0.104077   -4.143032
     54          1           0        7.168725   -1.651356   -3.872781
     55          1           0        9.166277   -1.421948   -5.883790
     56          1           0        8.164629   -0.039546   -6.115135
     57          1           0        9.154558    5.012234   -2.365020
     58          1           0        9.357598    6.201601   -1.136121
     59          1           0        7.724022    5.956122   -1.805811
     60          1           0        8.228835    7.395227    0.386357
     61          1           0        6.870990    7.886259    1.545504
     62          1           0        6.580978    6.907157    0.082569
     63          1           0        7.252481    2.316092    5.477664
     64          1           0        8.727493   -0.232157    5.923483
     65          1           0        9.062747    3.025145    6.628999
     66          1           0       10.054539    2.634101    5.182567
     67          1           0        9.876618    1.486697    6.406814
     68          1           0        6.608533    0.404117    7.137352
     69          1           0        6.638724   -1.240448    6.510982
     70          1           0        5.219240    1.163195    5.642508
     71          1           0        4.557873   -0.496947    5.824749
     72          1           0        5.542963   -0.007745    4.373891
     73          1           0        7.595324   -5.596007    2.802027
     74          1           0        7.956062   -4.452633    4.144275
     75          1           0        9.314126   -5.046270    3.100809
     76          1           0        9.717028   -3.970219   -1.884094
     77          1           0        7.932428   -6.017612   -5.237134
     78          1           0        7.678968   -4.227036   -5.694653
     79          1           0        6.560354   -5.196678   -4.717807
     80         12           0       -7.702295    0.421232   -0.870929
     81          6           0       -9.696373   -1.711018    1.216227
     82          6           0       -9.953991    2.902319   -0.231663
     83          6           0       -6.224339    2.188634   -3.052529
     84          6           0       -6.292869   -2.461272   -2.231220
     85          7           0       -9.545647    0.467751    0.350591
     86          6           0      -10.171360   -0.384665    1.148228
     87          6           0      -11.325441    0.239359    1.977833
     88          6           0      -11.659528    1.487486    1.024181
     89          6           0      -10.294926    1.659935    0.360251
     90          6           0      -12.678609    1.163941   -0.055690
     91          6           0      -10.853372    0.711577    3.397751
     92          6           0      -11.984118    1.045382    4.373311
     93          1           0      -11.796500    0.736622    5.788215
     94          7           0       -7.738115    2.382143   -1.174416
     95          6           0       -8.720706    3.240960   -0.830550
     96          6           0       -8.276446    4.565723   -1.290749
     97          6           0       -7.026902    4.393260   -2.080439
     98          6           0       -6.957845    2.947519   -2.152187
     99          6           0       -8.974872    5.837399   -0.905414
    100          6           0       -6.061658    5.368318   -2.683558
    101          8           0       -5.173475    4.999849   -3.531036
    102          6           0       -6.246940    6.781791   -2.324062
    103          7           0       -6.596987   -0.061925   -2.564211
    104          6           0       -6.019344    0.896631   -3.309479
    105          6           0       -5.053989    0.303748   -4.307961
    106          6           0       -4.922185   -1.240447   -3.913374
    107          6           0       -5.947522   -1.295231   -2.759650
    108          6           0       -5.460826    0.420505   -5.776722
    109          6           0       -3.489105   -1.780951   -3.654916
    110          6           0       -2.917563   -1.151105   -2.405107
    111          7           0       -7.792212   -1.697748   -0.458773
    112          6           0       -7.143634   -2.732815   -1.167334
    113          6           0       -7.600793   -4.011484   -0.585593
    114          6           0       -8.508380   -3.629273    0.413756
    115          6           0       -8.624967   -2.213191    0.438625
    116          6           0       -7.214424   -5.309755   -1.023022
    117          6           0       -9.402331   -4.102178    1.446181
    118          8           0       -9.654033   -5.199968    1.941401
    119          6           0      -10.306846   -2.886867    1.927066
    120          6           0      -10.305986   -2.873906    3.431177
    121          8           0       -9.259305   -2.639672    4.060627
    122          8           0      -11.575902   -2.923857    3.872990
    123          6           0      -11.627544   -2.902178    5.359151
    124          1           0      -10.716459    3.680205   -0.280820
    125          1           0       -5.609478    2.755214   -3.755666
    126          1           0       -5.825958   -3.400794   -2.534474
    127          1           0      -12.200007   -0.391003    2.085321
    128          1           0      -11.915657    2.370288    1.604183
    129          1           0      -12.922635    0.112213   -0.077248
    130          1           0      -12.223314    1.465916   -0.989801
    131          1           0      -13.566415    1.791556    0.063623
    132          1           0      -10.384141    1.699828    3.308759
    133          1           0      -10.195714   -0.011017    3.840439
    134          1           0      -12.954048    0.671304    4.023662
    135          1           0      -12.109536    2.130522    4.400985
    136          1           0       -9.955978    5.637574   -0.457194
    137          1           0       -9.204173    6.370428   -1.834470
    138          1           0       -8.360167    6.480185   -0.271664
    139          1           0       -7.245607    7.100129   -2.613535
    140          1           0       -5.408757    7.311751   -2.780643
    141          1           0       -6.190306    6.875818   -1.233846
    142          1           0       -4.080109    0.771057   -4.228746
    143          1           0       -5.306586   -1.898012   -4.706898
    144          1           0       -4.706101    0.937573   -6.398900
    145          1           0       -6.411895    0.933723   -5.827709
    146          1           0       -5.681137   -0.523936   -6.271375
    147          1           0       -2.824654   -1.500052   -4.475745
    148          1           0       -3.445305   -2.860814   -3.560258
    149          1           0       -2.530880   -0.193370   -2.766102
    150          1           0       -2.121304   -1.768771   -1.994609
    151          1           0       -3.707792   -0.934187   -1.677006
    152          1           0       -7.019738   -5.893081   -0.132894
    153          1           0       -6.341086   -5.267572   -1.670538
    154          1           0       -8.114629   -5.608253   -1.566886
    155          1           0      -11.306683   -3.041323    1.519573
    156          1           0      -12.193442   -3.785081    5.672081
    157          1           0      -12.045549   -1.914187    5.629175
    158          1           0      -10.696797   -3.046611    5.895161
 ---------------------------------------------------------------------

 SCF Done:  E(RCAM-B3LYP) =  -4069.81182691     A.U. after   19 cycles

 Excitation energies and oscillator strengths:

 Excited State   1:      Singlet-A      1.6696 eV  742.60 nm  f=0.0195  <S**2>=0.000
     309 -> 315       -0.10284
     310 -> 316        0.13836
     311 -> 314       -0.40796
     312 -> 313        0.55196
 This state for optimization and/or second-order correction.
 Total Energy, E(TD-HF/TD-DFT) =  -4069.75047028
 Copying the excited state density for this state as the 1-particle RhoCI density.

 Excited State   2:      Singlet-A      1.6851 eV  735.75 nm  f=0.7376  <S**2>=0.000
     309 -> 315        0.14231
     310 -> 316        0.10460
     311 -> 314        0.55115
     312 -> 313        0.40745

 Excited State   3:      Singlet-A      2.1854 eV  567.32 nm  f=0.0800  <S**2>=0.000
     310 -> 313        0.63565
     312 -> 316       -0.26974

 Excited State   4:      Singlet-A      2.1928 eV  565.41 nm  f=0.1173  <S**2>=0.000
     309 -> 314        0.63377
     311 -> 315       -0.27539

 Excited State   5:      Singlet-A      2.8083 eV  441.50 nm  f=0.0000  <S**2>=0.000
     311 -> 313        0.70709

 The electronic state is 1-A.
 Alpha  occ. eigenvalues --  -46.87721 -46.87587 -19.26290 -19.26243 -19.19097
 Alpha  occ. eigenvalues --  -19.18976 -19.18737 -19.18663 -19.18103 -19.17982
 Alpha  occ. eigenvalues --  -14.42428 -14.42377 -14.41373 -14.41282 -14.39327
 Alpha  occ. eigenvalues --  -14.39281 -14.38525 -14.38512 -10.39033 -10.39027
 Alpha  occ. eigenvalues --  -10.35371 -10.35342 -10.34324 -10.34159 -10.31701
 Alpha  occ. eigenvalues --  -10.31648 -10.31335 -10.31237 -10.30960 -10.30839
 Alpha  occ. eigenvalues --  -10.30496 -10.30431 -10.30323 -10.30285 -10.30128
 Alpha  occ. eigenvalues --  -10.30062 -10.29844 -10.29814 -10.29555 -10.29366
 Alpha  occ. eigenvalues --  -10.29329 -10.29178 -10.28690 -10.28661 -10.28605
 Alpha  occ. eigenvalues --  -10.28495 -10.28337 -10.28292 -10.28082 -10.28054
 Alpha  occ. eigenvalues --  -10.27930 -10.27718 -10.27654 -10.27600 -10.27508
 Alpha  occ. eigenvalues --  -10.27415 -10.27414 -10.27414 -10.27413 -10.27404
 Alpha  occ. eigenvalues --  -10.27398 -10.27368 -10.27333 -10.27288 -10.27098
 Alpha  occ. eigenvalues --  -10.26985 -10.26653 -10.26637 -10.26380 -10.26330
 Alpha  occ. eigenvalues --  -10.26175 -10.26084 -10.25986 -10.25974 -10.25941
 Alpha  occ. eigenvalues --  -10.25850 -10.25762 -10.25755 -10.25360 -10.25331
 Alpha  occ. eigenvalues --  -10.24801 -10.24759 -10.24712 -10.24617 -10.24575
 Alpha  occ. eigenvalues --  -10.24553  -3.16464  -3.16336  -1.91345  -1.91219
 Alpha  occ. eigenvalues --   -1.90932  -1.90807  -1.90774  -1.90644  -1.16591
 Alpha  occ. eigenvalues --   -1.16583  -1.08589  -1.08562  -1.07138  -1.06916
 Alpha  occ. eigenvalues --   -1.06882  -1.06598  -1.04509  -1.04426  -1.03685
 Alpha  occ. eigenvalues --   -1.03590  -1.03158  -1.02963  -1.02336  -1.02037
 Alpha  occ. eigenvalues --   -0.91917  -0.91903  -0.89437  -0.89402  -0.89125
 Alpha  occ. eigenvalues --   -0.89089  -0.88206  -0.88126  -0.87794  -0.87715
 Alpha  occ. eigenvalues --   -0.87613  -0.87601  -0.87197  -0.87060  -0.84936
 Alpha  occ. eigenvalues --   -0.84917  -0.83854  -0.83775  -0.82887  -0.82868
 Alpha  occ. eigenvalues --   -0.82589  -0.82582  -0.81527  -0.81526  -0.80529
 Alpha  occ. eigenvalues --   -0.80375  -0.78721  -0.78568  -0.77145  -0.77072
 Alpha  occ. eigenvalues --   -0.76870  -0.76823  -0.75860  -0.75773  -0.74823
 Alpha  occ. eigenvalues --   -0.74722  -0.72699  -0.72622  -0.71602  -0.71512
 Alpha  occ. eigenvalues --   -0.69818  -0.69642  -0.68806  -0.68762  -0.67569
 Alpha  occ. eigenvalues --   -0.67533  -0.67156  -0.67142  -0.65222  -0.65206
 Alpha  occ. eigenvalues --   -0.64784  -0.64694  -0.64583  -0.64552  -0.64189
 Alpha  occ. eigenvalues --   -0.64110  -0.62240  -0.62207  -0.60365  -0.60272
 Alpha  occ. eigenvalues --   -0.59738  -0.59732  -0.58919  -0.58915  -0.58432
 Alpha  occ. eigenvalues --   -0.58352  -0.57523  -0.57486  -0.57235  -0.57159
 Alpha  occ. eigenvalues --   -0.56237  -0.56132  -0.55926  -0.55822  -0.55448
 Alpha  occ. eigenvalues --   -0.55391  -0.55266  -0.55162  -0.54456  -0.54401
 Alpha  occ. eigenvalues --   -0.53852  -0.53833  -0.53224  -0.53155  -0.53155
 Alpha  occ. eigenvalues --   -0.53077  -0.52849  -0.52833  -0.52684  -0.52615
 Alpha  occ. eigenvalues --   -0.52347  -0.52272  -0.51838  -0.51799  -0.51600
 Alpha  occ. eigenvalues --   -0.51552  -0.51125  -0.51122  -0.50493  -0.50418
 Alpha  occ. eigenvalues --   -0.49949  -0.49915  -0.49845  -0.49778  -0.49447
 Alpha  occ. eigenvalues --   -0.49429  -0.49145  -0.49139  -0.49038  -0.49032
 Alpha  occ. eigenvalues --   -0.48529  -0.48493  -0.48385  -0.48374  -0.48296
 Alpha  occ. eigenvalues --   -0.48283  -0.47624  -0.47526  -0.47225  -0.47053
 Alpha  occ. eigenvalues --   -0.46722  -0.46630  -0.46493  -0.46491  -0.46285
 Alpha  occ. eigenvalues --   -0.46193  -0.46091  -0.46009  -0.45757  -0.45748
 Alpha  occ. eigenvalues --   -0.45127  -0.45123  -0.44511  -0.44449  -0.44433
 Alpha  occ. eigenvalues --   -0.44403  -0.44067  -0.44061  -0.44022  -0.43988
 Alpha  occ. eigenvalues --   -0.43951  -0.43880  -0.43478  -0.43432  -0.43318
 Alpha  occ. eigenvalues --   -0.43315  -0.42956  -0.42862  -0.42828  -0.42643
 Alpha  occ. eigenvalues --   -0.42575  -0.42459  -0.41932  -0.41868  -0.41633
 Alpha  occ. eigenvalues --   -0.41597  -0.41468  -0.41385  -0.41071  -0.40922
 Alpha  occ. eigenvalues --   -0.40799  -0.40749  -0.40666  -0.40627  -0.40492
 Alpha  occ. eigenvalues --   -0.40399  -0.40176  -0.40172  -0.39349  -0.39303
 Alpha  occ. eigenvalues --   -0.38391  -0.38264  -0.37689  -0.37592  -0.37242
 Alpha  occ. eigenvalues --   -0.37198  -0.37181  -0.37133  -0.36702  -0.36657
 Alpha  occ. eigenvalues --   -0.36138  -0.36126  -0.34212  -0.34180  -0.33796
 Alpha  occ. eigenvalues --   -0.33721  -0.33114  -0.33102  -0.31267  -0.31222
 Alpha  occ. eigenvalues --   -0.30963  -0.30902  -0.29963  -0.29886  -0.29373
 Alpha  occ. eigenvalues --   -0.29260  -0.29247  -0.29138  -0.24007  -0.23963
 Alpha  occ. eigenvalues --   -0.21052  -0.21044
 Alpha virt. eigenvalues --   -0.08721  -0.08699  -0.01674  -0.01611   0.00016
 Alpha virt. eigenvalues --    0.00032   0.02273   0.02280   0.03207   0.03314
 Alpha virt. eigenvalues --    0.04785   0.04797   0.05147   0.05229   0.06230

 Mulliken charges:
               1
     1  Mg   0.838867
     2  C   -0.003094
     3  C   -0.094115
     4  C   -0.045778
     5  C   -0.063864
     6  N   -0.256786
     7  C   -0.052529
     8  C   -0.014006
     9  C   -0.087020
    10  C    0.046324
    11  C    0.104827
    12  C    0.053475
    13  C   -0.071669
    14  H    0.035676
    15  N   -0.433125
    16  C    0.168474
    17  C   -0.177112
    18  C   -0.003942
    19  C    0.148744
    20  C    0.110177
    21  C    0.012399
    22  O   -0.249657
    23  C    0.062409
    24  N   -0.341163
    25  C    0.041261
    26  C   -0.028154
    27  C   -0.024016
    28  C    0.074898
    29  C    0.076207
    30  C    0.035103
    31  C   -0.004564
    32  N   -0.310455
    33  C    0.080418
    34  C   -0.169607
    35  C    0.008305
    36  C    0.083000
    37  C    0.127288
    38  C    0.046069
    39  O   -0.188554
    40  C   -0.005335
    41  C    0.212902
    42  O   -0.257315
    43  O   -0.304735
    44  C    0.157802
    45  H   -0.017688
    46  H   -0.016841
    47  H   -0.041354
    48  H    0.000833
    49  H   -0.004055
    50  H    0.025419
    51  H    0.016467
    52  H    0.016568
    53  H    0.011350
    54  H    0.043919
    55  H    0.017859
    56  H    0.018050
    57  H    0.005809
    58  H    0.026699
    59  H    0.039810
    60  H    0.037215
    61  H    0.035569
    62  H    0.031832
    63  H    0.016658
    64  H    0.009391
    65  H    0.023160
    66  H    0.012427
    67  H    0.004706
    68  H    0.006346
    69  H    0.004853
    70  H    0.008777
    71  H    0.018681
    72  H    0.028930
    73  H    0.047662
    74  H    0.009306
    75  H    0.045903
    76  H    0.035084
    77  H    0.042909
    78  H    0.046354
    79  H    0.053362
    80  Mg   0.837987
    81  C   -0.016881
    82  C   -0.087935
    83  C   -0.045465
    84  C   -0.064714
    85  N   -0.254572
    86  C   -0.049827
    87  C   -0.015110
    88  C   -0.090461
    89  C    0.045726
    90  C    0.114423
    91  C    0.062558
    92  C   -0.077832
    93  H    0.034818
    94  N   -0.423420
    95  C    0.162885
    96  C   -0.174789
    97  C   -0.007966
    98  C    0.152090
    99  C    0.099431
   100  C    0.015508
   101  O   -0.253518
   102  C    0.061256
   103  N   -0.350120
   104  C    0.037532
   105  C   -0.019686
   106  C   -0.035075
   107  C    0.089139
   108  C    0.073815
   109  C    0.034695
   110  C   -0.007931
   111  N   -0.324182
   112  C    0.078643
   113  C   -0.162777
   114  C    0.002218
   115  C    0.096341
   116  C    0.131375
   117  C    0.042499
   118  O   -0.187801
   119  C    0.000866
   120  C    0.211257
   121  O   -0.250909
   122  O   -0.305690
   123  C    0.152051
   124  H   -0.019904
   125  H   -0.015815
   126  H   -0.039900
   127  H   -0.000737
   128  H   -0.004451
   129  H    0.022396
   130  H    0.014374
   131  H    0.016095
   132  H    0.013938
   133  H    0.037746
   134  H    0.020701
   135  H    0.019510
   136  H    0.008656
   137  H    0.025855
   138  H    0.039646
   139  H    0.038130
   140  H    0.035931
   141  H    0.033978
   142  H    0.014415
   143  H    0.012322
   144  H    0.024753
   145  H    0.011342
   146  H    0.005613
   147  H    0.006379
   148  H    0.004410
   149  H    0.010524
   150  H    0.020072
   151  H    0.029571
   152  H    0.046341
   153  H    0.009151
   154  H    0.046765
   155  H    0.034887
   156  H    0.043838
   157  H    0.049396
   158  H    0.053618
 Sum of Mulliken charges =  -0.00000

 Dipole moment (field-independent basis, Debye):
    X=             -0.1820    Y=              7.0216    Z=             -2.8038  Tot=              7.5629
 Quadrupole moment (field-independent basis, Debye-Ang):
   XX=           -424.5178   YY=           -539.6209   ZZ=           -477.3866
   XY=            -22.1330   XZ=            -23.7461   YZ=              4.5378

 Normal termination of Gaussian 16 at Sat Sep 11 20:31:48 2021.
