 Gaussian 16, Revision A.03,
 Gaussian 16:  ES64L-G16RevA.03 25-Dec-2016

 -----------------------------------
 #p cam-b3lyp/Def2SVP td=(nstates=5)
 -----------------------------------

 --------------------------------
 TDDFT excited states in gaussian
 --------------------------------
 Symbolic Z-matrix:
 Charge =  0 Multiplicity = 1

                         Standard orientation:
 ---------------------------------------------------------------------
 Center     Atomic      Atomic             Coordinates (Angstroms)
 Number     Number       Type             X           Y           Z
 ---------------------------------------------------------------------
      1         12           0       -6.628967   -0.482896    0.220576
      2          6           0       -6.657567    3.070487    0.650535
      3          6           0       -7.573989    0.050322   -3.014494
      4          6           0       -7.051297   -3.613509   -0.057841
      5          6           0       -6.803373   -0.756049    3.690537
      6          7           0       -7.031096    1.371067   -0.920372
      7          6           0       -6.947940    2.671195   -0.655946
      8          6           0       -7.124106    3.570439   -1.915986
      9          6           0       -7.950382    2.560698   -2.832332
     10          6           0       -7.464133    1.247082   -2.245904
     11          6           0       -9.460060    2.656846   -2.637063
     12          6           0       -5.753902    3.949356   -2.572260
     13          6           0       -5.813614    5.080831   -3.602577
     14          1           0       -4.696572    6.009368   -3.688512
     15          7           0       -6.746937   -1.621590   -1.389489
     16          6           0       -7.134744   -1.234562   -2.628481
     17          6           0       -7.054298   -2.443087   -3.476819
     18          6           0       -6.770816   -3.604467   -2.588603
     19          6           0       -6.872300   -2.989103   -1.289987
     20          6           0       -7.190307   -2.412025   -4.968223
     21          6           0       -6.468424   -5.043161   -2.865824
     22          8           0       -6.483039   -5.930791   -1.945784
     23          6           0       -6.238444   -5.406228   -4.275907
     24          7           0       -7.111491   -1.978454    1.594661
     25          6           0       -7.175199   -3.261923    1.223674
     26          6           0       -7.254092   -4.171109    2.414093
     27          6           0       -6.985204   -3.251354    3.691397
     28          6           0       -6.873268   -1.882007    2.976814
     29          6           0       -8.580408   -4.921980    2.596000
     30          6           0       -5.839653   -3.683761    4.640690
     31          6           0       -4.508549   -3.540140    3.937388
     32          7           0       -6.538327    0.881867    1.905881
     33          6           0       -6.655135    0.553199    3.264191
     34          6           0       -6.640080    1.820277    4.018083
     35          6           0       -6.531532    2.805329    3.038422
     36          6           0       -6.508357    2.193828    1.752413
     37          6           0       -6.779161    1.952894    5.427871
     38          6           0       -6.454543    4.233569    2.777537
     39          8           0       -6.339149    5.238511    3.480579
     40          6           0       -6.655780    4.469168    1.215544
     41          6           0       -5.577491    5.412001    0.755471
     42          8           0       -4.378999    5.064201    0.759748
     43          8           0       -6.140611    6.477059    0.164635
     44          6           0       -5.124530    7.438190   -0.341289
     45          1           0       -8.095412    0.084648   -3.973077
     46          1           0       -7.090114   -4.703952   -0.101037
     47          1           0       -6.768840   -0.767315    4.781470
     48          1           0       -7.702250    4.479347   -1.748474
     49          1           0       -7.664612    2.636238   -3.881309
     50          1           0       -9.713131    3.314107   -1.805268
     51          1           0       -9.792523    1.638908   -2.432700
     52          1           0       -9.952462    2.952506   -3.563833
     53          1           0       -5.424172    3.131852   -3.213373
     54          1           0       -5.015397    4.195767   -1.808574
     55          1           0       -6.757665    5.623333   -3.544533
     56          1           0       -5.817257    4.636527   -4.597956
     57          1           0       -7.557772   -1.447680   -5.316868
     58          1           0       -7.980781   -3.114902   -5.230565
     59          1           0       -6.265177   -2.694927   -5.470653
     60          1           0       -7.121286   -5.150155   -4.862052
     61          1           0       -5.948834   -6.456449   -4.272621
     62          1           0       -5.422853   -4.798282   -4.668543
     63          1           0       -6.490704   -4.946527    2.365202
     64          1           0       -7.858745   -3.187532    4.340648
     65          1           0       -8.468141   -6.005732    2.635787
     66          1           0       -9.248143   -4.627436    1.786887
     67          1           0       -9.157133   -4.625490    3.471728
     68          1           0       -5.947627   -4.733452    4.911679
     69          1           0       -5.803969   -3.104929    5.563691
     70          1           0       -4.430017   -4.468633    3.372971
     71          1           0       -3.700857   -3.456209    4.665262
     72          1           0       -4.524931   -2.721604    3.217516
     73          1           0       -6.037239    2.687904    5.739772
     74          1           0       -6.627855    0.998757    5.932185
     75          1           0       -7.808915    2.303130    5.497131
     76          1           0       -7.651563    4.892612    1.088130
     77          1           0       -5.348165    8.406769    0.106011
     78          1           0       -5.144552    7.366389   -1.428877
     79          1           0       -4.101367    7.283767    0.003138
     80         12           0        6.586893   -1.082862   -0.167380
     81          6           0        7.333706    2.408826    0.192402
     82          6           0        4.982290   -0.287603   -3.070373
     83          6           0        5.528623   -4.071794   -0.284994
     84          6           0        7.225733   -1.428503    3.241156
     85          7           0        6.267702    0.846393   -1.200974
     86          6           0        6.650420    2.098688   -1.001910
     87          6           0        6.350571    3.058581   -2.184393
     88          6           0        5.137654    2.245414   -2.852575
     89          6           0        5.496534    0.838385   -2.379133
     90          6           0        3.779205    2.610816   -2.277737
     91          6           0        7.564794    3.191152   -3.169324
     92          6           0        7.457115    4.342526   -4.171571
     93          1           0        8.676823    5.048272   -4.554583
     94          7           0        5.860387   -2.129069   -1.689292
     95          6           0        5.262338   -1.644678   -2.797892
     96          6           0        4.889652   -2.820089   -3.600188
     97          6           0        5.168519   -4.042632   -2.798732
     98          6           0        5.518177   -3.448207   -1.524183
     99          6           0        4.403145   -2.717449   -5.016590
    100          6           0        5.115305   -5.505160   -3.121821
    101          8           0        5.167459   -6.399555   -2.205224
    102          6           0        4.906482   -5.857445   -4.533836
    103          7           0        6.196419   -2.499263    1.303570
    104          6           0        5.794298   -3.740511    0.978731
    105          6           0        5.842567   -4.660235    2.175454
    106          6           0        6.594002   -3.835439    3.321154
    107          6           0        6.779059   -2.490490    2.584780
    108          6           0        4.489788   -5.141793    2.699360
    109          6           0        7.839574   -4.502222    3.966619
    110          6           0        8.956207   -4.600486    2.952284
    111          7           0        7.349749    0.183318    1.408333
    112          6           0        7.512110   -0.153581    2.770031
    113          6           0        7.952914    1.069505    3.471574
    114          6           0        7.994580    2.046528    2.465499
    115          6           0        7.587667    1.477727    1.228417
    116          6           0        8.206840    1.182021    4.867638
    117          6           0        8.280048    3.432294    2.170777
    118          8           0        8.746339    4.377269    2.805854
    119          6           0        7.743403    3.759379    0.710837
    120          6           0        8.827562    4.494368   -0.028704
    121          8           0        9.900427    3.928691   -0.303630
    122          8           0        8.339095    5.664930   -0.477631
    123          6           0        9.374223    6.425399   -1.227322
    124          1           0        4.262382   -0.120004   -3.871958
    125          1           0        5.277742   -5.135044   -0.290074
    126          1           0        7.540063   -1.477562    4.285893
    127          1           0        6.019114    4.048134   -1.893374
    128          1           0        5.173407    2.303417   -3.937338
    129          1           0        3.865686    3.273649   -1.429620
    130          1           0        3.323714    1.674932   -1.981589
    131          1           0        3.137189    3.023913   -3.060999
    132          1           0        7.559519    2.338891   -3.860961
    133          1           0        8.487713    3.268292   -2.628127
    134          1           0        6.670507    5.055825   -3.896994
    135          1           0        7.128235    3.937294   -5.131597
    136          1           0        4.142799   -1.684510   -5.278629
    137          1           0        3.452185   -3.258640   -5.068064
    138          1           0        5.099307   -3.157174   -5.733986
    139          1           0        3.973851   -5.419277   -4.881237
    140          1           0        4.986984   -6.945280   -4.578607
    141          1           0        5.707573   -5.405522   -5.129335
    142          1           0        6.413315   -5.553669    1.953784
    143          1           0        5.934758   -3.636054    4.178750
    144          1           0        4.399945   -6.244159    2.727519
    145          1           0        3.712105   -4.712549    2.081707
    146          1           0        4.223269   -4.780101    3.690991
    147          1           0        7.606208   -5.525355    4.271390
    148          1           0        8.202839   -3.979434    4.845089
    149          1           0        8.708631   -5.512120    2.400272
    150          1           0        9.919468   -4.690014    3.450430
    151          1           0        8.918473   -3.765307    2.243273
    152          1           0        9.119722    1.753022    4.973012
    153          1           0        8.292511    0.203843    5.336260
    154          1           0        7.306269    1.712971    5.187507
    155          1           0        6.841469    4.362680    0.820871
    156          1           0        9.452872    7.409252   -0.754533
    157          1           0        9.055500    6.399472   -2.286328
    158          1           0       10.398182    6.076662   -1.161501
 ---------------------------------------------------------------------

 SCF Done:  E(RCAM-B3LYP) =  -4069.81164919     A.U. after   19 cycles

 Excitation energies and oscillator strengths:

 Excited State   1:      Singlet-A      1.6655 eV  744.44 nm  f=0.0276  <S**2>=0.000
     309 -> 315       -0.10958
     310 -> 316        0.13174
     311 -> 313       -0.43745
     312 -> 314        0.52924
 This state for optimization and/or second-order correction.
 Total Energy, E(TD-HF/TD-DFT) =  -4069.75044408
 Copying the excited state density for this state as the 1-particle RhoCI density.

 Excited State   2:      Singlet-A      1.6888 eV  734.14 nm  f=0.7193  <S**2>=0.000
     309 -> 315        0.13728
     310 -> 316        0.11265
     311 -> 313        0.52805
     312 -> 314        0.43654

 Excited State   3:      Singlet-A      2.1844 eV  567.59 nm  f=0.0415  <S**2>=0.000
     309 -> 313       -0.19554
     310 -> 314        0.61276
     312 -> 316       -0.25891

 Excited State   4:      Singlet-A      2.1934 eV  565.25 nm  f=0.1474  <S**2>=0.000
     309 -> 313        0.61024
     310 -> 314        0.19376
     311 -> 315       -0.26597

 Excited State   5:      Singlet-A      2.6397 eV  469.70 nm  f=0.0000  <S**2>=0.000
     312 -> 313        0.70708

 The electronic state is 1-A.
 Alpha  occ. eigenvalues --  -46.87888 -46.87555 -19.26387 -19.26252 -19.19125
 Alpha  occ. eigenvalues --  -19.19064 -19.18897 -19.18634 -19.18252 -19.17942
 Alpha  occ. eigenvalues --  -14.42544 -14.42390 -14.41536 -14.41255 -14.39494
 Alpha  occ. eigenvalues --  -14.39250 -14.38676 -14.38494 -10.39182 -10.38991
 Alpha  occ. eigenvalues --  -10.35531 -10.35314 -10.34473 -10.34118 -10.31785
 Alpha  occ. eigenvalues --  -10.31669 -10.31499 -10.31198 -10.31009 -10.30920
 Alpha  occ. eigenvalues --  -10.30660 -10.30592 -10.30294 -10.30291 -10.30257
 Alpha  occ. eigenvalues --  -10.30044 -10.30000 -10.29789 -10.29718 -10.29343
 Alpha  occ. eigenvalues --  -10.29338 -10.29304 -10.28865 -10.28696 -10.28608
 Alpha  occ. eigenvalues --  -10.28583 -10.28457 -10.28301 -10.28225 -10.28018
 Alpha  occ. eigenvalues --  -10.27899 -10.27880 -10.27821 -10.27674 -10.27592
 Alpha  occ. eigenvalues --  -10.27568 -10.27566 -10.27513 -10.27496 -10.27426
 Alpha  occ. eigenvalues --  -10.27413 -10.27378 -10.27372 -10.27281 -10.27249
 Alpha  occ. eigenvalues --  -10.26935 -10.26851 -10.26606 -10.26503 -10.26361
 Alpha  occ. eigenvalues --  -10.26330 -10.26242 -10.26103 -10.26058 -10.25911
 Alpha  occ. eigenvalues --  -10.25852 -10.25834 -10.25740 -10.25491 -10.25298
 Alpha  occ. eigenvalues --  -10.24919 -10.24871 -10.24768 -10.24744 -10.24657
 Alpha  occ. eigenvalues --  -10.24587  -3.16631  -3.16305  -1.91512  -1.91187
 Alpha  occ. eigenvalues --   -1.91099  -1.90941  -1.90776  -1.90613  -1.16736
 Alpha  occ. eigenvalues --   -1.16546  -1.08710  -1.08548  -1.07297  -1.06887
 Alpha  occ. eigenvalues --   -1.06848  -1.06746  -1.04676  -1.04388  -1.03848
 Alpha  occ. eigenvalues --   -1.03559  -1.03322  -1.02936  -1.02499  -1.02007
 Alpha  occ. eigenvalues --   -0.92063  -0.91879  -0.89597  -0.89398  -0.89298
 Alpha  occ. eigenvalues --   -0.89037  -0.88361  -0.88125  -0.87953  -0.87769
 Alpha  occ. eigenvalues --   -0.87688  -0.87582  -0.87367  -0.87040  -0.85089
 Alpha  occ. eigenvalues --   -0.84896  -0.84008  -0.83783  -0.83054  -0.82856
 Alpha  occ. eigenvalues --   -0.82749  -0.82554  -0.81681  -0.81497  -0.80690
 Alpha  occ. eigenvalues --   -0.80345  -0.78888  -0.78545  -0.77310  -0.77046
 Alpha  occ. eigenvalues --   -0.77033  -0.76798  -0.76020  -0.75729  -0.74974
 Alpha  occ. eigenvalues --   -0.74705  -0.72860  -0.72597  -0.71760  -0.71472
 Alpha  occ. eigenvalues --   -0.69976  -0.69668  -0.68975  -0.68726  -0.67731
 Alpha  occ. eigenvalues --   -0.67504  -0.67334  -0.67113  -0.65392  -0.65167
 Alpha  occ. eigenvalues --   -0.64944  -0.64713  -0.64669  -0.64553  -0.64348
 Alpha  occ. eigenvalues --   -0.64108  -0.62391  -0.62180  -0.60530  -0.60252
 Alpha  occ. eigenvalues --   -0.59907  -0.59687  -0.59075  -0.58891  -0.58592
 Alpha  occ. eigenvalues --   -0.58325  -0.57676  -0.57448  -0.57392  -0.57141
 Alpha  occ. eigenvalues --   -0.56399  -0.56107  -0.56080  -0.55791  -0.55611
 Alpha  occ. eigenvalues --   -0.55418  -0.55361  -0.55150  -0.54608  -0.54393
 Alpha  occ. eigenvalues --   -0.54006  -0.53803  -0.53387  -0.53322  -0.53134
 Alpha  occ. eigenvalues --   -0.53045  -0.53009  -0.52856  -0.52805  -0.52586
 Alpha  occ. eigenvalues --   -0.52506  -0.52316  -0.51992  -0.51776  -0.51725
 Alpha  occ. eigenvalues --   -0.51564  -0.51283  -0.51100  -0.50670  -0.50405
 Alpha  occ. eigenvalues --   -0.50109  -0.50011  -0.49881  -0.49775  -0.49613
 Alpha  occ. eigenvalues --   -0.49393  -0.49306  -0.49195  -0.49100  -0.48991
 Alpha  occ. eigenvalues --   -0.48685  -0.48540  -0.48531  -0.48454  -0.48280
 Alpha  occ. eigenvalues --   -0.48253  -0.47788  -0.47500  -0.47386  -0.47029
 Alpha  occ. eigenvalues --   -0.46885  -0.46664  -0.46610  -0.46452  -0.46445
 Alpha  occ. eigenvalues --   -0.46245  -0.46176  -0.45985  -0.45910  -0.45717
 Alpha  occ. eigenvalues --   -0.45276  -0.45110  -0.44667  -0.44602  -0.44413
 Alpha  occ. eigenvalues --   -0.44376  -0.44229  -0.44189  -0.44110  -0.44019
 Alpha  occ. eigenvalues --   -0.43989  -0.43849  -0.43586  -0.43480  -0.43455
 Alpha  occ. eigenvalues --   -0.43283  -0.43114  -0.42833  -0.42798  -0.42792
 Alpha  occ. eigenvalues --   -0.42733  -0.42463  -0.42094  -0.41871  -0.41792
 Alpha  occ. eigenvalues --   -0.41640  -0.41564  -0.41361  -0.41231  -0.40969
 Alpha  occ. eigenvalues --   -0.40917  -0.40879  -0.40649  -0.40637  -0.40603
 Alpha  occ. eigenvalues --   -0.40395  -0.40362  -0.40138  -0.39509  -0.39338
 Alpha  occ. eigenvalues --   -0.38550  -0.38253  -0.37869  -0.37562  -0.37402
 Alpha  occ. eigenvalues --   -0.37370  -0.37168  -0.37097  -0.36807  -0.36675
 Alpha  occ. eigenvalues --   -0.36283  -0.36118  -0.34375  -0.34149  -0.33872
 Alpha  occ. eigenvalues --   -0.33764  -0.33276  -0.33073  -0.31426  -0.31192
 Alpha  occ. eigenvalues --   -0.31125  -0.30869  -0.30112  -0.29845  -0.29538
 Alpha  occ. eigenvalues --   -0.29408  -0.29232  -0.29106  -0.24170  -0.23930
 Alpha  occ. eigenvalues --   -0.21217  -0.21014
 Alpha virt. eigenvalues --   -0.08863  -0.08691  -0.01837  -0.01582  -0.00149
 Alpha virt. eigenvalues --    0.00065   0.02117   0.02313   0.03016   0.03318
 Alpha virt. eigenvalues --    0.04615   0.04835   0.04997   0.05266   0.06050

 Mulliken charges:
               1
     1  Mg   0.838484
     2  C   -0.003165
     3  C   -0.094577
     4  C   -0.045668
     5  C   -0.063785
     6  N   -0.256769
     7  C   -0.052616
     8  C   -0.013929
     9  C   -0.086940
    10  C    0.046151
    11  C    0.104794
    12  C    0.053640
    13  C   -0.071529
    14  H    0.035322
    15  N   -0.433147
    16  C    0.168259
    17  C   -0.177452
    18  C   -0.004003
    19  C    0.148672
    20  C    0.110242
    21  C    0.012344
    22  O   -0.249148
    23  C    0.062565
    24  N   -0.341121
    25  C    0.041220
    26  C   -0.028248
    27  C   -0.024034
    28  C    0.074867
    29  C    0.076091
    30  C    0.035073
    31  C   -0.004531
    32  N   -0.310509
    33  C    0.080439
    34  C   -0.169518
    35  C    0.008462
    36  C    0.082988
    37  C    0.127274
    38  C    0.046217
    39  O   -0.188085
    40  C   -0.005383
    41  C    0.213003
    42  O   -0.257436
    43  O   -0.304691
    44  C    0.157664
    45  H   -0.017673
    46  H   -0.016547
    47  H   -0.041235
    48  H    0.001118
    49  H   -0.004393
    50  H    0.025626
    51  H    0.016624
    52  H    0.016675
    53  H    0.010522
    54  H    0.043852
    55  H    0.018349
    56  H    0.017619
    57  H    0.005684
    58  H    0.027044
    59  H    0.038800
    60  H    0.037361
    61  H    0.036018
    62  H    0.030775
    63  H    0.016835
    64  H    0.009620
    65  H    0.023462
    66  H    0.012531
    67  H    0.004878
    68  H    0.006602
    69  H    0.004787
    70  H    0.009120
    71  H    0.018119
    72  H    0.028782
    73  H    0.047816
    74  H    0.009263
    75  H    0.046188
    76  H    0.035306
    77  H    0.043346
    78  H    0.046092
    79  H    0.053548
    80  Mg   0.838157
    81  C   -0.016767
    82  C   -0.087730
    83  C   -0.045446
    84  C   -0.064701
    85  N   -0.254606
    86  C   -0.049352
    87  C   -0.015140
    88  C   -0.090692
    89  C    0.046013
    90  C    0.114445
    91  C    0.062589
    92  C   -0.077655
    93  H    0.034459
    94  N   -0.423483
    95  C    0.162953
    96  C   -0.174782
    97  C   -0.007914
    98  C    0.152121
    99  C    0.099550
   100  C    0.015517
   101  O   -0.253170
   102  C    0.061284
   103  N   -0.349960
   104  C    0.037573
   105  C   -0.019863
   106  C   -0.034827
   107  C    0.089001
   108  C    0.073649
   109  C    0.034774
   110  C   -0.007630
   111  N   -0.324180
   112  C    0.078630
   113  C   -0.162941
   114  C    0.002503
   115  C    0.096252
   116  C    0.131404
   117  C    0.042619
   118  O   -0.187728
   119  C    0.000806
   120  C    0.211171
   121  O   -0.251290
   122  O   -0.305397
   123  C    0.152140
   124  H   -0.020038
   125  H   -0.015653
   126  H   -0.040500
   127  H   -0.000268
   128  H   -0.005034
   129  H    0.023778
   130  H    0.015079
   131  H    0.015964
   132  H    0.013648
   133  H    0.037570
   134  H    0.020932
   135  H    0.019190
   136  H    0.008347
   137  H    0.025529
   138  H    0.039350
   139  H    0.037882
   140  H    0.036209
   141  H    0.033660
   142  H    0.014184
   143  H    0.012523
   144  H    0.024916
   145  H    0.012097
   146  H    0.005581
   147  H    0.006075
   148  H    0.003592
   149  H    0.010827
   150  H    0.017736
   151  H    0.030157
   152  H    0.045838
   153  H    0.008309
   154  H    0.047646
   155  H    0.035928
   156  H    0.043915
   157  H    0.049305
   158  H    0.053368
 Sum of Mulliken charges =  -0.00000

 Dipole moment (field-independent basis, Debye):
    X=             -5.3703    Y=             -1.2231    Z=             -6.9237  Tot=              8.8472
 Quadrupole moment (field-independent basis, Debye-Ang):
   XX=           -534.1005   YY=           -541.6933   ZZ=           -454.6992
   XY=            -12.1378   XZ=              7.4729   YZ=            -52.8180

 Normal termination of Gaussian 16 at Sat Sep 11 07:19:25 2021.
