 Gaussian 16, Revision A.03,
 Gaussian 16:  ES64L-G16RevA.03 25-Dec-2016

 -----------------------------------
 #p cam-b3lyp/Def2SVP td=(nstates=5)
 -----------------------------------

 --------------------------------
 TDDFT excited states in gaussian
 --------------------------------
 Symbolic Z-matrix:
 Charge =  0 Multiplicity = 1

                         Standard orientation:
 ---------------------------------------------------------------------
 Center     Atomic      Atomic             Coordinates (Angstroms)
 Number     Number       Type             X           Y           Z
 ---------------------------------------------------------------------
      1         12           0       -4.044714    0.558523   -0.110173
      2          6           0       -3.088414    4.006478   -0.206636
      3          6           0       -4.673236    0.793194   -3.455761
      4          6           0       -5.320244   -2.341155    0.036502
      5          6           0       -4.425425    0.913167    3.335831
      6          7           0       -3.863254    2.239939   -1.538654
      7          6           0       -3.427818    3.493522   -1.460560
      8          6           0       -3.293885    4.188620   -2.848463
      9          6           0       -4.334333    3.306081   -3.673443
     10          6           0       -4.261156    2.023760   -2.863368
     11          6           0       -5.762307    3.839569   -3.620697
     12          6           0       -1.847703    4.068365   -3.436534
     13          6           0       -1.545768    4.989540   -4.622124
     14          1           0       -0.209973    5.552446   -4.749148
     15          7           0       -4.415101   -0.752094   -1.541238
     16          6           0       -4.629143   -0.481806   -2.851359
     17          6           0       -4.858950   -1.788282   -3.504804
     18          6           0       -4.949180   -2.821846   -2.436301
     19          6           0       -4.924301   -1.998717   -1.254262
     20          6           0       -4.921894   -1.965239   -4.990897
     21          6           0       -5.053498   -4.313749   -2.474699
     22          8           0       -5.353684   -5.001452   -1.439553
     23          6           0       -4.879749   -4.950725   -3.792696
     24          7           0       -4.982561   -0.504428    1.422215
     25          6           0       -5.390466   -1.764889    1.238264
     26          6           0       -5.768990   -2.411435    2.537740
     27          6           0       -5.302471   -1.403795    3.685248
     28          6           0       -4.781416   -0.252161    2.790535
     29          6           0       -7.259167   -2.733286    2.716047
     30          6           0       -4.363337   -1.970406    4.779506
     31          6           0       -3.019050   -2.310860    4.176115
     32          7           0       -3.639830    2.103251    1.359836
     33          6           0       -3.897836    2.044972    2.737047
     34          6           0       -3.556263    3.365603    3.296805
     35          6           0       -3.136241    4.110433    2.196508
     36          6           0       -3.235604    3.314315    1.019812
     37          6           0       -3.707749    3.759260    4.655673
     38          6           0       -2.649964    5.401463    1.737559
     39          8           0       -2.284011    6.437908    2.293754
     40          6           0       -2.715067    5.424702    0.146632
     41          6           0       -1.397672    5.950644   -0.354530
     42          8           0       -0.346759    5.295657   -0.199801
     43          8           0       -1.614368    7.017413   -1.139125
     44          6           0       -0.349656    7.570139   -1.693336
     45          1           0       -5.125739    0.811070   -4.449171
     46          1           0       -5.662831   -3.371822    0.149629
     47          1           0       -4.438431    1.071130    4.415799
     48          1           0       -3.598807    5.235141   -2.863962
     49          1           0       -3.997797    3.128841   -4.694742
     50          1           0       -5.852586    4.667462   -2.917586
     51          1           0       -6.375746    2.997900   -3.298550
     52          1           0       -6.114646    4.102596   -4.618420
     53          1           0       -1.736560    3.098776   -3.921927
     54          1           0       -1.100351    4.225914   -2.658094
     55          1           0       -2.300366    5.770177   -4.722607
     56          1           0       -1.635199    4.406712   -5.538920
     57          1           0       -4.988906   -1.007653   -5.505762
     58          1           0       -5.867347   -2.459751   -5.212901
     59          1           0       -4.094841   -2.567050   -5.367909
     60          1           0       -5.630968   -4.563506   -4.481376
     61          1           0       -4.897969   -6.024950   -3.612256
     62          1           0       -3.911169   -4.659964   -4.200445
     63          1           0       -5.253547   -3.362359    2.666148
     64          1           0       -6.147538   -0.999822    4.243228
     65          1           0       -7.458289   -3.785141    2.922586
     66          1           0       -7.784548   -2.404450    1.819871
     67          1           0       -7.763065   -2.152386    3.488096
     68          1           0       -4.773118   -2.892349    5.190659
     69          1           0       -4.202455   -1.280515    5.608010
     70          1           0       -3.183009   -3.304900    3.761586
     71          1           0       -2.249711   -2.332060    4.948695
     72          1           0       -2.775918   -1.647591    3.345786
     73          1           0       -2.801748    4.305536    4.917804
     74          1           0       -3.851227    2.895528    5.304505
     75          1           0       -4.599097    4.382684    4.587134
     76          1           0       -3.545488    6.076224   -0.123630
     77          1           0       -0.308912    8.622532   -1.412189
     78          1           0       -0.346262    7.329995   -2.756691
     79          1           0        0.574231    7.201727   -1.246072
     80         12           0        3.470638   -1.978945    0.373804
     81          6           0        5.316380    1.098529    0.411754
     82          6           0        3.771235   -1.943804   -3.023698
     83          6           0        1.470328   -4.439751    0.270692
     84          6           0        2.352566   -1.186541    3.578126
     85          7           0        4.441722   -0.553647   -1.011036
     86          6           0        5.165416    0.547664   -0.877890
     87          6           0        5.827830    1.044643   -2.190815
     88          6           0        4.818385    0.367943   -3.240566
     89          6           0        4.334372   -0.806199   -2.392166
     90          6           0        3.620918    1.242363   -3.573413
     91          6           0        7.288987    0.500393   -2.366315
     92          6           0        8.103944    1.188198   -3.463826
     93          1           0        9.536138    1.378555   -3.251547
     94          7           0        3.132700   -3.299724   -1.068394
     95          6           0        3.331919   -3.128024   -2.392068
     96          6           0        2.911419   -4.385813   -3.028692
     97          6           0        2.293488   -5.253754   -1.989671
     98          6           0        2.255221   -4.336342   -0.868517
     99          6           0        3.181795   -4.697376   -4.472039
    100          6           0        1.804668   -6.670432   -2.006425
    101          8           0        1.085807   -7.145959   -1.057774
    102          6           0        2.113675   -7.456379   -3.209884
    103          7           0        1.943301   -2.608307    1.636137
    104          6           0        1.263544   -3.741423    1.387327
    105          6           0        0.408694   -4.135181    2.568258
    106          6           0        0.842529   -3.157937    3.757525
    107          6           0        1.854203   -2.270559    2.999599
    108          6           0       -1.102159   -4.039842    2.357036
    109          6           0        1.293635   -3.823690    5.086416
    110          6           0        2.596455   -4.561598    4.877726
    111          7           0        3.902623   -0.450149    1.838118
    112          6           0        3.301404   -0.288858    3.105633
    113          6           0        3.839979    0.957663    3.687511
    114          6           0        4.706659    1.451041    2.700633
    115          6           0        4.692773    0.584533    1.574376
    116          6           0        3.477902    1.511756    4.947661
    117          6           0        5.622046    2.513443    2.351246
    118          8           0        6.098496    3.479927    2.945070
    119          6           0        5.961352    2.399242    0.802628
    120          6           0        7.452437    2.517466    0.643871
    121          8           0        8.208412    1.644757    1.105930
    122          8           0        7.726505    3.520706   -0.209795
    123          6           0        9.192842    3.670080   -0.408208
    124          1           0        3.610719   -1.912485   -4.101721
    125          1           0        0.843643   -5.332491    0.332057
    126          1           0        2.128020   -0.921893    4.613609
    127          1           0        5.831337    2.120460   -2.318892
    128          1           0        5.345586    0.010279   -4.121195
    129          1           0        3.585268    2.128337   -2.957031
    130          1           0        2.748912    0.625464   -3.399967
    131          1           0        3.613643    1.481236   -4.640757
    132          1           0        7.245312   -0.517479   -2.774668
    133          1           0        7.825151    0.542138   -1.438189
    134          1           0        7.637638    2.122522   -3.799275
    135          1           0        8.097166    0.551405   -4.351780
    136          1           0        3.502173   -3.804576   -5.023098
    137          1           0        2.222152   -4.967046   -4.926162
    138          1           0        3.879236   -5.527934   -4.600180
    139          1           0        1.691847   -6.962411   -4.081961
    140          1           0        1.761015   -8.467440   -2.997141
    141          1           0        3.200319   -7.468828   -3.350127
    142          1           0        0.605859   -5.158187    2.864394
    143          1           0        0.016808   -2.500013    4.066015
    144          1           0       -1.629610   -4.995001    2.540146
    145          1           0       -1.284591   -3.691891    1.348971
    146          1           0       -1.605548   -3.283696    2.957075
    147          1           0        0.561426   -4.570299    5.403598
    148          1           0        1.411017   -3.120166    5.903887
    149          1           0        2.272910   -5.521392    4.463965
    150          1           0        3.116951   -4.695022    5.823935
    151          1           0        3.212180   -4.065974    4.118202
    152          1           0        4.395282    1.837436    5.419728
    153          1           0        2.948556    0.787381    5.563175
    154          1           0        2.826837    2.327520    4.622199
    155          1           0        5.430173    3.202629    0.290765
    156          1           0        9.444254    4.706916   -0.164411
    157          1           0        9.389973    3.334059   -1.443569
    158          1           0        9.847397    3.129706    0.265593
 ---------------------------------------------------------------------

 SCF Done:  E(RCAM-B3LYP) =  -4069.80280887     A.U. after   19 cycles

 Excitation energies and oscillator strengths:

 Excited State   1:      Singlet-A      1.6370 eV  757.41 nm  f=0.0022  <S**2>=0.000
     309 -> 315       -0.11028
     310 -> 316        0.12156
     311 -> 313        0.46095
     312 -> 314        0.51098
 This state for optimization and/or second-order correction.
 Total Energy, E(TD-HF/TD-DFT) =  -4069.74265187
 Copying the excited state density for this state as the 1-particle RhoCI density.

 Excited State   2:      Singlet-A      1.7114 eV  724.47 nm  f=0.6765  <S**2>=0.000
     309 -> 315       -0.13669
     310 -> 316       -0.12253
     311 -> 313        0.50751
     312 -> 314       -0.45786

 Excited State   3:      Singlet-A      2.1780 eV  569.27 nm  f=0.0220  <S**2>=0.000
     309 -> 313       -0.32421
     310 -> 314        0.55931
     311 -> 315       -0.13200
     312 -> 316       -0.22967

 Excited State   4:      Singlet-A      2.1985 eV  563.94 nm  f=0.1497  <S**2>=0.000
     309 -> 313        0.55260
     310 -> 314        0.31790
     311 -> 315        0.24560
     312 -> 316       -0.14393

 Excited State   5:      Singlet-A      2.2214 eV  558.13 nm  f=0.0000  <S**2>=0.000
     312 -> 313        0.70670

 The electronic state is 1-A.
 Alpha  occ. eigenvalues --  -46.87911 -46.87337 -19.26337 -19.26075 -19.19073
 Alpha  occ. eigenvalues --  -19.18872 -19.18820 -19.18446 -19.18227 -19.17675
 Alpha  occ. eigenvalues --  -14.42569 -14.42183 -14.41595 -14.41026 -14.39505
 Alpha  occ. eigenvalues --  -14.39038 -14.38695 -14.38258 -10.39137 -10.38792
 Alpha  occ. eigenvalues --  -10.35452 -10.35131 -10.34450 -10.33850 -10.31724
 Alpha  occ. eigenvalues --  -10.31532 -10.31527 -10.31013 -10.30988 -10.30724
 Alpha  occ. eigenvalues --  -10.30692 -10.30619 -10.30359 -10.30072 -10.30062
 Alpha  occ. eigenvalues --  -10.30034 -10.29842 -10.29732 -10.29519 -10.29356
 Alpha  occ. eigenvalues --  -10.29126 -10.29088 -10.28879 -10.28722 -10.28479
 Alpha  occ. eigenvalues --  -10.28457 -10.28450 -10.28246 -10.28071 -10.27882
 Alpha  occ. eigenvalues --  -10.27875 -10.27851 -10.27754 -10.27676 -10.27661
 Alpha  occ. eigenvalues --  -10.27661 -10.27590 -10.27511 -10.27376 -10.27304
 Alpha  occ. eigenvalues --  -10.27231 -10.27182 -10.27166 -10.27156 -10.26904
 Alpha  occ. eigenvalues --  -10.26869 -10.26673 -10.26521 -10.26470 -10.26384
 Alpha  occ. eigenvalues --  -10.26348 -10.26245 -10.26176 -10.25948 -10.25940
 Alpha  occ. eigenvalues --  -10.25751 -10.25621 -10.25589 -10.25437 -10.25269
 Alpha  occ. eigenvalues --  -10.24918 -10.24914 -10.24530 -10.24516 -10.24361
 Alpha  occ. eigenvalues --  -10.24329  -3.16654  -3.16088  -1.91535  -1.91122
 Alpha  occ. eigenvalues --   -1.90970  -1.90963  -1.90559  -1.90395  -1.16686
 Alpha  occ. eigenvalues --   -1.16364  -1.08682  -1.08279  -1.07211  -1.06701
 Alpha  occ. eigenvalues --   -1.06695  -1.06654  -1.04697  -1.04180  -1.03894
 Alpha  occ. eigenvalues --   -1.03347  -1.03340  -1.02704  -1.02530  -1.01772
 Alpha  occ. eigenvalues --   -0.92074  -0.91645  -0.89773  -0.89322  -0.89186
 Alpha  occ. eigenvalues --   -0.88880  -0.88512  -0.87970  -0.87871  -0.87805
 Alpha  occ. eigenvalues --   -0.87430  -0.87371  -0.87351  -0.86867  -0.85116
 Alpha  occ. eigenvalues --   -0.84724  -0.84278  -0.83522  -0.83077  -0.82762
 Alpha  occ. eigenvalues --   -0.82675  -0.82375  -0.81688  -0.81297  -0.80705
 Alpha  occ. eigenvalues --   -0.80144  -0.78896  -0.78347  -0.77471  -0.77111
 Alpha  occ. eigenvalues --   -0.76858  -0.76597  -0.76051  -0.75550  -0.75165
 Alpha  occ. eigenvalues --   -0.74419  -0.72924  -0.72375  -0.71802  -0.71348
 Alpha  occ. eigenvalues --   -0.70413  -0.69357  -0.68992  -0.68547  -0.67745
 Alpha  occ. eigenvalues --   -0.67339  -0.67276  -0.66952  -0.65447  -0.65055
 Alpha  occ. eigenvalues --   -0.64970  -0.64811  -0.64530  -0.64441  -0.64333
 Alpha  occ. eigenvalues --   -0.63825  -0.62406  -0.61973  -0.60554  -0.60046
 Alpha  occ. eigenvalues --   -0.59924  -0.59505  -0.59123  -0.58667  -0.58626
 Alpha  occ. eigenvalues --   -0.58102  -0.57677  -0.57461  -0.57212  -0.56913
 Alpha  occ. eigenvalues --   -0.56417  -0.56071  -0.55909  -0.55665  -0.55602
 Alpha  occ. eigenvalues --   -0.55532  -0.55176  -0.54946  -0.54698  -0.54230
 Alpha  occ. eigenvalues --   -0.54026  -0.53646  -0.53435  -0.53310  -0.53136
 Alpha  occ. eigenvalues --   -0.52942  -0.52894  -0.52832  -0.52738  -0.52612
 Alpha  occ. eigenvalues --   -0.52444  -0.52158  -0.52015  -0.51721  -0.51493
 Alpha  occ. eigenvalues --   -0.51400  -0.51353  -0.50887  -0.50672  -0.50301
 Alpha  occ. eigenvalues --   -0.50266  -0.50033  -0.49790  -0.49672  -0.49570
 Alpha  occ. eigenvalues --   -0.49302  -0.49237  -0.49204  -0.48914  -0.48880
 Alpha  occ. eigenvalues --   -0.48699  -0.48636  -0.48492  -0.48293  -0.48203
 Alpha  occ. eigenvalues --   -0.48061  -0.47728  -0.47407  -0.47328  -0.47160
 Alpha  occ. eigenvalues --   -0.46766  -0.46685  -0.46556  -0.46408  -0.46312
 Alpha  occ. eigenvalues --   -0.46282  -0.45933  -0.45927  -0.45732  -0.45515
 Alpha  occ. eigenvalues --   -0.45385  -0.44943  -0.44645  -0.44550  -0.44356
 Alpha  occ. eigenvalues --   -0.44231  -0.44197  -0.44106  -0.44077  -0.43838
 Alpha  occ. eigenvalues --   -0.43776  -0.43647  -0.43611  -0.43524  -0.43265
 Alpha  occ. eigenvalues --   -0.43197  -0.43083  -0.42952  -0.42756  -0.42634
 Alpha  occ. eigenvalues --   -0.42552  -0.42318  -0.42195  -0.41802  -0.41683
 Alpha  occ. eigenvalues --   -0.41659  -0.41374  -0.41250  -0.41186  -0.41016
 Alpha  occ. eigenvalues --   -0.40875  -0.40703  -0.40653  -0.40474  -0.40434
 Alpha  occ. eigenvalues --   -0.40356  -0.40176  -0.39992  -0.39587  -0.39060
 Alpha  occ. eigenvalues --   -0.38600  -0.37939  -0.37884  -0.37507  -0.37384
 Alpha  occ. eigenvalues --   -0.37379  -0.36920  -0.36880  -0.36697  -0.36426
 Alpha  occ. eigenvalues --   -0.36262  -0.35809  -0.34403  -0.33907  -0.33833
 Alpha  occ. eigenvalues --   -0.33564  -0.33299  -0.32851  -0.31361  -0.31143
 Alpha  occ. eigenvalues --   -0.30999  -0.30637  -0.30088  -0.29579  -0.29529
 Alpha  occ. eigenvalues --   -0.29410  -0.29031  -0.28848  -0.24202  -0.23705
 Alpha  occ. eigenvalues --   -0.21251  -0.20787
 Alpha virt. eigenvalues --   -0.08877  -0.08470  -0.01871  -0.01355  -0.00119
 Alpha virt. eigenvalues --    0.00260   0.02101   0.02459   0.02664   0.03659
 Alpha virt. eigenvalues --    0.04574   0.05035   0.05057   0.05469   0.05999

 Mulliken charges:
               1
     1  Mg   0.838286
     2  C   -0.002424
     3  C   -0.094535
     4  C   -0.047155
     5  C   -0.064577
     6  N   -0.256462
     7  C   -0.052792
     8  C   -0.013870
     9  C   -0.087019
    10  C    0.046380
    11  C    0.104771
    12  C    0.053734
    13  C   -0.071368
    14  H    0.034964
    15  N   -0.433744
    16  C    0.169253
    17  C   -0.177397
    18  C   -0.002909
    19  C    0.150561
    20  C    0.110409
    21  C    0.014989
    22  O   -0.247938
    23  C    0.062063
    24  N   -0.340947
    25  C    0.041740
    26  C   -0.030053
    27  C   -0.026565
    28  C    0.072676
    29  C    0.076274
    30  C    0.111112
    31  C   -0.084523
    32  N   -0.310528
    33  C    0.079699
    34  C   -0.170084
    35  C    0.008619
    36  C    0.083288
    37  C    0.127279
    38  C    0.046544
    39  O   -0.187315
    40  C   -0.005673
    41  C    0.213204
    42  O   -0.256822
    43  O   -0.304896
    44  C    0.157283
    45  H   -0.017563
    46  H   -0.016261
    47  H   -0.042297
    48  H    0.001309
    49  H   -0.004518
    50  H    0.025802
    51  H    0.016645
    52  H    0.016726
    53  H    0.010234
    54  H    0.044059
    55  H    0.018600
    56  H    0.017254
    57  H    0.005365
    58  H    0.027265
    59  H    0.038952
    60  H    0.036317
    61  H    0.037665
    62  H    0.031391
    63  H    0.016944
    64  H    0.011033
    65  H    0.023789
    66  H    0.013342
    67  H    0.005056
    68  H    0.004798
    69  H   -0.004480
    70  H    0.032089
    71  H    0.031242
    72  H    0.055182
    73  H    0.047994
    74  H    0.008208
    75  H    0.046438
    76  H    0.035346
    77  H    0.043779
    78  H    0.045544
    79  H    0.054444
    80  Mg   0.837266
    81  C   -0.015468
    82  C   -0.088764
    83  C   -0.048557
    84  C   -0.063247
    85  N   -0.254503
    86  C   -0.048492
    87  C   -0.015056
    88  C   -0.090845
    89  C    0.046075
    90  C    0.114247
    91  C    0.062683
    92  C   -0.077241
    93  H    0.034098
    94  N   -0.423338
    95  C    0.162761
    96  C   -0.176642
    97  C   -0.008241
    98  C    0.151149
    99  C    0.100411
   100  C    0.014425
   101  O   -0.252272
   102  C    0.061691
   103  N   -0.350449
   104  C    0.040505
   105  C   -0.037067
   106  C   -0.026993
   107  C    0.084170
   108  C    0.156568
   109  C    0.035148
   110  C   -0.005815
   111  N   -0.324918
   112  C    0.079751
   113  C   -0.160782
   114  C    0.004517
   115  C    0.096553
   116  C    0.130187
   117  C    0.044690
   118  O   -0.187201
   119  C   -0.000092
   120  C    0.210777
   121  O   -0.251791
   122  O   -0.305292
   123  C    0.152310
   124  H   -0.021969
   125  H   -0.014316
   126  H   -0.041567
   127  H   -0.000450
   128  H   -0.005788
   129  H    0.026416
   130  H    0.013868
   131  H    0.013120
   132  H    0.013516
   133  H    0.037667
   134  H    0.020328
   135  H    0.018802
   136  H    0.007628
   137  H    0.023066
   138  H    0.039033
   139  H    0.036203
   140  H    0.035978
   141  H    0.033542
   142  H    0.011439
   143  H    0.010429
   144  H    0.023683
   145  H    0.003103
   146  H   -0.094227
   147  H    0.004371
   148  H    0.001411
   149  H    0.011029
   150  H    0.016904
   151  H    0.030270
   152  H    0.045083
   153  H    0.006448
   154  H    0.052747
   155  H    0.038635
   156  H    0.043550
   157  H    0.048755
   158  H    0.053146
 Sum of Mulliken charges =  -0.00000

 Dipole moment (field-independent basis, Debye):
    X=             -3.8421    Y=             -1.1920    Z=             -7.8179  Tot=              8.7922
 Quadrupole moment (field-independent basis, Debye-Ang):
   XX=           -512.3208   YY=           -551.9109   ZZ=           -447.6176
   XY=            -14.5305   XZ=            -30.4258   YZ=            -29.5537

 Normal termination of Gaussian 16 at Wed Sep  8 20:36:22 2021.
