 Gaussian 16, Revision A.03,
 Gaussian 16:  ES64L-G16RevA.03 25-Dec-2016

 -----------------------------------
 #p cam-b3lyp/Def2SVP td=(nstates=5)
 -----------------------------------

 --------------------------------
 TDDFT excited states in gaussian
 --------------------------------
 Symbolic Z-matrix:
 Charge =  0 Multiplicity = 1

                         Standard orientation:
 ---------------------------------------------------------------------
 Center     Atomic      Atomic             Coordinates (Angstroms)
 Number     Number       Type             X           Y           Z
 ---------------------------------------------------------------------
      1         12           0        8.117953   -0.554823    0.414703
      2          6           0        8.348212    2.497791   -1.440221
      3          6           0        8.853463    1.261137    3.208335
      4          6           0        8.368136   -3.292254    1.996001
      5          6           0        8.527029   -2.247607   -2.604038
      6          7           0        8.526093    1.599749    0.717830
      7          6           0        8.524740    2.673462   -0.065949
      8          6           0        8.653293    4.012414    0.720215
      9          6           0        9.362289    3.463252    2.038451
     10          6           0        8.856636    2.031713    2.007822
     11          6           0       10.884947    3.448328    1.950181
     12          6           0        7.259439    4.648998    1.042179
     13          6           0        7.299596    6.105335    1.514221
     14          1           0        6.225244    7.001222    1.113593
     15          7           0        8.065405   -0.923038    2.354937
     16          6           0        8.381671   -0.061650    3.351568
     17          6           0        8.182629   -0.807113    4.613054
     18          6           0        7.907922   -2.228453    4.263166
     19          6           0        8.131624   -2.209855    2.840145
     20          6           0        8.212834   -0.161037    5.964137
     21          6           0        7.517581   -3.417449    5.082956
     22          8           0        7.555310   -4.607237    4.616530
     23          6           0        7.170020   -3.158466    6.491918
     24          7           0        8.625106   -2.492754   -0.172538
     25          6           0        8.600255   -3.506762    0.699331
     26          6           0        8.720347   -4.829411    0.002111
     27          6           0        8.588177   -4.519917   -1.558818
     28          6           0        8.491381   -2.976030   -1.485915
     29          6           0       10.018613   -5.606540    0.260156
     30          6           0        7.494065   -5.291540   -2.338519
     31          6           0        6.124474   -4.849958   -1.873411
     32          7           0        8.213995   -0.012655   -1.684791
     33          6           0        8.411813   -0.877643   -2.770764
     34          6           0        8.511765   -0.038339   -3.978922
     35          6           0        8.380872    1.266147   -3.506663
     36          6           0        8.236275    1.244722   -2.090004
     37          6           0        8.757656   -0.505508   -5.300181
     38          6           0        8.354213    2.674573   -3.866499
     39          8           0        8.337945    3.298014   -4.928831
     40          6           0        8.454190    3.535084   -2.530329
     41          6           0        7.392343    4.598897   -2.594313
     42          8           0        6.181891    4.297657   -2.556566
     43          8           0        7.962306    5.805131   -2.450492
     44          6           0        6.960033    6.903764   -2.475163
     45          1           0        9.305955    1.683354    4.107738
     46          1           0        8.351246   -4.266571    2.488808
     47          1           0        8.570199   -2.710695   -3.591529
     48          1           0        9.285011    4.761299    0.242168
     49          1           0        9.006107    3.971862    2.934091
     50          1           0       11.228260    3.696883    0.946051
     51          1           0       11.181824    2.432953    2.213565
     52          1           0       11.323378    4.095409    2.710340
     53          1           0        6.845695    4.176549    1.933061
     54          1           0        6.590227    4.566141    0.185082
     55          1           0        8.270387    6.561330    1.317900
     56          1           0        7.210573    6.114825    2.600584
     57          1           0        8.600366    0.855712    5.913289
     58          1           0        8.947756   -0.702380    6.559575
     59          1           0        7.241565   -0.196540    6.457806
     60          1           0        8.019922   -2.694421    6.992795
     61          1           0        6.831192   -4.110901    6.898013
     62          1           0        6.358608   -2.430938    6.527449
     63          1           0        7.918992   -5.503579    0.301702
     64          1           0        9.508022   -4.743944   -2.099532
     65          1           0        9.857467   -6.607130    0.662096
     66          1           0       10.640095   -5.011830    0.929014
     67          1           0       10.670161   -5.708900   -0.607269
     68          1           0        7.570532   -6.360324   -2.141543
     69          1           0        7.552456   -5.148155   -3.417538
     70          1           0        5.961143   -5.458749   -0.984856
     71          1           0        5.375951   -5.064731   -2.636822
     72          1           0        6.128635   -3.806622   -1.557314
     73          1           0        8.076200    0.043782   -5.949695
     74          1           0        8.597115   -1.580699   -5.376304
     75          1           0        9.805383   -0.230238   -5.419975
     76          1           0        9.457511    3.959138   -2.504915
     77          1           0        7.261468    7.595638   -3.261726
     78          1           0        6.898649    7.290118   -1.457633
     79          1           0        5.957916    6.634583   -2.810786
     80         12           0       -7.738366   -0.794302   -0.215708
     81          6           0      -10.282317    1.665941    0.379746
     82          6           0       -5.587442    1.787976   -0.798749
     83          6           0       -5.597445   -2.926781   -1.183415
     84          6           0      -10.292244   -3.113767   -0.709247
     85          7           0       -8.016932    1.399679   -0.182569
     86          6           0       -9.012290    2.220507    0.117191
     87          6           0       -8.605823    3.715403    0.215378
     88          6           0       -7.300265    3.671468   -0.718672
     89          6           0       -6.916251    2.204903   -0.533167
     90          6           0       -7.604455    3.903194   -2.189429
     91          6           0       -8.248493    4.142548    1.682306
     92          6           0       -8.142744    5.652896    1.904626
     93          1           0       -8.585992    6.200882    3.183579
     94          7           0       -5.769919   -0.638664   -0.414593
     95          6           0       -5.059823    0.489861   -0.623083
     96          6           0       -3.653621    0.068453   -0.718945
     97          6           0       -3.608375   -1.419042   -0.714613
     98          6           0       -5.022470   -1.726018   -0.793390
     99          6           0       -2.510920    1.041912   -0.723166
    100          6           0       -2.478626   -2.402498   -0.662728
    101          8           0       -2.657715   -3.647391   -0.909716
    102          6           0       -1.140321   -1.850648   -0.406064
    103          7           0       -7.914594   -2.685577   -1.060931
    104          6           0       -6.825056   -3.422989   -1.338540
    105          6           0       -7.201298   -4.845173   -1.679447
    106          6           0       -8.758103   -4.971807   -1.336063
    107          6           0       -9.045493   -3.511891   -0.922010
    108          6           0       -6.964312   -5.266642   -3.129473
    109          6           0       -9.174356   -6.110941   -0.365610
    110          6           0       -8.632113   -5.834001    1.018106
    111          7           0       -9.888031   -0.810410    0.000509
    112          6           0      -10.766033   -1.878953   -0.284805
    113          6           0      -12.141488   -1.375618   -0.091942
    114          6           0      -11.967677   -0.032017    0.272777
    115          6           0      -10.582568    0.285482    0.285312
    116          6           0      -13.336657   -2.119909   -0.301074
    117          6           0      -12.641456    1.192768    0.639682
    118          8           0      -13.807443    1.505053    0.877742
    119          6           0      -11.586186    2.380795    0.602303
    120          6           0      -11.740446    3.179066    1.867797
    121          8           0      -11.471662    2.672535    2.971331
    122          8           0      -11.968981    4.466727    1.551420
    123          6           0      -12.118008    5.300632    2.773799
    124          1           0       -4.891112    2.512514   -1.221891
    125          1           0       -4.896253   -3.730242   -1.420610
    126          1           0      -11.139452   -3.801790   -0.748242
    127          1           0       -9.330458    4.410808   -0.190923
    128          1           0       -6.518288    4.321798   -0.335350
    129          1           0       -8.666692    3.941927   -2.379912
    130          1           0       -7.155496    3.071957   -2.717192
    131          1           0       -7.088236    4.799760   -2.544427
    132          1           0       -7.213640    3.847832    1.899033
    133          1           0       -8.944633    3.722191    2.381816
    134          1           0       -8.573001    6.223154    1.072381
    135          1           0       -7.085994    5.930885    1.902000
    136          1           0       -2.858741    2.069802   -0.883946
    137          1           0       -1.904237    0.818997   -1.607539
    138          1           0       -1.882992    0.958207    0.166416
    139          1           0       -0.895755   -1.123317   -1.176536
    140          1           0       -0.479865   -2.715347   -0.316768
    141          1           0       -1.162736   -1.306467    0.544708
    142          1           0       -6.648415   -5.548435   -1.068827
    143          1           0       -9.359290   -5.167327   -2.236169
    144          1           0       -6.306739   -6.151264   -3.224976
    145          1           0       -6.548730   -4.424192   -3.666225
    146          1           0       -7.865503   -5.482757   -3.700749
    147          1           0       -8.737414   -7.059944   -0.685987
    148          1           0      -10.247849   -6.255171   -0.304011
    149          1           0       -7.605658   -6.208366    0.960400
    150          1           0       -9.206753   -6.371857    1.769468
    151          1           0       -8.579530   -4.756329    1.211792
    152          1           0      -13.992269   -1.896050    0.529918
    153          1           0      -13.133557   -3.186432   -0.372136
    154          1           0      -13.663482   -1.699761   -1.256026
    155          1           0      -11.795975    2.977471   -0.286260
    156          1           0      -13.083507    5.810173    2.697189
    157          1           0      -11.214186    5.937272    2.813142
    158          1           0      -12.225032    4.786086    3.721553
 ---------------------------------------------------------------------

 SCF Done:  E(RCAM-B3LYP) =  -4069.81199164     A.U. after   19 cycles

 Excitation energies and oscillator strengths:

 Excited State   1:      Singlet-A      1.6747 eV  740.34 nm  f=0.3632  <S**2>=0.000
     310 -> 316       -0.15849
     311 -> 313       -0.27968
     312 -> 314        0.62647
 This state for optimization and/or second-order correction.
 Total Energy, E(TD-HF/TD-DFT) =  -4069.75044801
 Copying the excited state density for this state as the 1-particle RhoCI density.

 Excited State   2:      Singlet-A      1.6805 eV  737.76 nm  f=0.4223  <S**2>=0.000
     309 -> 315        0.16066
     311 -> 313        0.62609
     312 -> 314        0.27965

 Excited State   3:      Singlet-A      2.1868 eV  566.98 nm  f=0.0528  <S**2>=0.000
     309 -> 313       -0.15731
     310 -> 314        0.62299
     312 -> 316        0.26516

 Excited State   4:      Singlet-A      2.1937 eV  565.18 nm  f=0.1396  <S**2>=0.000
     309 -> 313        0.62115
     310 -> 314        0.15627
     311 -> 315       -0.27053

 Excited State   5:      Singlet-A      2.7354 eV  453.26 nm  f=0.0000  <S**2>=0.000
     312 -> 313        0.70700

 The electronic state is 1-A.
 Alpha  occ. eigenvalues --  -46.87906 -46.87571 -19.26455 -19.26297 -19.19197
 Alpha  occ. eigenvalues --  -19.19104 -19.18892 -19.18593 -19.18290 -19.17971
 Alpha  occ. eigenvalues --  -14.42560 -14.42408 -14.41548 -14.41271 -14.39508
 Alpha  occ. eigenvalues --  -14.39259 -14.38697 -14.38511 -10.39250 -10.39032
 Alpha  occ. eigenvalues --  -10.35524 -10.35266 -10.34512 -10.34150 -10.31861
 Alpha  occ. eigenvalues --  -10.31714 -10.31519 -10.31223 -10.31023 -10.30928
 Alpha  occ. eigenvalues --  -10.30680 -10.30609 -10.30310 -10.30293 -10.30271
 Alpha  occ. eigenvalues --  -10.30046 -10.30014 -10.29814 -10.29732 -10.29353
 Alpha  occ. eigenvalues --  -10.29336 -10.29301 -10.28882 -10.28708 -10.28639
 Alpha  occ. eigenvalues --  -10.28602 -10.28475 -10.28310 -10.28237 -10.28053
 Alpha  occ. eigenvalues --  -10.27906 -10.27897 -10.27833 -10.27684 -10.27574
 Alpha  occ. eigenvalues --  -10.27573 -10.27558 -10.27516 -10.27508 -10.27441
 Alpha  occ. eigenvalues --  -10.27396 -10.27362 -10.27299 -10.27290 -10.27289
 Alpha  occ. eigenvalues --  -10.26976 -10.26871 -10.26628 -10.26475 -10.26341
 Alpha  occ. eigenvalues --  -10.26249 -10.26216 -10.26113 -10.26072 -10.25939
 Alpha  occ. eigenvalues --  -10.25929 -10.25846 -10.25778 -10.25485 -10.25321
 Alpha  occ. eigenvalues --  -10.24941 -10.24884 -10.24782 -10.24707 -10.24669
 Alpha  occ. eigenvalues --  -10.24601  -3.16649  -3.16322  -1.91531  -1.91204
 Alpha  occ. eigenvalues --   -1.91117  -1.90959  -1.90792  -1.90629  -1.16804
 Alpha  occ. eigenvalues --   -1.16589  -1.08752  -1.08582  -1.07291  -1.06888
 Alpha  occ. eigenvalues --   -1.06844  -1.06816  -1.04692  -1.04405  -1.03861
 Alpha  occ. eigenvalues --   -1.03573  -1.03338  -1.02949  -1.02514  -1.02021
 Alpha  occ. eigenvalues --   -0.92087  -0.91902  -0.89599  -0.89412  -0.89313
 Alpha  occ. eigenvalues --   -0.89068  -0.88361  -0.88140  -0.87974  -0.87782
 Alpha  occ. eigenvalues --   -0.87709  -0.87595  -0.87367  -0.86993  -0.85103
 Alpha  occ. eigenvalues --   -0.84915  -0.84007  -0.83800  -0.83044  -0.82810
 Alpha  occ. eigenvalues --   -0.82761  -0.82556  -0.81717  -0.81524  -0.80711
 Alpha  occ. eigenvalues --   -0.80358  -0.78895  -0.78524  -0.77318  -0.77054
 Alpha  occ. eigenvalues --   -0.77052  -0.76824  -0.76043  -0.75753  -0.74980
 Alpha  occ. eigenvalues --   -0.74721  -0.72874  -0.72609  -0.71774  -0.71495
 Alpha  occ. eigenvalues --   -0.69965  -0.69682  -0.68988  -0.68740  -0.67746
 Alpha  occ. eigenvalues --   -0.67512  -0.67344  -0.67109  -0.65410  -0.65191
 Alpha  occ. eigenvalues --   -0.64966  -0.64730  -0.64686  -0.64574  -0.64351
 Alpha  occ. eigenvalues --   -0.64124  -0.62432  -0.62209  -0.60532  -0.60229
 Alpha  occ. eigenvalues --   -0.59923  -0.59710  -0.59091  -0.58907  -0.58609
 Alpha  occ. eigenvalues --   -0.58339  -0.57716  -0.57480  -0.57404  -0.57145
 Alpha  occ. eigenvalues --   -0.56416  -0.56123  -0.56109  -0.55813  -0.55620
 Alpha  occ. eigenvalues --   -0.55434  -0.55351  -0.55173  -0.54631  -0.54417
 Alpha  occ. eigenvalues --   -0.54022  -0.53830  -0.53395  -0.53335  -0.53135
 Alpha  occ. eigenvalues --   -0.53048  -0.53036  -0.52855  -0.52821  -0.52540
 Alpha  occ. eigenvalues --   -0.52494  -0.52328  -0.52018  -0.51807  -0.51738
 Alpha  occ. eigenvalues --   -0.51564  -0.51303  -0.51121  -0.50654  -0.50338
 Alpha  occ. eigenvalues --   -0.50104  -0.50010  -0.49878  -0.49775  -0.49623
 Alpha  occ. eigenvalues --   -0.49384  -0.49325  -0.49212  -0.49106  -0.49022
 Alpha  occ. eigenvalues --   -0.48713  -0.48549  -0.48538  -0.48475  -0.48297
 Alpha  occ. eigenvalues --   -0.48224  -0.47797  -0.47498  -0.47395  -0.47011
 Alpha  occ. eigenvalues --   -0.46895  -0.46680  -0.46625  -0.46467  -0.46460
 Alpha  occ. eigenvalues --   -0.46264  -0.46176  -0.46005  -0.45943  -0.45750
 Alpha  occ. eigenvalues --   -0.45278  -0.45126  -0.44694  -0.44602  -0.44433
 Alpha  occ. eigenvalues --   -0.44388  -0.44238  -0.44196  -0.44127  -0.44040
 Alpha  occ. eigenvalues --   -0.43989  -0.43829  -0.43620  -0.43490  -0.43484
 Alpha  occ. eigenvalues --   -0.43302  -0.43131  -0.42860  -0.42844  -0.42820
 Alpha  occ. eigenvalues --   -0.42731  -0.42466  -0.42100  -0.41889  -0.41811
 Alpha  occ. eigenvalues --   -0.41651  -0.41586  -0.41378  -0.41245  -0.40977
 Alpha  occ. eigenvalues --   -0.40914  -0.40902  -0.40650  -0.40633  -0.40597
 Alpha  occ. eigenvalues --   -0.40415  -0.40374  -0.40145  -0.39493  -0.39352
 Alpha  occ. eigenvalues --   -0.38551  -0.38272  -0.37885  -0.37580  -0.37406
 Alpha  occ. eigenvalues --   -0.37389  -0.37184  -0.37113  -0.36856  -0.36710
 Alpha  occ. eigenvalues --   -0.36306  -0.36141  -0.34393  -0.34166  -0.33935
 Alpha  occ. eigenvalues --   -0.33799  -0.33295  -0.33087  -0.31423  -0.31154
 Alpha  occ. eigenvalues --   -0.31140  -0.30883  -0.30151  -0.29878  -0.29551
 Alpha  occ. eigenvalues --   -0.29430  -0.29225  -0.29120  -0.24187  -0.23948
 Alpha  occ. eigenvalues --   -0.21230  -0.21025
 Alpha virt. eigenvalues --   -0.08877  -0.08696  -0.01849  -0.01593  -0.00157
 Alpha virt. eigenvalues --    0.00078   0.02092   0.02292   0.02971   0.03304
 Alpha virt. eigenvalues --    0.04600   0.04812   0.04935   0.05227   0.06031

 Mulliken charges:
               1
     1  Mg   0.837843
     2  C   -0.003466
     3  C   -0.094343
     4  C   -0.045638
     5  C   -0.063691
     6  N   -0.256803
     7  C   -0.052726
     8  C   -0.013922
     9  C   -0.086947
    10  C    0.046126
    11  C    0.104751
    12  C    0.053538
    13  C   -0.071613
    14  H    0.035215
    15  N   -0.433232
    16  C    0.168308
    17  C   -0.177203
    18  C   -0.003871
    19  C    0.148618
    20  C    0.110148
    21  C    0.012375
    22  O   -0.249061
    23  C    0.062467
    24  N   -0.341138
    25  C    0.041271
    26  C   -0.028254
    27  C   -0.024068
    28  C    0.074803
    29  C    0.076068
    30  C    0.035024
    31  C   -0.004612
    32  N   -0.310382
    33  C    0.080137
    34  C   -0.169775
    35  C    0.008261
    36  C    0.082621
    37  C    0.127356
    38  C    0.045813
    39  O   -0.188640
    40  C   -0.005223
    41  C    0.213022
    42  O   -0.258191
    43  O   -0.304473
    44  C    0.157861
    45  H   -0.017441
    46  H   -0.016355
    47  H   -0.041166
    48  H    0.001023
    49  H   -0.004108
    50  H    0.025559
    51  H    0.016686
    52  H    0.016833
    53  H    0.010857
    54  H    0.043303
    55  H    0.018312
    56  H    0.018106
    57  H    0.005842
    58  H    0.027176
    59  H    0.039519
    60  H    0.037435
    61  H    0.036190
    62  H    0.031294
    63  H    0.017057
    64  H    0.009601
    65  H    0.023619
    66  H    0.012477
    67  H    0.004917
    68  H    0.006904
    69  H    0.004794
    70  H    0.009388
    71  H    0.019093
    72  H    0.027964
    73  H    0.047328
    74  H    0.009419
    75  H    0.046178
    76  H    0.035368
    77  H    0.043192
    78  H    0.046421
    79  H    0.052863
    80  Mg   0.837618
    81  C   -0.016875
    82  C   -0.087761
    83  C   -0.045478
    84  C   -0.064903
    85  N   -0.254536
    86  C   -0.050065
    87  C   -0.015062
    88  C   -0.090475
    89  C    0.045626
    90  C    0.114304
    91  C    0.062555
    92  C   -0.077718
    93  H    0.034356
    94  N   -0.423590
    95  C    0.162814
    96  C   -0.174237
    97  C   -0.007671
    98  C    0.152153
    99  C    0.099078
   100  C    0.015627
   101  O   -0.253391
   102  C    0.061139
   103  N   -0.350044
   104  C    0.037602
   105  C   -0.019868
   106  C   -0.034726
   107  C    0.088752
   108  C    0.073672
   109  C    0.034801
   110  C   -0.007649
   111  N   -0.324019
   112  C    0.078196
   113  C   -0.163372
   114  C    0.002124
   115  C    0.096011
   116  C    0.131542
   117  C    0.042182
   118  O   -0.188308
   119  C    0.000978
   120  C    0.211217
   121  O   -0.251173
   122  O   -0.305600
   123  C    0.152113
   124  H   -0.018919
   125  H   -0.015540
   126  H   -0.040720
   127  H   -0.000781
   128  H   -0.004258
   129  H    0.022302
   130  H    0.014736
   131  H    0.016536
   132  H    0.013849
   133  H    0.037501
   134  H    0.020825
   135  H    0.019577
   136  H    0.009184
   137  H    0.028150
   138  H    0.039945
   139  H    0.039900
   140  H    0.036475
   141  H    0.033487
   142  H    0.014325
   143  H    0.012282
   144  H    0.025029
   145  H    0.011872
   146  H    0.005561
   147  H    0.006106
   148  H    0.003491
   149  H    0.010920
   150  H    0.017703
   151  H    0.030156
   152  H    0.045730
   153  H    0.008330
   154  H    0.046773
   155  H    0.034937
   156  H    0.043757
   157  H    0.049437
   158  H    0.053406
 Sum of Mulliken charges =  -0.00000

 Dipole moment (field-independent basis, Debye):
    X=              5.4918    Y=              2.7446    Z=              2.2244  Tot=              6.5300
 Quadrupole moment (field-independent basis, Debye-Ang):
   XX=           -556.5366   YY=           -472.4930   ZZ=           -514.0874
   XY=             15.2741   XZ=             57.4720   YZ=             37.6958

 Normal termination of Gaussian 16 at Sun Sep 12 09:16:19 2021.
