 Gaussian 16, Revision A.03,
 Gaussian 16:  ES64L-G16RevA.03 25-Dec-2016

 -----------------------------------
 #p cam-b3lyp/Def2SVP td=(nstates=5)
 -----------------------------------

 --------------------------------
 TDDFT excited states in gaussian
 --------------------------------
 Symbolic Z-matrix:
 Charge =  0 Multiplicity = 1

                         Standard orientation:
 ---------------------------------------------------------------------
 Center     Atomic      Atomic             Coordinates (Angstroms)
 Number     Number       Type             X           Y           Z
 ---------------------------------------------------------------------
      1         12           0       -5.077681   -0.894431    0.184053
      2          6           0       -5.364119    1.985386    2.290430
      3          6           0       -6.120648    1.075705   -2.399326
      4          6           0       -5.269627   -3.513892   -1.593080
      5          6           0       -5.165852   -2.836203    3.076701
      6          7           0       -5.638859    1.244631    0.083372
      7          6           0       -5.648307    2.253087    0.949454
      8          6           0       -5.914965    3.636410    0.284108
      9          6           0       -6.680421    3.142941   -1.024541
     10          6           0       -6.086255    1.750507   -1.142946
     11          6           0       -8.189120    3.018924   -0.837594
     12          6           0       -4.589559    4.388023   -0.076598
     13          6           0       -4.753175    5.870111   -0.425884
     14          1           0       -3.710593    6.803073   -0.025944
     15          7           0       -5.140339   -1.109218   -1.778799
     16          6           0       -5.579265   -0.197559   -2.679636
     17          6           0       -5.424544   -0.829550   -4.007541
     18          6           0       -5.038260   -2.251726   -3.792379
     19          6           0       -5.161082   -2.356809   -2.360859
     20          6           0       -5.590524   -0.085807   -5.297133
     21          6           0       -4.634282   -3.345769   -4.729397
     22          8           0       -4.565100   -4.567502   -4.359050
     23          6           0       -4.404330   -2.957283   -6.132695
     24          7           0       -5.420962   -2.901223    0.645117
     25          6           0       -5.395375   -3.841802   -0.305482
     26          6           0       -5.383581   -5.218851    0.289107
     27          6           0       -5.160324   -5.021124    1.857805
     28          6           0       -5.164673   -3.473170    1.903526
     29          6           0       -6.646307   -6.059610    0.055319
     30          6           0       -3.967966   -5.774607    2.498869
     31          6           0       -2.664813   -5.207701    1.981659
     32          7           0       -5.057781   -0.521668    2.322206
     33          6           0       -5.124087   -1.478308    3.345494
     34          6           0       -5.189752   -0.742228    4.621402
     35          6           0       -5.173697    0.600320    4.248371
     36          6           0       -5.129001    0.696785    2.828163
     37          6           0       -5.311830   -1.324291    5.913971
     38          6           0       -5.208764    1.975792    4.718163
     39          8           0       -5.155722    2.516069    5.823957
     40          6           0       -5.456416    2.927027    3.465308
     41          6           0       -4.460578    4.051880    3.544813
     42          8           0       -3.239545    3.836516    3.403175
     43          8           0       -5.112863    5.224484    3.536698
     44          6           0       -4.181280    6.382968    3.583841
     45          1           0       -6.661115    1.533890   -3.229930
     46          1           0       -5.227509   -4.444433   -2.162955
     47          1           0       -5.110060   -3.375111    4.024287
     48          1           0       -6.556275    4.302451    0.861633
     49          1           0       -6.420888    3.741188   -1.897734
     50          1           0       -8.474995    3.166507    0.203759
     51          1           0       -8.440544    2.008930   -1.161926
     52          1           0       -8.719617    3.691132   -1.512491
     53          1           0       -4.211672    4.013808   -1.028031
     54          1           0       -3.857340    4.285245    0.725036
     55          1           0       -5.733930    6.243457   -0.129841
     56          1           0       -4.742268    5.968399   -1.511435
     57          1           0       -6.035642    0.895720   -5.138957
     58          1           0       -6.330956   -0.628370   -5.884580
     59          1           0       -4.656426   -0.018130   -5.854998
     60          1           0       -5.314733   -2.514619   -6.537374
     61          1           0       -4.036903   -3.851011   -6.635782
     62          1           0       -3.644069   -2.176229   -6.162797
     63          1           0       -4.565341   -5.812761   -0.116084
     64          1           0       -6.023825   -5.347114    2.438125
     65          1           0       -6.452497   -7.013514   -0.435812
     66          1           0       -7.349318   -5.458780   -0.520936
     67          1           0       -7.227036   -6.271433    0.952705
     68          1           0       -3.991940   -6.827970    2.221745
     69          1           0       -3.958359   -5.718192    3.587435
     70          1           0       -2.527622   -5.734575    1.038041
     71          1           0       -1.852123   -5.429228    2.674243
     72          1           0       -2.755962   -4.145944    1.751764
     73          1           0       -4.621279   -0.781544    6.559364
     74          1           0       -5.080062   -2.388912    5.892319
     75          1           0       -6.363428   -1.130072    6.124388
     76          1           0       -6.483324    3.283321    3.540389
     77          1           0       -4.468343    6.990983    4.441830
     78          1           0       -4.216323    6.849057    2.598986
     79          1           0       -3.143131    6.157002    3.829859
     80         12           0        5.486651   -0.370224   -0.095877
     81          6           0        3.696594    1.859008   -2.265036
     82          6           0        7.645446    2.198674    0.516465
     83          6           0        7.335180   -2.426111    1.460942
     84          6           0        3.906335   -3.009756   -1.733305
     85          7           0        5.556411    1.712509   -0.837230
     86          6           0        4.788149    2.465902   -1.609577
     87          6           0        5.166327    3.971361   -1.620273
     88          6           0        6.709295    3.834713   -1.196638
     89          6           0        6.635464    2.518255   -0.425814
     90          6           0        7.643582    3.643651   -2.379830
     91          6           0        4.352198    4.799680   -0.565240
     92          6           0        4.443895    6.318260   -0.730318
     93          1           0        3.265804    7.124285   -0.422223
     94          7           0        6.934061   -0.051408    1.223943
     95          6           0        7.693431    1.057431    1.346880
     96          6           0        8.625870    0.786010    2.451893
     97          6           0        8.465179   -0.635259    2.862866
     98          6           0        7.567073   -1.108741    1.828788
     99          6           0        9.493634    1.847239    3.063615
    100          6           0        9.036656   -1.438947    3.991447
    101          8           0        8.949146   -2.717378    4.019549
    102          6           0        9.782909   -0.693089    5.015308
    103          7           0        5.768381   -2.422911   -0.267482
    104          6           0        6.591689   -3.079970    0.568189
    105          6           0        6.424260   -4.574878    0.435426
    106          6           0        5.139556   -4.782422   -0.494108
    107          6           0        4.825779   -3.306868   -0.825286
    108          6           0        7.612522   -5.326734   -0.163837
    109          6           0        3.998412   -5.671962    0.070846
    110          6           0        3.347918   -4.988520    1.252015
    111          7           0        3.926035   -0.570984   -1.576498
    112          6           0        3.435395   -1.768451   -2.141673
    113          6           0        2.460474   -1.389944   -3.185084
    114          6           0        2.468680    0.012989   -3.170253
    115          6           0        3.398954    0.476241   -2.200981
    116          6           0        1.747404   -2.292161   -4.023919
    117          6           0        1.909708    1.207403   -3.761526
    118          8           0        1.012986    1.437727   -4.571825
    119          6           0        2.772484    2.456185   -3.289751
    120          6           0        1.823653    3.531321   -2.835534
    121          8           0        1.107200    3.359992   -1.833569
    122          8           0        2.074157    4.659781   -3.524172
    123          6           0        1.165527    5.758585   -3.101260
    124          1           0        8.506074    2.862929    0.599913
    125          1           0        7.867625   -3.179684    2.045847
    126          1           0        3.298795   -3.775082   -2.220996
    127          1           0        5.087587    4.452652   -2.587707
    128          1           0        7.011542    4.645354   -0.538720
    129          1           0        7.101222    3.512559   -3.304382
    130          1           0        8.226556    2.760200   -2.154659
    131          1           0        8.357720    4.470363   -2.433571
    132          1           0        4.824928    4.688807    0.419116
    133          1           0        3.322663    4.498634   -0.556706
    134          1           0        4.860044    6.602607   -1.704447
    135          1           0        5.167264    6.702874   -0.007256
    136          1           0        9.517337    2.753170    2.445458
    137          1           0       10.522856    1.473266    3.037048
    138          1           0        9.224006    2.066766    4.098886
    139          1           0       10.610852   -0.166390    4.546735
    140          1           0       10.036400   -1.425778    5.783934
    141          1           0        9.123795    0.071845    5.440844
    142          1           0        6.237241   -5.030259    1.400181
    143          1           0        5.399359   -5.269611   -1.445421
    144          1           0        8.000199   -6.126538    0.495031
    145          1           0        8.390779   -4.610118   -0.390384
    146          1           0        7.428306   -5.782531   -1.135181
    147          1           0        4.403287   -6.616287    0.442988
    148          1           0        3.236746   -5.914871   -0.662544
    149          1           0        4.010974   -5.247550    2.082891
    150          1           0        2.343692   -5.375324    1.413070
    151          1           0        3.372208   -3.898497    1.138385
    152          1           0        0.726529   -1.936536   -4.066901
    153          1           0        1.798667   -3.311181   -3.646128
    154          1           0        2.303895   -2.171919   -4.957263
    155          1           0        3.377404    2.776079   -4.139056
    156          1           0        0.659761    6.119520   -4.002147
    157          1           0        1.803123    6.481030   -2.557861
    158          1           0        0.320731    5.497238   -2.474776
 ---------------------------------------------------------------------

 SCF Done:  E(RCAM-B3LYP) =  -4069.81190804     A.U. after   19 cycles

 Excitation energies and oscillator strengths:

 Excited State   1:      Singlet-A      1.6574 eV  748.07 nm  f=0.1366  <S**2>=0.000
     309 -> 315        0.12891
     310 -> 316       -0.10919
     311 -> 313        0.52333
     312 -> 314       -0.44529
 This state for optimization and/or second-order correction.
 Total Energy, E(TD-HF/TD-DFT) =  -4069.75100027
 Copying the excited state density for this state as the 1-particle RhoCI density.

 Excited State   2:      Singlet-A      1.6956 eV  731.20 nm  f=0.6127  <S**2>=0.000
     309 -> 315        0.11559
     310 -> 316        0.13626
     311 -> 313        0.44375
     312 -> 314        0.52153

 Excited State   3:      Singlet-A      2.1819 eV  568.23 nm  f=0.0181  <S**2>=0.000
     309 -> 313        0.56974
     310 -> 314        0.30122
     311 -> 315       -0.23856
     312 -> 316       -0.12494

 Excited State   4:      Singlet-A      2.1942 eV  565.05 nm  f=0.1612  <S**2>=0.000
     309 -> 313       -0.29821
     310 -> 314        0.56590
     311 -> 315        0.13045
     312 -> 316       -0.24712

 Excited State   5:      Singlet-A      2.4500 eV  506.06 nm  f=0.0000  <S**2>=0.000
     312 -> 313        0.70658

 The electronic state is 1-A.
 Alpha  occ. eigenvalues --  -46.87564 -46.87332 -19.26360 -19.25915 -19.19125
 Alpha  occ. eigenvalues --  -19.18625 -19.18601 -19.18406 -19.18055 -19.17770
 Alpha  occ. eigenvalues --  -14.42405 -14.41993 -14.41272 -14.41024 -14.39260
 Alpha  occ. eigenvalues --  -14.38939 -14.38512 -14.38138 -10.39056 -10.38666
 Alpha  occ. eigenvalues --  -10.35301 -10.35036 -10.34227 -10.33990 -10.31822
 Alpha  occ. eigenvalues --  -10.31371 -10.31232 -10.30963 -10.30935 -10.30441
 Alpha  occ. eigenvalues --  -10.30315 -10.30283 -10.30123 -10.30086 -10.30044
 Alpha  occ. eigenvalues --  -10.29814 -10.29791 -10.29536 -10.29344 -10.29321
 Alpha  occ. eigenvalues --  -10.29202 -10.28804 -10.28637 -10.28571 -10.28325
 Alpha  occ. eigenvalues --  -10.28292 -10.28157 -10.28066 -10.27929 -10.27908
 Alpha  occ. eigenvalues --  -10.27681 -10.27583 -10.27426 -10.27403 -10.27384
 Alpha  occ. eigenvalues --  -10.27374 -10.27354 -10.27293 -10.27277 -10.27190
 Alpha  occ. eigenvalues --  -10.27147 -10.27135 -10.27023 -10.26965 -10.26936
 Alpha  occ. eigenvalues --  -10.26753 -10.26575 -10.26315 -10.26162 -10.26034
 Alpha  occ. eigenvalues --  -10.25973 -10.25950 -10.25939 -10.25858 -10.25840
 Alpha  occ. eigenvalues --  -10.25790 -10.25604 -10.25493 -10.25328 -10.25167
 Alpha  occ. eigenvalues --  -10.24805 -10.24618 -10.24608 -10.24473 -10.24400
 Alpha  occ. eigenvalues --  -10.24376  -3.16313  -3.16072  -1.91195  -1.90953
 Alpha  occ. eigenvalues --   -1.90784  -1.90621  -1.90541  -1.90383  -1.16646
 Alpha  occ. eigenvalues --   -1.16254  -1.08666  -1.08233  -1.06919  -1.06876
 Alpha  occ. eigenvalues --   -1.06813  -1.06231  -1.04408  -1.04126  -1.03576
 Alpha  occ. eigenvalues --   -1.03332  -1.02952  -1.02792  -1.02027  -1.01975
 Alpha  occ. eigenvalues --   -0.91921  -0.91543  -0.89408  -0.89161  -0.89070
 Alpha  occ. eigenvalues --   -0.88744  -0.88134  -0.87935  -0.87723  -0.87597
 Alpha  occ. eigenvalues --   -0.87460  -0.87229  -0.87032  -0.86807  -0.84917
 Alpha  occ. eigenvalues --   -0.84549  -0.83795  -0.83615  -0.82843  -0.82578
 Alpha  occ. eigenvalues --   -0.82546  -0.82228  -0.81562  -0.81198  -0.80383
 Alpha  occ. eigenvalues --   -0.80181  -0.78553  -0.78347  -0.77064  -0.76839
 Alpha  occ. eigenvalues --   -0.76826  -0.76545  -0.75785  -0.75521  -0.74733
 Alpha  occ. eigenvalues --   -0.74549  -0.72620  -0.72360  -0.71511  -0.71273
 Alpha  occ. eigenvalues --   -0.69665  -0.69600  -0.68750  -0.68450  -0.67529
 Alpha  occ. eigenvalues --   -0.67222  -0.67109  -0.66768  -0.65199  -0.64852
 Alpha  occ. eigenvalues --   -0.64700  -0.64589  -0.64447  -0.64228  -0.64123
 Alpha  occ. eigenvalues --   -0.63896  -0.62246  -0.61917  -0.60254  -0.60011
 Alpha  occ. eigenvalues --   -0.59716  -0.59362  -0.58919  -0.58578  -0.58359
 Alpha  occ. eigenvalues --   -0.58093  -0.57517  -0.57179  -0.57162  -0.56919
 Alpha  occ. eigenvalues --   -0.56133  -0.55888  -0.55853  -0.55590  -0.55389
 Alpha  occ. eigenvalues --   -0.55185  -0.55103  -0.54993  -0.54432  -0.54170
 Alpha  occ. eigenvalues --   -0.53830  -0.53452  -0.53152  -0.53074  -0.52895
 Alpha  occ. eigenvalues --   -0.52833  -0.52786  -0.52582  -0.52513  -0.52308
 Alpha  occ. eigenvalues --   -0.52307  -0.52130  -0.51824  -0.51577  -0.51532
 Alpha  occ. eigenvalues --   -0.51166  -0.51148  -0.50805  -0.50382  -0.50101
 Alpha  occ. eigenvalues --   -0.49897  -0.49786  -0.49677  -0.49480  -0.49408
 Alpha  occ. eigenvalues --   -0.49137  -0.49091  -0.49054  -0.48794  -0.48692
 Alpha  occ. eigenvalues --   -0.48507  -0.48322  -0.48261  -0.48209  -0.48100
 Alpha  occ. eigenvalues --   -0.48024  -0.47525  -0.47286  -0.47043  -0.46882
 Alpha  occ. eigenvalues --   -0.46630  -0.46474  -0.46404  -0.46195  -0.46127
 Alpha  occ. eigenvalues --   -0.46018  -0.45945  -0.45781  -0.45777  -0.45446
 Alpha  occ. eigenvalues --   -0.45133  -0.44856  -0.44462  -0.44398  -0.44191
 Alpha  occ. eigenvalues --   -0.44098  -0.44075  -0.44001  -0.43870  -0.43764
 Alpha  occ. eigenvalues --   -0.43688  -0.43600  -0.43521  -0.43314  -0.43113
 Alpha  occ. eigenvalues --   -0.42975  -0.42904  -0.42845  -0.42632  -0.42465
 Alpha  occ. eigenvalues --   -0.42344  -0.42309  -0.41880  -0.41648  -0.41618
 Alpha  occ. eigenvalues --   -0.41376  -0.41300  -0.41121  -0.40920  -0.40742
 Alpha  occ. eigenvalues --   -0.40634  -0.40609  -0.40482  -0.40411  -0.40398
 Alpha  occ. eigenvalues --   -0.40214  -0.40130  -0.39756  -0.39329  -0.39147
 Alpha  occ. eigenvalues --   -0.38263  -0.38116  -0.37567  -0.37316  -0.37180
 Alpha  occ. eigenvalues --   -0.37115  -0.36940  -0.36815  -0.36741  -0.36331
 Alpha  occ. eigenvalues --   -0.36145  -0.35802  -0.34170  -0.33851  -0.33813
 Alpha  occ. eigenvalues --   -0.33344  -0.33092  -0.32752  -0.31184  -0.30939
 Alpha  occ. eigenvalues --   -0.30890  -0.30608  -0.29961  -0.29632  -0.29246
 Alpha  occ. eigenvalues --   -0.29140  -0.28998  -0.28882  -0.23950  -0.23639
 Alpha  occ. eigenvalues --   -0.21032  -0.20690
 Alpha virt. eigenvalues --   -0.08712  -0.08331  -0.01594  -0.01319   0.00051
 Alpha virt. eigenvalues --    0.00386   0.02256   0.02606   0.03388   0.03774
 Alpha virt. eigenvalues --    0.04814   0.05141   0.05193   0.05510   0.06253

 Mulliken charges:
               1
     1  Mg   0.842964
     2  C   -0.001403
     3  C   -0.091439
     4  C   -0.047037
     5  C   -0.064778
     6  N   -0.256666
     7  C   -0.051344
     8  C   -0.014975
     9  C   -0.087657
    10  C    0.047975
    11  C    0.105037
    12  C    0.053290
    13  C   -0.070546
    14  H    0.032678
    15  N   -0.433056
    16  C    0.170867
    17  C   -0.174315
    18  C   -0.003739
    19  C    0.149071
    20  C    0.109948
    21  C    0.011843
    22  O   -0.251772
    23  C    0.061275
    24  N   -0.341156
    25  C    0.041485
    26  C   -0.027916
    27  C   -0.023606
    28  C    0.074536
    29  C    0.076543
    30  C    0.035527
    31  C   -0.004788
    32  N   -0.310230
    33  C    0.080252
    34  C   -0.170530
    35  C    0.007738
    36  C    0.083399
    37  C    0.127467
    38  C    0.045925
    39  O   -0.190087
    40  C   -0.005631
    41  C    0.212118
    42  O   -0.254980
    43  O   -0.305258
    44  C    0.158375
    45  H   -0.018185
    46  H   -0.018206
    47  H   -0.042841
    48  H   -0.000452
    49  H   -0.003754
    50  H    0.024832
    51  H    0.016048
    52  H    0.015737
    53  H    0.016325
    54  H    0.046841
    55  H    0.016448
    56  H    0.017113
    57  H    0.005661
    58  H    0.024996
    59  H    0.044970
    60  H    0.036800
    61  H    0.033844
    62  H    0.036113
    63  H    0.015140
    64  H    0.008739
    65  H    0.022130
    66  H    0.012620
    67  H    0.004130
    68  H    0.004994
    69  H    0.004450
    70  H    0.006854
    71  H    0.016919
    72  H    0.031188
    73  H    0.046781
    74  H    0.008274
    75  H    0.045055
    76  H    0.034145
    77  H    0.041488
    78  H    0.045940
    79  H    0.053499
    80  Mg   0.839665
    81  C   -0.016151
    82  C   -0.087666
    83  C   -0.045400
    84  C   -0.064815
    85  N   -0.254644
    86  C   -0.049439
    87  C   -0.015469
    88  C   -0.090628
    89  C    0.046274
    90  C    0.114471
    91  C    0.062337
    92  C   -0.077734
    93  H    0.034674
    94  N   -0.423451
    95  C    0.163523
    96  C   -0.174483
    97  C   -0.007550
    98  C    0.152419
    99  C    0.099417
   100  C    0.015889
   101  O   -0.253213
   102  C    0.061008
   103  N   -0.350083
   104  C    0.037599
   105  C   -0.019840
   106  C   -0.034789
   107  C    0.088843
   108  C    0.073739
   109  C    0.034614
   110  C   -0.007943
   111  N   -0.324026
   112  C    0.078431
   113  C   -0.162817
   114  C    0.001084
   115  C    0.096930
   116  C    0.131158
   117  C    0.042610
   118  O   -0.191359
   119  C    0.000903
   120  C    0.209725
   121  O   -0.248622
   122  O   -0.305963
   123  C    0.152507
   124  H   -0.019840
   125  H   -0.015612
   126  H   -0.040036
   127  H   -0.001424
   128  H   -0.004204
   129  H    0.022033
   130  H    0.014361
   131  H    0.016030
   132  H    0.014994
   133  H    0.039157
   134  H    0.019880
   135  H    0.019742
   136  H    0.008718
   137  H    0.025923
   138  H    0.040376
   139  H    0.038021
   140  H    0.036394
   141  H    0.034528
   142  H    0.014466
   143  H    0.012298
   144  H    0.025005
   145  H    0.011462
   146  H    0.005544
   147  H    0.005813
   148  H    0.004267
   149  H    0.010660
   150  H    0.018045
   151  H    0.030842
   152  H    0.044918
   153  H    0.010524
   154  H    0.045914
   155  H    0.034265
   156  H    0.041681
   157  H    0.050043
   158  H    0.053438
 Sum of Mulliken charges =  -0.00000

 Dipole moment (field-independent basis, Debye):
    X=              1.9707    Y=              3.0130    Z=             -3.3054  Tot=              4.8875
 Quadrupole moment (field-independent basis, Debye-Ang):
   XX=           -465.4324   YY=           -464.6286   ZZ=           -533.2850
   XY=             21.4878   XZ=             14.9961   YZ=            -19.7353

 Normal termination of Gaussian 16 at Fri Sep 10 15:55:42 2021.
