 Gaussian 16, Revision A.03,
 Gaussian 16:  ES64L-G16RevA.03 25-Dec-2016

 -----------------------------------
 #p cam-b3lyp/Def2SVP td=(nstates=5)
 -----------------------------------

 --------------------------------
 TDDFT excited states in gaussian
 --------------------------------
 Symbolic Z-matrix:
 Charge =  0 Multiplicity = 1

                         Standard orientation:
 ---------------------------------------------------------------------
 Center     Atomic      Atomic             Coordinates (Angstroms)
 Number     Number       Type             X           Y           Z
 ---------------------------------------------------------------------
      1         12           0       -7.737765   -0.809103   -0.021512
      2          6           0       -8.016232    2.071712    2.084570
      3          6           0       -8.636038    1.196595   -2.631751
      4          6           0       -7.941291   -3.417216   -1.813981
      5          6           0       -7.979370   -2.755707    2.859117
      6          7           0       -8.235408    1.345076   -0.133373
      7          6           0       -8.246573    2.350985    0.735646
      8          6           0       -8.451593    3.743066    0.066730
      9          6           0       -9.185022    3.274824   -1.269245
     10          6           0       -8.626112    1.866669   -1.372412
     11          6           0      -10.702124    3.192486   -1.134625
     12          6           0       -7.094164    4.458358   -0.245482
     13          6           0       -7.204365    5.945406   -0.594622
     14          1           0       -6.150598    6.847757   -0.155664
     15          7           0       -7.738829   -1.016584   -1.986149
     16          6           0       -8.120974   -0.090511   -2.898092
     17          6           0       -7.938320   -0.722875   -4.222265
     18          6           0       -7.599388   -2.155882   -3.999307
     19          6           0       -7.774249   -2.261482   -2.573246
     20          6           0       -8.039088    0.028805   -5.513997
     21          6           0       -7.194021   -3.258170   -4.926007
     22          8           0       -7.171641   -4.482386   -4.558082
     23          6           0       -6.905221   -2.872351   -6.319126
     24          7           0       -8.152409   -2.806797    0.419987
     25          6           0       -8.120326   -3.745072   -0.532691
     26          6           0       -8.167312   -5.123564    0.056792
     27          6           0       -7.992724   -4.936523    1.632955
     28          6           0       -7.955568   -3.389186    1.684295
     29          6           0       -9.444156   -5.928061   -0.223320
     30          6           0       -6.844549   -5.724810    2.311716
     31          6           0       -5.509108   -5.193093    1.841638
     32          7           0       -7.781050   -0.443001    2.117446
     33          6           0       -7.909106   -1.400262    3.134267
     34          6           0       -7.998107   -0.666194    4.409920
     35          6           0       -7.931879    0.676416    4.042689
     36          6           0       -7.835696    0.775551    2.625222
     37          6           0       -8.180717   -1.248219    5.695352
     38          6           0       -7.944795    2.051016    4.516150
     39          8           0       -7.914802    2.586517    5.625128
     40          6           0       -8.122645    3.012286    3.259108
     41          6           0       -7.099216    4.108652    3.376938
     42          8           0       -5.880500    3.859653    3.276462
     43          8           0       -7.717953    5.299041    3.350844
     44          6           0       -6.756667    6.430909    3.434253
     45          1           0       -9.134658    1.672014   -3.478684
     46          1           0       -7.905508   -4.346979   -2.385556
     47          1           0       -7.971220   -3.298601    3.806034
     48          1           0       -9.093604    4.425153    0.624407
     49          1           0       -8.879064    3.868018   -2.130774
     50          1           0      -11.019428    3.345096   -0.103146
     51          1           0      -10.970252    2.190818   -1.471171
     52          1           0      -11.190186    3.881131   -1.824800
     53          1           0       -6.694337    4.076384   -1.184788
     54          1           0       -6.393093    4.332929    0.580407
     55          1           0       -8.183953    6.345181   -0.330999
     56          1           0       -7.153398    6.046375   -1.678784
     57          1           0       -8.461898    1.021941   -5.367509
     58          1           0       -8.773688   -0.491220   -6.128525
     59          1           0       -7.084835    0.071912   -6.039235
     60          1           0       -7.788496   -2.403299   -6.753135
     61          1           0       -6.545719   -3.774590   -6.812657
     62          1           0       -6.122934   -2.112762   -6.320206
     63          1           0       -7.352463   -5.738972   -0.322314
     64          1           0       -8.884410   -5.239877    2.182088
     65          1           0       -9.260187   -6.885636   -0.711082
     66          1           0      -10.109941   -5.306221   -0.821097
     67          1           0      -10.061075   -6.126076    0.652818
     68          1           0       -6.888279   -6.776315    2.029989
     69          1           0       -6.870821   -5.671718    3.400174
     70          1           0       -5.354259   -5.720963    0.901315
     71          1           0       -4.727199   -5.439169    2.560856
     72          1           0       -5.562716   -4.128569    1.612729
     73          1           0       -7.497937   -0.726777    6.366081
     74          1           0       -7.978057   -2.318835    5.677677
     75          1           0       -9.233119   -1.025283    5.870299
     76          1           0       -9.141215    3.396921    3.300253
     77          1           0       -7.056040    7.044313    4.284161
     78          1           0       -6.744834    6.900538    2.450528
     79          1           0       -5.734284    6.175342    3.714889
     80         12           0        8.131387   -0.468501    0.102135
     81          6           0        6.362478    1.827528   -2.014063
     82          6           0       10.398678    2.019386    0.653883
     83          6           0        9.947566   -2.592498    1.604654
     84          6           0        6.410202   -3.046437   -1.490812
     85          7           0        8.255647    1.611447   -0.639920
     86          6           0        7.493589    2.393393   -1.389701
     87          6           0        7.925770    3.884148   -1.410464
     88          6           0        9.474187    3.690918   -1.031067
     89          6           0        9.374548    2.376853   -0.259071
     90          6           0       10.366845    3.467837   -2.240507
     91          6           0        7.172656    4.739895   -0.332272
     92          6           0        7.314738    6.254391   -0.499183
     93          1           0        6.175969    7.102185   -0.157242
     94          7           0        9.626419   -0.204435    1.380302
     95          6           0       10.428777    0.875910    1.482058
     96          6           0       11.381823    0.569138    2.559913
     97          6           0       11.181360   -0.845968    2.974631
     98          6           0       10.237563   -1.284972    1.966364
     99          6           0       12.304651    1.597237    3.147140
    100          6           0       11.755163   -1.671571    4.086084
    101          8           0       11.622088   -2.946019    4.116066
    102          6           0       12.556880   -0.954846    5.088601
    103          7           0        8.333333   -2.529806   -0.078399
    104          6           0        9.155686   -3.217580    0.733159
    105          6           0        8.930327   -4.705213    0.604518
    106          6           0        7.612980   -4.864585   -0.288103
    107          6           0        7.343724   -3.378114   -0.609505
    108          6           0       10.072937   -5.498822   -0.028733
    109          6           0        6.456818   -5.712945    0.308740
    110          6           0        5.865489   -5.008103    1.508290
    111          7           0        6.522983   -0.610230   -1.333483
    112          6           0        5.973244   -1.788232   -1.884999
    113          6           0        4.983417   -1.373008   -2.900008
    114          6           0        5.043019    0.028672   -2.884759
    115          6           0        6.016730    0.456383   -1.942190
    116          6           0        4.214423   -2.247470   -3.718593
    117          6           0        4.511205    1.243495   -3.459303
    118          8           0        3.600731    1.507445   -4.243582
    119          6           0        5.431878    2.459407   -3.011726
    120          6           0        4.536069    3.567606   -2.530133
    121          8           0        3.842680    3.420896   -1.508231
    122          8           0        4.807689    4.687252   -3.225103
    123          6           0        3.952015    5.817686   -2.775942
    124          1           0       11.284899    2.651828    0.713078
    125          1           0       10.468711   -3.365782    2.173789
    126          1           0        5.761611   -3.788469   -1.961336
    127          1           0        7.837055    4.369437   -2.375036
    128          1           0        9.824313    4.489064   -0.381657
    129          1           0        9.793971    3.357927   -3.149284
    130          1           0       10.923504    2.563466   -2.032454
    131          1           0       11.108739    4.268146   -2.314197
    132          1           0        7.668883    4.610448    0.638168
    133          1           0        6.133521    4.476423   -0.294525
    134          1           0        7.713038    6.524900   -1.484641
    135          1           0        8.071900    6.611387    0.203142
    136          1           0       12.343655    2.502645    2.528978
    137          1           0       13.318435    1.186185    3.091059
    138          1           0       12.072766    1.824857    4.189773
    139          1           0       13.389733   -0.457864    4.596859
    140          1           0       12.805360   -1.697419    5.849341
    141          1           0       11.938382   -0.167123    5.533108
    142          1           0        8.754434   -5.154964    1.574007
    143          1           0        7.827718   -5.359452   -1.246666
    144          1           0       10.449893   -6.313172    0.618434
    145          1           0       10.869953   -4.810604   -0.277045
    146          1           0        9.844695   -5.946169   -0.994646
    147          1           0        6.837534   -6.671905    0.668744
    148          1           0        5.666249   -5.926930   -0.402744
    149          1           0        6.542081   -5.292296    2.319807
    150          1           0        4.852858   -5.358432    1.697730
    151          1           0        5.926121   -3.919514    1.394525
    152          1           0        3.206341   -1.854953   -3.732290
    153          1           0        4.239359   -3.268252   -3.342896
    154          1           0        4.748120   -2.146112   -4.667367
    155          1           0        6.023592    2.758406   -3.877781
    156          1           0        3.434248    6.198109   -3.661883
    157          1           0        4.630657    6.515698   -2.250611
    158          1           0        3.116467    5.586263   -2.125747
 ---------------------------------------------------------------------

 SCF Done:  E(RCAM-B3LYP) =  -4069.81169874     A.U. after   19 cycles

 Excitation energies and oscillator strengths:

 Excited State   1:      Singlet-A      1.6715 eV  741.75 nm  f=0.1628  <S**2>=0.000
     309 -> 315        0.14367
     311 -> 313        0.57121
     312 -> 314       -0.38039
 This state for optimization and/or second-order correction.
 Total Energy, E(TD-HF/TD-DFT) =  -4069.75027160
 Copying the excited state density for this state as the 1-particle RhoCI density.

 Excited State   2:      Singlet-A      1.6839 eV  736.28 nm  f=0.6086  <S**2>=0.000
     310 -> 316        0.14693
     311 -> 313        0.37998
     312 -> 314        0.57051

 Excited State   3:      Singlet-A      2.1854 eV  567.33 nm  f=0.0535  <S**2>=0.000
     309 -> 313        0.62356
     310 -> 314        0.15611
     311 -> 315       -0.26449

 Excited State   4:      Singlet-A      2.1928 eV  565.41 nm  f=0.1389  <S**2>=0.000
     309 -> 313       -0.15504
     310 -> 314        0.62156
     312 -> 316       -0.27010

 Excited State   5:      Singlet-A      2.7460 eV  451.51 nm  f=0.0000  <S**2>=0.000
     312 -> 313        0.70695

 The electronic state is 1-A.
 Alpha  occ. eigenvalues --  -46.87604 -46.87560 -19.26308 -19.26063 -19.19103
 Alpha  occ. eigenvalues --  -19.18782 -19.18660 -19.18583 -19.18011 -19.17951
 Alpha  occ. eigenvalues --  -14.42443 -14.42217 -14.41305 -14.41224 -14.39296
 Alpha  occ. eigenvalues --  -14.39166 -14.38544 -14.38354 -10.39036 -10.38845
 Alpha  occ. eigenvalues --  -10.35337 -10.35215 -10.34188 -10.34170 -10.31726
 Alpha  occ. eigenvalues --  -10.31471 -10.31257 -10.31177 -10.30970 -10.30673
 Alpha  occ. eigenvalues --  -10.30343 -10.30340 -10.30307 -10.30280 -10.30086
 Alpha  occ. eigenvalues --  -10.29984 -10.29841 -10.29704 -10.29402 -10.29382
 Alpha  occ. eigenvalues --  -10.29347 -10.29023 -10.28670 -10.28602 -10.28515
 Alpha  occ. eigenvalues --  -10.28351 -10.28298 -10.28131 -10.28094 -10.27949
 Alpha  occ. eigenvalues --  -10.27891 -10.27617 -10.27565 -10.27498 -10.27463
 Alpha  occ. eigenvalues --  -10.27431 -10.27414 -10.27411 -10.27351 -10.27324
 Alpha  occ. eigenvalues --  -10.27305 -10.27256 -10.27233 -10.27173 -10.27006
 Alpha  occ. eigenvalues --  -10.26936 -10.26632 -10.26443 -10.26359 -10.26161
 Alpha  occ. eigenvalues --  -10.26075 -10.26032 -10.25997 -10.25990 -10.25879
 Alpha  occ. eigenvalues --  -10.25804 -10.25797 -10.25644 -10.25354 -10.25261
 Alpha  occ. eigenvalues --  -10.24821 -10.24656 -10.24636 -10.24606 -10.24564
 Alpha  occ. eigenvalues --  -10.24489  -3.16353  -3.16302  -1.91235  -1.91183
 Alpha  occ. eigenvalues --   -1.90824  -1.90770  -1.90661  -1.90612  -1.16599
 Alpha  occ. eigenvalues --   -1.16409  -1.08619  -1.08409  -1.06984  -1.06912
 Alpha  occ. eigenvalues --   -1.06891  -1.06408  -1.04442  -1.04348  -1.03609
 Alpha  occ. eigenvalues --   -1.03533  -1.03003  -1.02984  -1.02182  -1.02057
 Alpha  occ. eigenvalues --   -0.91936  -0.91745  -0.89439  -0.89307  -0.89102
 Alpha  occ. eigenvalues --   -0.88958  -0.88166  -0.88079  -0.87743  -0.87650
 Alpha  occ. eigenvalues --   -0.87631  -0.87443  -0.87066  -0.87036  -0.84948
 Alpha  occ. eigenvalues --   -0.84751  -0.83821  -0.83733  -0.82877  -0.82736
 Alpha  occ. eigenvalues --   -0.82602  -0.82420  -0.81550  -0.81365  -0.80393
 Alpha  occ. eigenvalues --   -0.80370  -0.78583  -0.78565  -0.77093  -0.76998
 Alpha  occ. eigenvalues --   -0.76849  -0.76714  -0.75792  -0.75702  -0.74753
 Alpha  occ. eigenvalues --   -0.74693  -0.72647  -0.72552  -0.71532  -0.71455
 Alpha  occ. eigenvalues --   -0.69705  -0.69699  -0.68776  -0.68645  -0.67550
 Alpha  occ. eigenvalues --   -0.67415  -0.67146  -0.66980  -0.65221  -0.65056
 Alpha  occ. eigenvalues --   -0.64718  -0.64630  -0.64604  -0.64399  -0.64149
 Alpha  occ. eigenvalues --   -0.64056  -0.62231  -0.62078  -0.60286  -0.60213
 Alpha  occ. eigenvalues --   -0.59746  -0.59575  -0.58941  -0.58765  -0.58374
 Alpha  occ. eigenvalues --   -0.58281  -0.57506  -0.57360  -0.57184  -0.57090
 Alpha  occ. eigenvalues --   -0.56153  -0.56085  -0.55840  -0.55756  -0.55402
 Alpha  occ. eigenvalues --   -0.55293  -0.55197  -0.55131  -0.54436  -0.54311
 Alpha  occ. eigenvalues --   -0.53862  -0.53663  -0.53176  -0.53091  -0.53075
 Alpha  occ. eigenvalues --   -0.52990  -0.52849  -0.52689  -0.52616  -0.52520
 Alpha  occ. eigenvalues --   -0.52340  -0.52236  -0.51835  -0.51702  -0.51607
 Alpha  occ. eigenvalues --   -0.51381  -0.51152  -0.50977  -0.50421  -0.50331
 Alpha  occ. eigenvalues --   -0.49928  -0.49823  -0.49814  -0.49687  -0.49436
 Alpha  occ. eigenvalues --   -0.49285  -0.49152  -0.49059  -0.48989  -0.48876
 Alpha  occ. eigenvalues --   -0.48511  -0.48375  -0.48327  -0.48288  -0.48251
 Alpha  occ. eigenvalues --   -0.48217  -0.47544  -0.47470  -0.47075  -0.47068
 Alpha  occ. eigenvalues --   -0.46656  -0.46578  -0.46503  -0.46324  -0.46218
 Alpha  occ. eigenvalues --   -0.46136  -0.46035  -0.45947  -0.45776  -0.45608
 Alpha  occ. eigenvalues --   -0.45157  -0.44996  -0.44466  -0.44425  -0.44359
 Alpha  occ. eigenvalues --   -0.44279  -0.44080  -0.44023  -0.43925  -0.43889
 Alpha  occ. eigenvalues --   -0.43867  -0.43793  -0.43506  -0.43336  -0.43276
 Alpha  occ. eigenvalues --   -0.43163  -0.42883  -0.42853  -0.42807  -0.42497
 Alpha  occ. eigenvalues --   -0.42482  -0.42444  -0.41908  -0.41794  -0.41621
 Alpha  occ. eigenvalues --   -0.41482  -0.41406  -0.41306  -0.40941  -0.40922
 Alpha  occ. eigenvalues --   -0.40669  -0.40646  -0.40645  -0.40588  -0.40440
 Alpha  occ. eigenvalues --   -0.40362  -0.40172  -0.39989  -0.39364  -0.39239
 Alpha  occ. eigenvalues --   -0.38297  -0.38259  -0.37600  -0.37511  -0.37211
 Alpha  occ. eigenvalues --   -0.37146  -0.37105  -0.37028  -0.36721  -0.36491
 Alpha  occ. eigenvalues --   -0.36164  -0.35971  -0.34199  -0.34057  -0.33804
 Alpha  occ. eigenvalues --   -0.33533  -0.33121  -0.32957  -0.31219  -0.31114
 Alpha  occ. eigenvalues --   -0.30920  -0.30808  -0.29916  -0.29810  -0.29273
 Alpha  occ. eigenvalues --   -0.29215  -0.29159  -0.29093  -0.23982  -0.23850
 Alpha  occ. eigenvalues --   -0.21063  -0.20899
 Alpha virt. eigenvalues --   -0.08739  -0.08544  -0.01629  -0.01521   0.00024
 Alpha virt. eigenvalues --    0.00176   0.02256   0.02423   0.03309   0.03416
 Alpha virt. eigenvalues --    0.04782   0.04947   0.05217   0.05330   0.06234

 Mulliken charges:
               1
     1  Mg   0.839862
     2  C   -0.002578
     3  C   -0.093695
     4  C   -0.045933
     5  C   -0.064138
     6  N   -0.256751
     7  C   -0.052295
     8  C   -0.014188
     9  C   -0.087073
    10  C    0.046626
    11  C    0.104903
    12  C    0.053328
    13  C   -0.071664
    14  H    0.036081
    15  N   -0.433088
    16  C    0.168863
    17  C   -0.176782
    18  C   -0.003810
    19  C    0.148972
    20  C    0.110183
    21  C    0.012604
    22  O   -0.250083
    23  C    0.062197
    24  N   -0.341167
    25  C    0.041290
    26  C   -0.028098
    27  C   -0.023883
    28  C    0.074873
    29  C    0.076339
    30  C    0.035218
    31  C   -0.004456
    32  N   -0.310422
    33  C    0.080479
    34  C   -0.169842
    35  C    0.008208
    36  C    0.083225
    37  C    0.127321
    38  C    0.046158
    39  O   -0.188941
    40  C   -0.005411
    41  C    0.212642
    42  O   -0.256207
    43  O   -0.305059
    44  C    0.157783
    45  H   -0.017825
    46  H   -0.017174
    47  H   -0.041926
    48  H    0.000505
    49  H   -0.003896
    50  H    0.025212
    51  H    0.016259
    52  H    0.016320
    53  H    0.012217
    54  H    0.044780
    55  H    0.017205
    56  H    0.018012
    57  H    0.005787
    58  H    0.026333
    59  H    0.040652
    60  H    0.036966
    61  H    0.035349
    62  H    0.032793
    63  H    0.016396
    64  H    0.009051
    65  H    0.022832
    66  H    0.012457
    67  H    0.004401
    68  H    0.005799
    69  H    0.004465
    70  H    0.008560
    71  H    0.017858
    72  H    0.029806
    73  H    0.047447
    74  H    0.008851
    75  H    0.045561
    76  H    0.034707
    77  H    0.042324
    78  H    0.046319
    79  H    0.054004
    80  Mg   0.838316
    81  C   -0.016671
    82  C   -0.087782
    83  C   -0.045452
    84  C   -0.064846
    85  N   -0.254570
    86  C   -0.049782
    87  C   -0.015143
    88  C   -0.090525
    89  C    0.045854
    90  C    0.114426
    91  C    0.062486
    92  C   -0.077901
    93  H    0.035073
    94  N   -0.423476
    95  C    0.163045
    96  C   -0.174642
    97  C   -0.007756
    98  C    0.152178
    99  C    0.099400
   100  C    0.015653
   101  O   -0.253201
   102  C    0.061150
   103  N   -0.350076
   104  C    0.037500
   105  C   -0.019804
   106  C   -0.034850
   107  C    0.088973
   108  C    0.073710
   109  C    0.034723
   110  C   -0.007693
   111  N   -0.324142
   112  C    0.078579
   113  C   -0.162909
   114  C    0.002091
   115  C    0.096479
   116  C    0.131405
   117  C    0.042632
   118  O   -0.188488
   119  C    0.000837
   120  C    0.210967
   121  O   -0.250143
   122  O   -0.305882
   123  C    0.152055
   124  H   -0.019785
   125  H   -0.015606
   126  H   -0.040423
   127  H   -0.000909
   128  H   -0.004312
   129  H    0.022278
   130  H    0.014375
   131  H    0.016128
   132  H    0.014166
   133  H    0.038080
   134  H    0.020436
   135  H    0.019594
   136  H    0.008703
   137  H    0.026013
   138  H    0.039948
   139  H    0.038132
   140  H    0.036393
   141  H    0.034095
   142  H    0.014483
   143  H    0.012270
   144  H    0.025084
   145  H    0.011525
   146  H    0.005549
   147  H    0.006118
   148  H    0.003706
   149  H    0.010889
   150  H    0.018159
   151  H    0.030365
   152  H    0.046069
   153  H    0.008746
   154  H    0.046556
   155  H    0.034649
   156  H    0.043146
   157  H    0.049506
   158  H    0.054079
 Sum of Mulliken charges =  -0.00000

 Dipole moment (field-independent basis, Debye):
    X=              2.0639    Y=              2.8156    Z=             -3.3526  Tot=              4.8402
 Quadrupole moment (field-independent basis, Debye-Ang):
   XX=           -433.6430   YY=           -463.9864   ZZ=           -530.1960
   XY=             26.0737   XZ=             26.9884   YZ=            -20.2544

 Normal termination of Gaussian 16 at Sun Sep 12 00:26:19 2021.
