 Gaussian 16, Revision A.03,
 Gaussian 16:  ES64L-G16RevA.03 25-Dec-2016

 -----------------------------------
 #p cam-b3lyp/Def2SVP td=(nstates=5)
 -----------------------------------

 --------------------------------
 TDDFT excited states in gaussian
 --------------------------------
 Symbolic Z-matrix:
 Charge =  0 Multiplicity = 1

                         Standard orientation:
 ---------------------------------------------------------------------
 Center     Atomic      Atomic             Coordinates (Angstroms)
 Number     Number       Type             X           Y           Z
 ---------------------------------------------------------------------
      1         12           0        5.573543    0.255303    0.402204
      2          6           0        5.648834   -2.925426   -1.237767
      3          6           0        6.605881    1.632063   -2.544298
      4          6           0        5.952089    3.000988    1.943159
      5          6           0        5.658595   -1.469057    3.429581
      6          7           0        6.033264   -0.637070   -1.570857
      7          6           0        5.964612   -1.861010   -2.085085
      8          6           0        6.186005   -1.896688   -3.626866
      9          6           0        7.018081   -0.546856   -3.792995
     10          6           0        6.496543    0.210280   -2.584415
     11          6           0        8.523883   -0.736775   -3.641363
     12          6           0        4.838544   -1.840666   -4.422443
     13          6           0        4.941654   -2.197489   -5.908175
     14          1           0        3.842145   -2.916721   -6.533582
     15          7           0        5.712510    2.101989   -0.285757
     16          6           0        6.136691    2.478053   -1.516177
     17          6           0        6.057570    3.954469   -1.540956
     18          6           0        5.733780    4.415988   -0.162459
     19          6           0        5.813364    3.177107    0.568443
     20          6           0        6.230502    4.766930   -2.787452
     21          6           0        5.415131    5.761893    0.407747
     22          8           0        5.392941    5.978974    1.667492
     23          6           0        5.213896    6.854797   -0.560813
     24          7           0        5.998164    0.719825    2.392569
     25          6           0        6.050252    1.989884    2.808768
     26          6           0        6.085351    2.072805    4.306043
     27          6           0        5.800145    0.594295    4.837472
     28          6           0        5.727787   -0.136654    3.474113
     29          6           0        7.394557    2.591059    4.917112
     30          6           0        4.624901    0.418908    5.831686
     31          6           0        3.313884    0.695964    5.130563
     32          7           0        5.463694   -1.820666    1.026167
     33          6           0        5.541933   -2.312277    2.337224
     34          6           0        5.528847   -3.784003    2.248227
     35          6           0        5.460172   -4.048114    0.881708
     36          6           0        5.458617   -2.819546    0.161353
     37          6           0        5.635518   -4.686092    3.343348
     38          6           0        5.412597   -5.082779   -0.138616
     39          8           0        5.296238   -6.309065   -0.125324
     40          6           0        5.655750   -4.399850   -1.556470
     41          6           0        4.604360   -4.920648   -2.498094
     42          8           0        3.400677   -4.634866   -2.334261
     43          8           0        5.198843   -5.469752   -3.568430
     44          6           0        4.211050   -5.979942   -4.556420
     45          1           0        7.151081    2.142198   -3.340828
     46          1           0        5.974386    3.927173    2.521191
     47          1           0        5.597210   -2.072858    4.336835
     48          1           0        6.774439   -2.742857   -3.982066
     49          1           0        6.759310   -0.019660   -4.711049
     50          1           0        8.767083   -1.748009   -3.315508
     51          1           0        8.834813   -0.009821   -2.890794
     52          1           0        9.043505   -0.460663   -4.559258
     53          1           0        4.511473   -0.804028   -4.502870
     54          1           0        4.085643   -2.473373   -3.951119
     55          1           0        5.892616   -2.679228   -6.137318
     56          1           0        4.962489   -1.270567   -6.481396
     57          1           0        6.621867    4.165094   -3.606702
     58          1           0        7.015736    5.495397   -2.586322
     59          1           0        5.313505    5.283699   -3.070996
     60          1           0        6.114821    6.972045   -1.163421
     61          1           0        4.907419    7.721732    0.023435
     62          1           0        4.418049    6.572976   -1.250852
     63          1           0        5.310999    2.741974    4.678895
     64          1           0        6.658457    0.176235    5.363970
     65          1           0        7.263913    3.465137    5.555567
     66          1           0        8.086541    2.801894    4.102251
     67          1           0        7.954388    1.853396    5.491445
     68          1           0        4.709297    1.134777    6.648604
     69          1           0        4.575975   -0.578591    6.268552
     70          1           0        3.234240    1.781188    5.183252
     71          1           0        2.490085    0.217803    5.661533
     72          1           0        3.361050    0.423518    4.076032
     73          1           0        4.898121   -5.469011    3.166562
     74          1           0        5.456576   -4.180282    4.291894
     75          1           0        6.668777   -5.015146    3.234002
     76          1           0        6.661041   -4.678905   -1.870540
     77          1           0        4.439245   -7.032562   -4.724208
     78          1           0        4.256511   -5.309307   -5.414667
     79          1           0        3.177414   -6.045355   -4.214869
     80         12           0       -4.998296    0.834193    0.116705
     81          6           0       -7.636440   -1.596514    0.221207
     82          6           0       -7.019874    2.722808   -1.878522
     83          6           0       -2.538788    2.780219   -0.364096
     84          6           0       -2.820373   -1.690286    1.131289
     85          7           0       -7.042706    0.499446   -0.658278
     86          6           0       -7.970774   -0.432531   -0.501847
     87          6           0       -9.359262   -0.062502   -1.088986
     88          6           0       -8.879267    1.009118   -2.184480
     89          6           0       -7.582573    1.471049   -1.522769
     90          6           0       -8.534639    0.384776   -3.526410
     91          6           0      -10.304660    0.591765   -0.021190
     92          6           0      -11.773036    0.694963   -0.439486
     93          1           0      -12.801667    0.523483    0.582751
     94          7           0       -4.951173    2.706111   -0.540750
     95          6           0       -5.865877    3.317299   -1.322440
     96          6           0       -5.360992    4.681638   -1.541089
     97          6           0       -3.993583    4.774346   -0.961164
     98          6           0       -3.761512    3.387585   -0.610243
     99          6           0       -6.188400    5.764257   -2.170984
    100          6           0       -3.045892    5.919174   -0.767648
    101          8           0       -1.815936    5.730553   -0.460324
    102          6           0       -3.576785    7.262893   -1.039778
    103          7           0       -2.940533    0.538819    0.142901
    104          6           0       -2.092382    1.564816   -0.046573
    105          6           0       -0.674087    1.169102    0.288452
    106          6           0       -0.780845   -0.270739    0.976242
    107          6           0       -2.300281   -0.507671    0.832804
    108          6           0        0.293414    1.098087   -0.892773
    109          6           0       -0.137453   -0.429046    2.381113
    110          6           0       -0.901771    0.392289    3.394325
    111          7           0       -5.190751   -1.215192    0.773261
    112          6           0       -4.147704   -2.099581    1.125397
    113          6           0       -4.764018   -3.415451    1.392002
    114          6           0       -6.130979   -3.209505    1.152234
    115          6           0       -6.348478   -1.865777    0.744080
    116          6           0       -4.066742   -4.603026    1.752001
    117          6           0       -7.438034   -3.826097    1.141327
    118          8           0       -7.884545   -4.921673    1.479061
    119          6           0       -8.454584   -2.842854    0.415883
    120          6           0       -9.691392   -2.743381    1.266121
    121          8           0       -9.642055   -2.224731    2.395365
    122          8           0      -10.763708   -3.076407    0.524774
    123          6           0      -12.016094   -2.982365    1.321322
    124          1           0       -7.480350    3.286757   -2.690189
    125          1           0       -1.667922    3.438304   -0.408897
    126          1           0       -2.221417   -2.503197    1.547346
    127          1           0       -9.880676   -0.880095   -1.572154
    128          1           0       -9.581901    1.834557   -2.263899
    129          1           0       -8.556409   -0.694142   -3.486269
    130          1           0       -7.539083    0.734427   -3.766535
    131          1           0       -9.190050    0.782353   -4.306596
    132          1           0      -10.059549    1.657861    0.068754
    133          1           0      -10.231659    0.078427    0.917847
    134          1           0      -11.996176    0.075811   -1.316880
    135          1           0      -11.967059    1.716345   -0.775868
    136          1           0       -7.089709    5.357061   -2.645565
    137          1           0       -5.603296    6.170678   -3.003061
    138          1           0       -6.423374    6.573150   -1.475883
    139          1           0       -3.929843    7.310447   -2.067183
    140          1           0       -2.779614    7.954280   -0.759837
    141          1           0       -4.449630    7.430598   -0.398973
    142          1           0       -0.235136    1.863878    0.993930
    143          1           0       -0.283721   -1.046887    0.375992
    144          1           0        1.180961    1.747072   -0.769634
    145          1           0       -0.246987    1.359669   -1.792817
    146          1           0        0.663804    0.101540   -1.127078
    147          1           0        0.884536   -0.042182    2.375377
    148          1           0       -0.090313   -1.458201    2.721107
    149          1           0       -0.476691    1.393003    3.271978
    150          1           0       -0.734148    0.012518    4.400168
    151          1           0       -1.964500    0.451246    3.132073
    152          1           0       -4.634640   -5.068829    2.546367
    153          1           0       -3.047591   -4.386232    2.065198
    154          1           0       -4.098108   -5.143194    0.801992
    155          1           0       -8.667398   -3.260044   -0.569127
    156          1           0      -12.509378   -3.957180    1.257367
    157          1           0      -12.564742   -2.112506    0.913767
    158          1           0      -11.919973   -2.863953    2.394252
 ---------------------------------------------------------------------

 SCF Done:  E(RCAM-B3LYP) =  -4069.81248367     A.U. after   19 cycles

 Excitation energies and oscillator strengths:

 Excited State   1:      Singlet-A      1.6541 eV  749.57 nm  f=0.0040  <S**2>=0.000
     309 -> 315       -0.11208
     310 -> 316        0.12548
     311 -> 313       -0.45591
     312 -> 314        0.51428
 This state for optimization and/or second-order correction.
 Total Energy, E(TD-HF/TD-DFT) =  -4069.75169804
 Copying the excited state density for this state as the 1-particle RhoCI density.

 Excited State   2:      Singlet-A      1.6980 eV  730.16 nm  f=0.7066  <S**2>=0.000
     309 -> 315        0.13486
     310 -> 316        0.11824
     311 -> 313        0.51239
     312 -> 314        0.45417

 Excited State   3:      Singlet-A      2.1840 eV  567.69 nm  f=0.1069  <S**2>=0.000
     310 -> 314        0.63974
     312 -> 316       -0.27002

 Excited State   4:      Singlet-A      2.1964 eV  564.49 nm  f=0.0952  <S**2>=0.000
     309 -> 313        0.63713
     311 -> 315       -0.27844

 Excited State   5:      Singlet-A      2.4666 eV  502.66 nm  f=0.0000  <S**2>=0.000
     312 -> 313        0.70640

 The electronic state is 1-A.
 Alpha  occ. eigenvalues --  -46.87899 -46.87472 -19.26374 -19.26218 -19.19132
 Alpha  occ. eigenvalues --  -19.19021 -19.18754 -19.18581 -19.18238 -19.17877
 Alpha  occ. eigenvalues --  -14.42532 -14.42314 -14.41540 -14.41157 -14.39480
 Alpha  occ. eigenvalues --  -14.39170 -14.38685 -14.38406 -10.39186 -10.38948
 Alpha  occ. eigenvalues --  -10.35380 -10.35263 -10.34463 -10.34054 -10.31751
 Alpha  occ. eigenvalues --  -10.31641 -10.31496 -10.31122 -10.30970 -10.30866
 Alpha  occ. eigenvalues --  -10.30659 -10.30586 -10.30271 -10.30200 -10.30162
 Alpha  occ. eigenvalues --  -10.30012 -10.29928 -10.29687 -10.29680 -10.29310
 Alpha  occ. eigenvalues --  -10.29249 -10.29210 -10.28818 -10.28602 -10.28579
 Alpha  occ. eigenvalues --  -10.28549 -10.28435 -10.28233 -10.28184 -10.27995
 Alpha  occ. eigenvalues --  -10.27853 -10.27814 -10.27800 -10.27625 -10.27589
 Alpha  occ. eigenvalues --  -10.27522 -10.27488 -10.27480 -10.27459 -10.27342
 Alpha  occ. eigenvalues --  -10.27302 -10.27289 -10.27238 -10.27210 -10.27148
 Alpha  occ. eigenvalues --  -10.26886 -10.26786 -10.26568 -10.26328 -10.26315
 Alpha  occ. eigenvalues --  -10.26291 -10.26238 -10.26103 -10.25919 -10.25893
 Alpha  occ. eigenvalues --  -10.25861 -10.25695 -10.25550 -10.25480 -10.25220
 Alpha  occ. eigenvalues --  -10.24908 -10.24902 -10.24858 -10.24684 -10.24503
 Alpha  occ. eigenvalues --  -10.24494  -3.16641  -3.16222  -1.91523  -1.91108
 Alpha  occ. eigenvalues --   -1.91104  -1.90950  -1.90693  -1.90530  -1.16725
 Alpha  occ. eigenvalues --   -1.16510  -1.08701  -1.08486  -1.07148  -1.06838
 Alpha  occ. eigenvalues --   -1.06805  -1.06750  -1.04659  -1.04317  -1.03841
 Alpha  occ. eigenvalues --   -1.03473  -1.03313  -1.02839  -1.02492  -1.01918
 Alpha  occ. eigenvalues --   -0.92050  -0.91805  -0.89614  -0.89269  -0.89260
 Alpha  occ. eigenvalues --   -0.88998  -0.88373  -0.87998  -0.87943  -0.87745
 Alpha  occ. eigenvalues --   -0.87574  -0.87496  -0.87273  -0.86968  -0.85044
 Alpha  occ. eigenvalues --   -0.84842  -0.84034  -0.83661  -0.82954  -0.82785
 Alpha  occ. eigenvalues --   -0.82675  -0.82498  -0.81660  -0.81427  -0.80653
 Alpha  occ. eigenvalues --   -0.80274  -0.78828  -0.78458  -0.77290  -0.77011
 Alpha  occ. eigenvalues --   -0.76966  -0.76722  -0.75992  -0.75675  -0.74973
 Alpha  occ. eigenvalues --   -0.74610  -0.72848  -0.72497  -0.71741  -0.71400
 Alpha  occ. eigenvalues --   -0.70024  -0.69519  -0.68928  -0.68667  -0.67695
 Alpha  occ. eigenvalues --   -0.67423  -0.67256  -0.67059  -0.65362  -0.65113
 Alpha  occ. eigenvalues --   -0.64933  -0.64696  -0.64578  -0.64479  -0.64358
 Alpha  occ. eigenvalues --   -0.63982  -0.62381  -0.62107  -0.60470  -0.60168
 Alpha  occ. eigenvalues --   -0.59873  -0.59633  -0.59062  -0.58801  -0.58575
 Alpha  occ. eigenvalues --   -0.58240  -0.57666  -0.57383  -0.57372  -0.57045
 Alpha  occ. eigenvalues --   -0.56363  -0.56052  -0.56016  -0.55735  -0.55537
 Alpha  occ. eigenvalues --   -0.55427  -0.55297  -0.55043  -0.54616  -0.54293
 Alpha  occ. eigenvalues --   -0.53964  -0.53763  -0.53355  -0.53238  -0.53049
 Alpha  occ. eigenvalues --   -0.52992  -0.52976  -0.52745  -0.52737  -0.52558
 Alpha  occ. eigenvalues --   -0.52538  -0.52159  -0.51992  -0.51653  -0.51638
 Alpha  occ. eigenvalues --   -0.51513  -0.51277  -0.51011  -0.50529  -0.50342
 Alpha  occ. eigenvalues --   -0.50107  -0.49928  -0.49827  -0.49680  -0.49539
 Alpha  occ. eigenvalues --   -0.49339  -0.49262  -0.49153  -0.49042  -0.48932
 Alpha  occ. eigenvalues --   -0.48664  -0.48530  -0.48431  -0.48392  -0.48197
 Alpha  occ. eigenvalues --   -0.48170  -0.47744  -0.47425  -0.47337  -0.46947
 Alpha  occ. eigenvalues --   -0.46880  -0.46617  -0.46511  -0.46432  -0.46398
 Alpha  occ. eigenvalues --   -0.46244  -0.46074  -0.45900  -0.45881  -0.45627
 Alpha  occ. eigenvalues --   -0.45278  -0.45025  -0.44654  -0.44537  -0.44361
 Alpha  occ. eigenvalues --   -0.44290  -0.44220  -0.44150  -0.44034  -0.43970
 Alpha  occ. eigenvalues --   -0.43888  -0.43787  -0.43570  -0.43455  -0.43382
 Alpha  occ. eigenvalues --   -0.43214  -0.43099  -0.42790  -0.42774  -0.42761
 Alpha  occ. eigenvalues --   -0.42708  -0.42348  -0.42107  -0.41777  -0.41764
 Alpha  occ. eigenvalues --   -0.41600  -0.41490  -0.41291  -0.41206  -0.40952
 Alpha  occ. eigenvalues --   -0.40819  -0.40787  -0.40658  -0.40589  -0.40527
 Alpha  occ. eigenvalues --   -0.40284  -0.40272  -0.40099  -0.39568  -0.39170
 Alpha  occ. eigenvalues --   -0.38554  -0.38143  -0.37820  -0.37507  -0.37403
 Alpha  occ. eigenvalues --   -0.37336  -0.37056  -0.37026  -0.36808  -0.36614
 Alpha  occ. eigenvalues --   -0.36281  -0.36021  -0.34369  -0.34063  -0.33878
 Alpha  occ. eigenvalues --   -0.33713  -0.33266  -0.32982  -0.31299  -0.31139
 Alpha  occ. eigenvalues --   -0.31097  -0.30788  -0.30102  -0.29781  -0.29497
 Alpha  occ. eigenvalues --   -0.29392  -0.29155  -0.29018  -0.24165  -0.23842
 Alpha  occ. eigenvalues --   -0.21202  -0.20926
 Alpha virt. eigenvalues --   -0.08834  -0.08607  -0.01822  -0.01506  -0.00070
 Alpha virt. eigenvalues --    0.00124   0.02126   0.02315   0.02477   0.03409
 Alpha virt. eigenvalues --    0.04637   0.04896   0.04996   0.05311   0.06060

 Mulliken charges:
               1
     1  Mg   0.831404
     2  C   -0.002997
     3  C   -0.093165
     4  C   -0.045381
     5  C   -0.063902
     6  N   -0.256565
     7  C   -0.053304
     8  C   -0.013710
     9  C   -0.087087
    10  C    0.046273
    11  C    0.104730
    12  C    0.053193
    13  C   -0.071934
    14  H    0.036199
    15  N   -0.434348
    16  C    0.168590
    17  C   -0.176391
    18  C   -0.003135
    19  C    0.148403
    20  C    0.110163
    21  C    0.014603
    22  O   -0.248834
    23  C    0.061564
    24  N   -0.340548
    25  C    0.040421
    26  C   -0.028497
    27  C   -0.024371
    28  C    0.073873
    29  C    0.076124
    30  C    0.035856
    31  C   -0.010120
    32  N   -0.310393
    33  C    0.078778
    34  C   -0.170794
    35  C    0.008206
    36  C    0.081365
    37  C    0.127525
    38  C    0.045460
    39  O   -0.188401
    40  C   -0.005343
    41  C    0.213298
    42  O   -0.258651
    43  O   -0.304508
    44  C    0.157556
    45  H   -0.017294
    46  H   -0.016143
    47  H   -0.041887
    48  H    0.001087
    49  H   -0.003687
    50  H    0.025617
    51  H    0.016634
    52  H    0.016962
    53  H    0.011397
    54  H    0.043162
    55  H    0.018104
    56  H    0.018289
    57  H    0.005650
    58  H    0.027091
    59  H    0.041608
    60  H    0.036185
    61  H    0.037043
    62  H    0.034963
    63  H    0.017079
    64  H    0.009868
    65  H    0.023829
    66  H    0.012817
    67  H    0.004937
    68  H    0.007493
    69  H    0.004751
    70  H    0.010733
    71  H    0.018637
    72  H    0.029842
    73  H    0.046993
    74  H    0.008891
    75  H    0.046389
    76  H    0.035532
    77  H    0.043395
    78  H    0.046587
    79  H    0.053529
    80  Mg   0.837664
    81  C   -0.017263
    82  C   -0.088285
    83  C   -0.045588
    84  C   -0.063210
    85  N   -0.254613
    86  C   -0.049701
    87  C   -0.015126
    88  C   -0.090430
    89  C    0.045685
    90  C    0.114537
    91  C    0.062612
    92  C   -0.077651
    93  H    0.034512
    94  N   -0.423293
    95  C    0.162648
    96  C   -0.175348
    97  C   -0.008442
    98  C    0.151958
    99  C    0.099684
   100  C    0.015033
   101  O   -0.253801
   102  C    0.061270
   103  N   -0.350047
   104  C    0.037311
   105  C   -0.020303
   106  C   -0.037935
   107  C    0.088524
   108  C    0.065187
   109  C    0.032810
   110  C   -0.007954
   111  N   -0.324269
   112  C    0.078193
   113  C   -0.162338
   114  C    0.002111
   115  C    0.096483
   116  C    0.131712
   117  C    0.042602
   118  O   -0.187843
   119  C    0.000881
   120  C    0.211194
   121  O   -0.251184
   122  O   -0.305636
   123  C    0.152138
   124  H   -0.020479
   125  H   -0.016168
   126  H   -0.036985
   127  H   -0.000850
   128  H   -0.004781
   129  H    0.022443
   130  H    0.014335
   131  H    0.015646
   132  H    0.013853
   133  H    0.037643
   134  H    0.020641
   135  H    0.019344
   136  H    0.008392
   137  H    0.025051
   138  H    0.039261
   139  H    0.037493
   140  H    0.035671
   141  H    0.034076
   142  H    0.014263
   143  H    0.019935
   144  H    0.028161
   145  H    0.010570
   146  H    0.013111
   147  H    0.007863
   148  H    0.006396
   149  H    0.011328
   150  H    0.016939
   151  H    0.029281
   152  H    0.045386
   153  H    0.010586
   154  H    0.048474
   155  H    0.034895
   156  H    0.043733
   157  H    0.049275
   158  H    0.053440
 Sum of Mulliken charges =  -0.00000

 Dipole moment (field-independent basis, Debye):
    X=              1.5028    Y=              5.8391    Z=             -5.9446  Tot=              8.4671
 Quadrupole moment (field-independent basis, Debye-Ang):
   XX=           -458.3398   YY=           -550.1424   ZZ=           -471.8299
   XY=            -28.7692   XZ=             15.9634   YZ=            -11.6418

 Normal termination of Gaussian 16 at Sat Sep 11 01:59:50 2021.
