 Gaussian 16, Revision A.03,
 Gaussian 16:  ES64L-G16RevA.03 25-Dec-2016

 -----------------------------------
 #p cam-b3lyp/Def2SVP td=(nstates=5)
 -----------------------------------

 --------------------------------
 TDDFT excited states in gaussian
 --------------------------------
 Symbolic Z-matrix:
 Charge =  0 Multiplicity = 1

                         Standard orientation:
 ---------------------------------------------------------------------
 Center     Atomic      Atomic             Coordinates (Angstroms)
 Number     Number       Type             X           Y           Z
 ---------------------------------------------------------------------
      1         12           0       -3.794034   -0.976706    0.255509
      2          6           0       -4.122135    1.801923    2.487948
      3          6           0       -4.981146    1.057682   -2.213315
      4          6           0       -3.943585   -3.526518   -1.624043
      5          6           0       -3.728921   -3.037201    3.065453
      6          7           0       -4.434013    1.142504    0.260123
      7          6           0       -4.454426    2.113622    1.167693
      8          6           0       -4.789527    3.512233    0.568555
      9          6           0       -5.574425    3.044824   -0.738144
     10          6           0       -4.934533    1.681295   -0.931143
     11          6           0       -7.071679    2.857636   -0.515222
     12          6           0       -3.502843    4.326408    0.203460
     13          6           0       -3.729390    5.814500   -0.078700
     14          1           0       -2.709687    6.768166    0.331268
     15          7           0       -3.905787   -1.113124   -1.712168
     16          6           0       -4.402930   -0.182179   -2.561566
     17          6           0       -4.264231   -0.753134   -3.918568
     18          6           0       -3.821277   -2.167693   -3.773961
     19          6           0       -3.898758   -2.335756   -2.345280
     20          6           0       -4.493970    0.036143   -5.170770
     21          6           0       -3.405746   -3.206796   -4.766800
     22          8           0       -3.282231   -4.439277   -4.450087
     23          6           0       -3.230564   -2.752962   -6.158342
     24          7           0       -4.051850   -3.011997    0.641203
     25          6           0       -4.020190   -3.911285   -0.348374
     26          6           0       -3.941955   -5.310145    0.187357
     27          6           0       -3.680578   -5.168695    1.756251
     28          6           0       -3.738943   -3.625127    1.866991
     29          6           0       -5.180054   -6.186679   -0.046757
     30          6           0       -2.443978   -5.903251    2.332158
     31          6           0       -1.177452   -5.267915    1.803616
     32          7           0       -3.725565   -0.691307    2.406068
     33          6           0       -3.727966   -1.690832    3.389744
     34          6           0       -3.782931   -1.010530    4.696739
     35          6           0       -3.825695    0.345840    4.380075
     36          6           0       -3.825622    0.501949    2.964475
     37          6           0       -3.846638   -1.649131    5.966606
     38          6           0       -3.896299    1.698693    4.907959
     39          8           0       -3.830608    2.194838    6.033578
     40          6           0       -4.213979    2.690627    3.703396
     41          6           0       -3.257111    3.847284    3.802669
     42          8           0       -2.033772    3.683131    3.618653
     43          8           0       -3.950865    4.994353    3.861676
     44          6           0       -3.060322    6.183542    3.931802
     45          1           0       -5.561474    1.529218   -3.008811
     46          1           0       -3.884744   -4.430759   -2.233406
     47          1           0       -3.626480   -3.612021    3.987700
     48          1           0       -5.437247    4.129939    1.190907
     49          1           0       -5.361843    3.687492   -1.592258
     50          1           0       -7.332372    2.951808    0.538861
     51          1           0       -7.296118    1.853172   -0.874628
     52          1           0       -7.645192    3.536863   -1.146498
     53          1           0       -3.139528    4.005665   -0.772853
     54          1           0       -2.744511    4.218005    0.979673
     55          1           0       -4.713882    6.138946    0.259560
     56          1           0       -3.753444    5.957481   -1.159060
     57          1           0       -4.969130    0.993266   -4.959387
     58          1           0       -5.231231   -0.508886   -5.759921
     59          1           0       -3.579437    0.161044   -5.750736
     60          1           0       -4.167548   -2.328020   -6.518945
     61          1           0       -2.846140   -3.611168   -6.708387
     62          1           0       -2.499905   -1.943791   -6.176499
     63          1           0       -3.115081   -5.856352   -0.264708
     64          1           0       -4.514704   -5.549830    2.345864
     65          1           0       -4.966566   -7.111871   -0.582620
     66          1           0       -5.920490   -5.589130   -0.577775
     67          1           0       -5.726609   -6.456360    0.856553
     68          1           0       -2.438291   -6.944552    2.011837
     69          1           0       -2.404876   -5.891130    3.421458
     70          1           0       -1.048895   -5.750292    0.835309
     71          1           0       -0.337646   -5.487452    2.463723
     72          1           0       -1.313123   -4.201728    1.621068
     73          1           0       -3.157534   -1.108133    6.615008
     74          1           0       -3.577679   -2.702689    5.893944
     75          1           0       -4.897974   -1.502651    6.213776
     76          1           0       -5.250364    3.005388    3.821523
     77          1           0       -3.343975    6.744909    4.822108
     78          1           0       -3.140512    6.687947    2.968708
     79          1           0       -2.008070    5.986180    4.139531
     80         12           0        4.097260   -0.281555   -0.154707
     81          6           0        2.957809    1.993255   -2.685711
     82          6           0        5.683291    2.365228    1.299130
     83          6           0        5.483611   -2.330889    1.831664
     84          6           0        3.406768   -2.878385   -2.374022
     85          7           0        4.228759    1.854153   -0.714830
     86          6           0        3.704042    2.615437   -1.663228
     87          6           0        3.928069    4.138346   -1.462988
     88          6           0        5.241749    4.069102   -0.541946
     89          6           0        5.028325    2.692925    0.085154
     90          6           0        6.534831    4.035211   -1.339518
     91          6           0        2.734323    4.824222   -0.710283
     92          6           0        2.741176    6.353905   -0.752688
     93          1           0        1.461721    7.053893   -0.826622
     94          7           0        4.977190    0.023923    1.597712
     95          6           0        5.548189    1.166484    2.033364
     96          6           0        6.071074    0.868538    3.375742
     97          6           0        5.907590   -0.588620    3.630056
     98          6           0        5.459024   -1.035039    2.326373
     99          6           0        6.582138    1.931519    4.304337
    100          6           0        6.131728   -1.441429    4.841949
    101          8           0        6.153870   -2.720958    4.770164
    102          6           0        6.417327   -0.733192    6.098258
    103          7           0        4.601737   -2.291008   -0.327747
    104          6           0        5.147987   -2.957982    0.704088
    105          6           0        5.169041   -4.445101    0.442495
    106          6           0        4.299312   -4.660664   -0.882158
    107          6           0        3.986536   -3.186896   -1.222139
    108          6           0        6.551918   -5.067141    0.249877
    109          6           0        3.118096   -5.665346   -0.792766
    110          6           0        2.047736   -5.123018    0.126801
    111          7           0        3.155310   -0.464058   -2.090547
    112          6           0        2.993775   -1.641662   -2.852931
    113          6           0        2.400703   -1.244937   -4.146490
    114          6           0        2.278671    0.149780   -4.055153
    115          6           0        2.780240    0.593343   -2.801680
    116          6           0        2.097366   -2.121402   -5.226265
    117          6           0        1.849395    1.348837   -4.738306
    118          8           0        1.263708    1.584528   -5.794317
    119          6           0        2.386557    2.609281   -3.932633
    120          6           0        1.248376    3.580173   -3.776346
    121          8           0        0.252946    3.282422   -3.092920
    122          8           0        1.616100    4.774287   -4.275590
    123          6           0        0.524081    5.773845   -4.133555
    124          1           0        6.402018    3.075393    1.708984
    125          1           0        5.851015   -3.092678    2.523165
    126          1           0        3.071078   -3.640045   -3.081037
    127          1           0        4.139455    4.689705   -2.371339
    128          1           0        5.229779    4.842220    0.221933
    129          1           0        6.351893    3.943763   -2.399858
    130          1           0        7.083035    3.176468   -0.974735
    131          1           0        7.148428    4.908414   -1.100068
    132          1           0        2.853279    4.665657    0.369275
    133          1           0        1.793928    4.456897   -1.072739
    134          1           0        3.435858    6.742216   -1.507395
    135          1           0        3.139417    6.725524    0.194582
    136          1           0        6.733357    2.883841    3.781247
    137          1           0        7.588358    1.628897    4.613879
    138          1           0        5.959189    2.049015    5.193601
    139          1           0        7.304787   -0.117604    5.972089
    140          1           0        6.459332   -1.507207    6.867036
    141          1           0        5.587780   -0.049625    6.310895
    142          1           0        4.707348   -4.987817    1.258206
    143          1           0        4.908404   -5.051769   -1.710339
    144          1           0        6.762765   -5.890312    0.958406
    145          1           0        7.293917   -4.285356    0.343577
    146          1           0        6.749133   -5.454408   -0.748289
    147          1           0        3.455078   -6.608087   -0.354769
    148          1           0        2.674904   -5.897700   -1.755360
    149          1           0        2.410141   -5.404184    1.120135
    150          1           0        1.086974   -5.586260   -0.088541
    151          1           0        2.012113   -4.028137    0.086626
    152          1           0        1.124181   -1.830891   -5.599116
    153          1           0        2.107893   -3.161980   -4.908683
    154          1           0        2.924249   -1.890434   -5.903155
    155          1           0        3.212558    3.035251   -4.503458
    156          1           0        0.323667    6.172274   -5.132943
    157          1           0        0.872854    6.490348   -3.366264
    158          1           0       -0.456276    5.408387   -3.851067
 ---------------------------------------------------------------------

 SCF Done:  E(RCAM-B3LYP) =  -4069.81273976     A.U. after   18 cycles

 Excitation energies and oscillator strengths:

 Excited State   1:      Singlet-A      1.6375 eV  757.13 nm  f=0.0443  <S**2>=0.000
     309 -> 315        0.12147
     310 -> 316        0.10961
     311 -> 313        0.50924
     312 -> 314        0.46315
 This state for optimization and/or second-order correction.
 Total Energy, E(TD-HF/TD-DFT) =  -4069.75256100
 Copying the excited state density for this state as the 1-particle RhoCI density.

 Excited State   2:      Singlet-A      1.7106 eV  724.81 nm  f=0.6522  <S**2>=0.000
     309 -> 315       -0.12273
     310 -> 316        0.13481
     311 -> 313       -0.46006
     312 -> 314        0.50593

 Excited State   3:      Singlet-A      2.1793 eV  568.92 nm  f=0.0108  <S**2>=0.000
     309 -> 313        0.54577
     310 -> 314       -0.34590
     311 -> 315       -0.22516
     312 -> 316        0.14097

 Excited State   4:      Singlet-A      2.1977 eV  564.16 nm  f=0.1580  <S**2>=0.000
     309 -> 313        0.34078
     310 -> 314        0.53984
     311 -> 315       -0.15110
     312 -> 316       -0.23774

 Excited State   5:      Singlet-A      2.2839 eV  542.87 nm  f=0.0000  <S**2>=0.000
     312 -> 313        0.70685

 The electronic state is 1-A.
 Alpha  occ. eigenvalues --  -46.87528 -46.87318 -19.26527 -19.26050 -19.19335
 Alpha  occ. eigenvalues --  -19.18752 -19.18568 -19.18394 -19.18103 -19.17794
 Alpha  occ. eigenvalues --  -14.42362 -14.41967 -14.41237 -14.41006 -14.39214
 Alpha  occ. eigenvalues --  -14.38908 -14.38495 -14.38136 -10.39234 -10.38803
 Alpha  occ. eigenvalues --  -10.35241 -10.35019 -10.34279 -10.34019 -10.32014
 Alpha  occ. eigenvalues --  -10.31527 -10.31210 -10.30946 -10.30895 -10.30410
 Alpha  occ. eigenvalues --  -10.30289 -10.30260 -10.30104 -10.30082 -10.29983
 Alpha  occ. eigenvalues --  -10.29794 -10.29753 -10.29542 -10.29293 -10.29293
 Alpha  occ. eigenvalues --  -10.29189 -10.28762 -10.28608 -10.28582 -10.28303
 Alpha  occ. eigenvalues --  -10.28272 -10.28198 -10.28031 -10.27907 -10.27889
 Alpha  occ. eigenvalues --  -10.27652 -10.27537 -10.27382 -10.27365 -10.27344
 Alpha  occ. eigenvalues --  -10.27326 -10.27275 -10.27257 -10.27235 -10.27178
 Alpha  occ. eigenvalues --  -10.27163 -10.27106 -10.27082 -10.26958 -10.26800
 Alpha  occ. eigenvalues --  -10.26790 -10.26529 -10.26213 -10.26119 -10.25946
 Alpha  occ. eigenvalues --  -10.25937 -10.25912 -10.25902 -10.25845 -10.25825
 Alpha  occ. eigenvalues --  -10.25792 -10.25579 -10.25491 -10.25300 -10.25179
 Alpha  occ. eigenvalues --  -10.24796 -10.24580 -10.24487 -10.24452 -10.24388
 Alpha  occ. eigenvalues --  -10.24366  -3.16276  -3.16058  -1.91157  -1.90939
 Alpha  occ. eigenvalues --   -1.90747  -1.90584  -1.90526  -1.90369  -1.16816
 Alpha  occ. eigenvalues --   -1.16390  -1.08733  -1.08270  -1.07106  -1.06818
 Alpha  occ. eigenvalues --   -1.06804  -1.06375  -1.04371  -1.04102  -1.03538
 Alpha  occ. eigenvalues --   -1.03313  -1.02919  -1.02773  -1.01998  -1.01959
 Alpha  occ. eigenvalues --   -0.91922  -0.91547  -0.89367  -0.89151  -0.89037
 Alpha  occ. eigenvalues --   -0.88722  -0.88090  -0.87930  -0.87718  -0.87559
 Alpha  occ. eigenvalues --   -0.87447  -0.87199  -0.86969  -0.86752  -0.84890
 Alpha  occ. eigenvalues --   -0.84535  -0.83767  -0.83617  -0.82783  -0.82550
 Alpha  occ. eigenvalues --   -0.82517  -0.82218  -0.81612  -0.81243  -0.80385
 Alpha  occ. eigenvalues --   -0.80187  -0.78511  -0.78304  -0.77035  -0.76859
 Alpha  occ. eigenvalues --   -0.76798  -0.76556  -0.75789  -0.75531  -0.74716
 Alpha  occ. eigenvalues --   -0.74544  -0.72595  -0.72342  -0.71492  -0.71267
 Alpha  occ. eigenvalues --   -0.69737  -0.69473  -0.68726  -0.68439  -0.67513
 Alpha  occ. eigenvalues --   -0.67216  -0.67070  -0.66752  -0.65189  -0.64847
 Alpha  occ. eigenvalues --   -0.64708  -0.64578  -0.64457  -0.64243  -0.64082
 Alpha  occ. eigenvalues --   -0.63878  -0.62308  -0.61978  -0.60204  -0.59978
 Alpha  occ. eigenvalues --   -0.59687  -0.59342  -0.58903  -0.58575  -0.58360
 Alpha  occ. eigenvalues --   -0.58095  -0.57590  -0.57231  -0.57138  -0.56923
 Alpha  occ. eigenvalues --   -0.56141  -0.55902  -0.55887  -0.55650  -0.55392
 Alpha  occ. eigenvalues --   -0.55201  -0.55082  -0.55018  -0.54465  -0.54207
 Alpha  occ. eigenvalues --   -0.53804  -0.53437  -0.53133  -0.53083  -0.52889
 Alpha  occ. eigenvalues --   -0.52840  -0.52778  -0.52533  -0.52517  -0.52299
 Alpha  occ. eigenvalues --   -0.52238  -0.52113  -0.51850  -0.51547  -0.51535
 Alpha  occ. eigenvalues --   -0.51151  -0.51146  -0.50814  -0.50302  -0.50035
 Alpha  occ. eigenvalues --   -0.49858  -0.49756  -0.49629  -0.49451  -0.49385
 Alpha  occ. eigenvalues --   -0.49134  -0.49087  -0.49054  -0.48792  -0.48688
 Alpha  occ. eigenvalues --   -0.48532  -0.48326  -0.48231  -0.48210  -0.48122
 Alpha  occ. eigenvalues --   -0.48004  -0.47503  -0.47280  -0.47011  -0.46858
 Alpha  occ. eigenvalues --   -0.46615  -0.46468  -0.46383  -0.46189  -0.46129
 Alpha  occ. eigenvalues --   -0.46015  -0.45929  -0.45812  -0.45792  -0.45478
 Alpha  occ. eigenvalues --   -0.45124  -0.44828  -0.44487  -0.44368  -0.44219
 Alpha  occ. eigenvalues --   -0.44096  -0.44078  -0.43978  -0.43829  -0.43758
 Alpha  occ. eigenvalues --   -0.43705  -0.43594  -0.43577  -0.43299  -0.43156
 Alpha  occ. eigenvalues --   -0.42998  -0.42963  -0.42838  -0.42635  -0.42457
 Alpha  occ. eigenvalues --   -0.42410  -0.42296  -0.41851  -0.41657  -0.41601
 Alpha  occ. eigenvalues --   -0.41355  -0.41296  -0.41117  -0.40898  -0.40735
 Alpha  occ. eigenvalues --   -0.40601  -0.40556  -0.40467  -0.40376  -0.40365
 Alpha  occ. eigenvalues --   -0.40208  -0.40082  -0.39724  -0.39503  -0.38829
 Alpha  occ. eigenvalues --   -0.38229  -0.38096  -0.37552  -0.37319  -0.37154
 Alpha  occ. eigenvalues --   -0.37092  -0.36924  -0.36852  -0.36807  -0.36420
 Alpha  occ. eigenvalues --   -0.36121  -0.35827  -0.34166  -0.33968  -0.33843
 Alpha  occ. eigenvalues --   -0.33470  -0.33066  -0.32740  -0.31130  -0.30928
 Alpha  occ. eigenvalues --   -0.30864  -0.30597  -0.30016  -0.29663  -0.29218
 Alpha  occ. eigenvalues --   -0.29116  -0.28977  -0.28862  -0.23920  -0.23623
 Alpha  occ. eigenvalues --   -0.20995  -0.20664
 Alpha virt. eigenvalues --   -0.08680  -0.08304  -0.01553  -0.01300   0.00092
 Alpha virt. eigenvalues --    0.00413   0.02245   0.02572   0.02681   0.04569
 Alpha virt. eigenvalues --    0.04750   0.05036   0.05137   0.05391   0.05894

 Mulliken charges:
               1
     1  Mg   0.841701
     2  C   -0.002568
     3  C   -0.087463
     4  C   -0.047884
     5  C   -0.064778
     6  N   -0.256890
     7  C   -0.051684
     8  C   -0.014860
     9  C   -0.088298
    10  C    0.049512
    11  C    0.105011
    12  C    0.050933
    13  C   -0.069666
    14  H    0.030301
    15  N   -0.433482
    16  C    0.172751
    17  C   -0.172360
    18  C   -0.003651
    19  C    0.149719
    20  C    0.109737
    21  C    0.011278
    22  O   -0.252710
    23  C    0.059644
    24  N   -0.341166
    25  C    0.042263
    26  C   -0.029168
    27  C   -0.023975
    28  C    0.073773
    29  C    0.076881
    30  C    0.042382
    31  C   -0.019755
    32  N   -0.309976
    33  C    0.079235
    34  C   -0.171061
    35  C    0.007397
    36  C    0.082100
    37  C    0.127683
    38  C    0.044901
    39  O   -0.191149
    40  C   -0.005298
    41  C    0.212816
    42  O   -0.257813
    43  O   -0.304595
    44  C    0.158763
    45  H   -0.018228
    46  H   -0.018708
    47  H   -0.042984
    48  H   -0.001073
    49  H   -0.003109
    50  H    0.024621
    51  H    0.016113
    52  H    0.015616
    53  H    0.023953
    54  H    0.043347
    55  H    0.016189
    56  H    0.016868
    57  H    0.005830
    58  H    0.024197
    59  H    0.049646
    60  H    0.037277
    61  H    0.033217
    62  H    0.038793
    63  H    0.015221
    64  H    0.008792
    65  H    0.021718
    66  H    0.012733
    67  H    0.004293
    68  H    0.003802
    69  H    0.003310
    70  H    0.017029
    71  H    0.021751
    72  H    0.030562
    73  H    0.045958
    74  H    0.008428
    75  H    0.044880
    76  H    0.034295
    77  H    0.041697
    78  H    0.046320
    79  H    0.051645
    80  Mg   0.840176
    81  C   -0.017043
    82  C   -0.086546
    83  C   -0.045481
    84  C   -0.064433
    85  N   -0.254861
    86  C   -0.049037
    87  C   -0.015931
    88  C   -0.090994
    89  C    0.047326
    90  C    0.114439
    91  C    0.062131
    92  C   -0.077032
    93  H    0.032069
    94  N   -0.423677
    95  C    0.165109
    96  C   -0.173448
    97  C   -0.006815
    98  C    0.152925
    99  C    0.099391
   100  C    0.016465
   101  O   -0.253552
   102  C    0.060459
   103  N   -0.350086
   104  C    0.037918
   105  C   -0.020304
   106  C   -0.034209
   107  C    0.088044
   108  C    0.073890
   109  C    0.038670
   110  C   -0.013550
   111  N   -0.323821
   112  C    0.077615
   113  C   -0.163244
   114  C    0.000278
   115  C    0.096071
   116  C    0.132436
   117  C    0.040875
   118  O   -0.193040
   119  C    0.001377
   120  C    0.210423
   121  O   -0.251956
   122  O   -0.304857
   123  C    0.153334
   124  H   -0.019723
   125  H   -0.015697
   126  H   -0.039594
   127  H   -0.001958
   128  H   -0.003694
   129  H    0.021902
   130  H    0.014414
   131  H    0.016053
   132  H    0.018658
   133  H    0.037784
   134  H    0.019629
   135  H    0.020500
   136  H    0.008877
   137  H    0.025656
   138  H    0.042405
   139  H    0.037821
   140  H    0.036271
   141  H    0.036400
   142  H    0.014327
   143  H    0.012033
   144  H    0.024749
   145  H    0.011430
   146  H    0.005571
   147  H    0.004395
   148  H    0.004063
   149  H    0.010653
   150  H    0.020406
   151  H    0.029568
   152  H    0.040859
   153  H    0.012084
   154  H    0.046158
   155  H    0.034759
   156  H    0.042729
   157  H    0.050893
   158  H    0.049582
 Sum of Mulliken charges =  -0.00000

 Dipole moment (field-independent basis, Debye):
    X=              1.1806    Y=              3.2794    Z=             -1.8462  Tot=              3.9442
 Quadrupole moment (field-independent basis, Debye-Ang):
   XX=           -479.9446   YY=           -462.8471   ZZ=           -543.0415
   XY=             10.8264   XZ=             16.3537   YZ=            -10.0465

 Normal termination of Gaussian 16 at Wed Sep  8 19:43:21 2021.
