 Gaussian 16, Revision A.03,
 Gaussian 16:  ES64L-G16RevA.03 25-Dec-2016

 -----------------------------------
 #p cam-b3lyp/Def2SVP td=(nstates=5)
 -----------------------------------

 --------------------------------
 TDDFT excited states in gaussian
 --------------------------------
 Symbolic Z-matrix:
 Charge =  0 Multiplicity = 1

                         Standard orientation:
 ---------------------------------------------------------------------
 Center     Atomic      Atomic             Coordinates (Angstroms)
 Number     Number       Type             X           Y           Z
 ---------------------------------------------------------------------
      1         12           0        5.212131   -0.683707    0.224617
      2          6           0        5.465859    2.601928   -1.172678
      3          6           0        5.900621    0.715406    3.259667
      4          6           0        5.442494   -3.618607    1.403565
      5          6           0        5.671383   -1.929342   -2.997671
      6          7           0        5.611606    1.405521    0.837962
      7          6           0        5.620571    2.579943    0.215207
      8          6           0        5.734412    3.793179    1.186017
      9          6           0        6.423704    3.061500    2.423563
     10          6           0        5.921169    1.649153    2.181369
     11          6           0        7.947581    3.058625    2.358024
     12          6           0        4.334552    4.378022    1.573422
     13          6           0        4.364706    5.752237    2.248684
     14          1           0        3.295136    6.696539    1.962919
     15          7           0        5.129927   -1.324559    2.091540
     16          6           0        5.429028   -0.614084    3.205564
     17          6           0        5.211636   -1.531571    4.344703
     18          6           0        4.944989   -2.888444    3.791631
     19          6           0        5.190870   -2.667404    2.389468
     20          6           0        5.219559   -1.084581    5.774349
     21          6           0        4.544023   -4.181929    4.427442
     22          8           0        4.591179   -5.293149    3.796933
     23          6           0        4.174019   -4.126161    5.853285
     24          7           0        5.731886   -2.518436   -0.624654
     25          6           0        5.695237   -3.646300    0.093374
     26          6           0        5.828590   -4.856182   -0.783177
     27          6           0        5.720276   -4.327408   -2.285981
     28          6           0        5.619574   -2.809612   -1.995420
     29          6           0        7.124061   -5.662724   -0.618085
     30          6           0        4.639874   -4.979592   -3.184760
     31          6           0        3.262389   -4.608166   -2.683087
     32          7           0        5.339998    0.151992   -1.774458
     33          6           0        5.556322   -0.549548   -2.969331
     34          6           0        5.673633    0.453271   -4.043882
     35          6           0        5.533028    1.677229   -3.392727
     36          6           0        5.366346    1.454262   -1.996019
     37          6           0        5.940984    0.178991   -5.414184
     38          6           0        5.509461    3.122565   -3.548631
     39          8           0        5.508677    3.890999   -4.511440
     40          6           0        5.586994    3.783896   -2.102099
     41          6           0        4.524365    4.846447   -2.030576
     42          8           0        3.314015    4.543442   -2.055167
     43          8           0        5.089839    6.019633   -1.707443
     44          6           0        4.086099    7.111021   -1.591115
     45          1           0        6.338239    1.004982    4.217047
     46          1           0        5.419658   -4.653186    1.752223
     47          1           0        5.730814   -2.247041   -4.040259
     48          1           0        6.372175    4.602249    0.829521
     49          1           0        6.052654    3.437483    3.376810
     50          1           0        8.306098    3.447545    1.405067
     51          1           0        8.242132    2.015952    2.478713
     52          1           0        8.372913    3.590614    3.209409
     53          1           0        3.907786    3.783658    2.381297
     54          1           0        3.678968    4.418415    0.702845
     55          1           0        5.337625    6.231117    2.134615
     56          1           0        4.258698    5.606900    3.323784
     57          1           0        5.606009   -0.071132    5.874961
     58          1           0        5.946058   -1.705559    6.298081
     59          1           0        4.240759   -1.189620    6.242590
     60          1           0        5.015152   -3.738586    6.428463
     61          1           0        3.830600   -5.126585    6.114180
     62          1           0        3.360843   -3.410755    5.979328
     63          1           0        5.023866   -5.565798   -0.595320
     64          1           0        6.648861   -4.472527   -2.838562
     65          1           0        6.958453   -6.710299   -0.365367
     66          1           0        7.733943   -5.169647    0.138360
     67          1           0        7.789269   -5.640753   -1.480890
     68          1           0        4.715176   -6.065571   -3.140868
     69          1           0        4.714864   -4.683973   -4.231296
     70          1           0        3.086286   -5.337262   -1.892999
     71          1           0        2.526276   -4.711655   -3.480983
     72          1           0        3.259731   -3.620507   -2.221560
     73          1           0        5.268776    0.815515   -5.989460
     74          1           0        5.783587   -0.874316   -5.645211
     75          1           0        6.989958    0.468053   -5.477052
     76          1           0        6.589032    4.199557   -2.000760
     77          1           0        4.398545    7.907762   -2.266257
     78          1           0        4.008124    7.348499   -0.530017
     79          1           0        3.089836    6.892847   -1.977380
     80         12           0       -5.360992   -0.779749   -0.378925
     81          6           0       -5.246070    2.651989    0.664627
     82          6           0       -4.661303   -1.629320    2.849584
     83          6           0       -5.010013   -3.780252   -1.349089
     84          6           0       -4.914531    0.343938   -3.647518
     85          7           0       -5.020244    0.443197    1.432299
     86          6           0       -5.062588    1.735235    1.720728
     87          6           0       -4.979320    2.058924    3.236593
     88          6           0       -4.234483    0.723447    3.727097
     89          6           0       -4.690586   -0.229840    2.624423
     90          6           0       -2.719183    0.825331    3.673799
     91          6           0       -6.395944    2.201719    3.895998
     92          6           0       -6.394227    2.818808    5.296334
     93          1           0       -7.507552    3.683625    5.677211
     94          7           0       -5.389062   -2.474735    0.652977
     95          6           0       -5.099817   -2.635791    1.961283
     96          6           0       -5.247271   -4.074271    2.231808
     97          6           0       -5.486548   -4.772484    0.939547
     98          6           0       -5.279254   -3.681709    0.008244
     99          6           0       -5.236400   -4.646567    3.619537
    100          6           0       -5.830760   -6.190528    0.597696
    101          8           0       -5.758184   -6.630079   -0.604118
    102          6           0       -6.165133   -7.073871    1.724373
    103          7           0       -4.802146   -1.617235   -2.197891
    104          6           0       -4.780474   -2.950936   -2.367346
    105          6           0       -4.618451   -3.313115   -3.824383
    106          6           0       -4.779173   -1.940279   -4.628775
    107          6           0       -4.923809   -0.965568   -3.439489
    108          6           0       -3.292070   -3.971973   -4.202566
    109          6           0       -5.853679   -1.903090   -5.749811
    110          6           0       -7.235115   -2.004327   -5.144185
    111          7           0       -5.305690    1.139290   -1.370016
    112          6           0       -5.080670    1.384379   -2.742374
    113          6           0       -5.019508    2.849859   -2.918618
    114          6           0       -5.191584    3.359222   -1.622684
    115          6           0       -5.328696    2.286477   -0.700773
    116          6           0       -4.779350    3.530920   -4.145242
    117          6           0       -5.277790    4.560268   -0.823480
    118          8           0       -5.316661    5.765446   -1.067941
    119          6           0       -5.190372    4.153783    0.710640
    120          6           0       -6.288178    4.873436    1.445121
    121          8           0       -7.481515    4.613964    1.210103
    122          8           0       -5.750908    5.587134    2.451277
    123          6           0       -6.801615    6.310129    3.216198
    124          1           0       -4.222258   -1.996420    3.777679
    125          1           0       -4.989401   -4.795015   -1.753226
    126          1           0       -4.876098    0.775502   -4.649985
    127          1           0       -4.382992    2.929190    3.483187
    128          1           0       -4.607985    0.395133    4.693562
    129          1           0       -2.393259    1.740165    3.201574
    130          1           0       -2.386438   -0.033246    3.105315
    131          1           0       -2.297800    0.704966    4.675935
    132          1           0       -6.783629    1.202244    4.131590
    133          1           0       -7.058976    2.753803    3.258633
    134          1           0       -5.436681    3.297660    5.534580
    135          1           0       -6.481367    2.014010    6.030306
    136          1           0       -4.876705   -3.914964    4.353556
    137          1           0       -4.480169   -5.438901    3.632753
    138          1           0       -6.199919   -5.072816    3.906936
    139          1           0       -5.328573   -7.106458    2.418326
    140          1           0       -6.468823   -8.020555    1.273353
    141          1           0       -7.010217   -6.639868    2.270353
    142          1           0       -5.394678   -3.998900   -4.141035
    143          1           0       -3.851758   -1.663159   -5.151205
    144          1           0       -3.417369   -4.958606   -4.687244
    145          1           0       -2.688277   -4.061082   -3.309241
    146          1           0       -2.652446   -3.380794   -4.855709
    147          1           0       -5.740847   -2.765558   -6.411310
    148          1           0       -5.801600   -1.013573   -6.368701
    149          1           0       -7.365059   -3.081694   -5.004689
    150          1           0       -7.982309   -1.601521   -5.824984
    151          1           0       -7.265370   -1.537551   -4.152794
    152          1           0       -5.476988    4.356904   -4.184505
    153          1           0       -4.899628    2.867003   -4.998780
    154          1           0       -3.737678    3.830102   -4.001506
    155          1           0       -4.201230    4.440585    1.069684
    156          1           0       -6.526840    7.369458    3.213543
    157          1           0       -6.855412    5.806159    4.199493
    158          1           0       -7.796368    6.348585    2.787892
 ---------------------------------------------------------------------

 SCF Done:  E(RCAM-B3LYP) =  -4069.81163192     A.U. after   19 cycles

 Excitation energies and oscillator strengths:

 Excited State   1:      Singlet-A      1.6606 eV  746.62 nm  f=0.0883  <S**2>=0.000
     309 -> 315       -0.11396
     310 -> 316        0.12626
     311 -> 313       -0.45885
     312 -> 314        0.51100
 This state for optimization and/or second-order correction.
 Total Energy, E(TD-HF/TD-DFT) =  -4069.75060539
 Copying the excited state density for this state as the 1-particle RhoCI density.

 Excited State   2:      Singlet-A      1.6918 eV  732.84 nm  f=0.6212  <S**2>=0.000
     309 -> 315        0.13270
     310 -> 316        0.11904
     311 -> 313        0.50953
     312 -> 314        0.45768

 Excited State   3:      Singlet-A      2.1845 eV  567.57 nm  f=0.0435  <S**2>=0.000
     309 -> 313       -0.27044
     310 -> 314        0.58361
     311 -> 315        0.11352
     312 -> 316       -0.24706

 Excited State   4:      Singlet-A      2.1925 eV  565.51 nm  f=0.1456  <S**2>=0.000
     309 -> 313        0.58112
     310 -> 314        0.26817
     311 -> 315       -0.25297
     312 -> 316       -0.11764

 Excited State   5:      Singlet-A      2.4855 eV  498.83 nm  f=0.0000  <S**2>=0.000
     312 -> 313        0.70709

 The electronic state is 1-A.
 Alpha  occ. eigenvalues --  -46.87873 -46.87498 -19.26265 -19.26260 -19.19059
 Alpha  occ. eigenvalues --  -19.19011 -19.18933 -19.18566 -19.18224 -19.17882
 Alpha  occ. eigenvalues --  -14.42524 -14.42345 -14.41522 -14.41196 -14.39485
 Alpha  occ. eigenvalues --  -14.39191 -14.38661 -14.38428 -10.39075 -10.38984
 Alpha  occ. eigenvalues --  -10.35570 -10.35246 -10.34440 -10.34061 -10.31702
 Alpha  occ. eigenvalues --  -10.31612 -10.31471 -10.31156 -10.30984 -10.30889
 Alpha  occ. eigenvalues --  -10.30643 -10.30584 -10.30289 -10.30224 -10.30188
 Alpha  occ. eigenvalues --  -10.29987 -10.29981 -10.29721 -10.29714 -10.29342
 Alpha  occ. eigenvalues --  -10.29272 -10.29228 -10.28802 -10.28627 -10.28622
 Alpha  occ. eigenvalues --  -10.28557 -10.28442 -10.28245 -10.28176 -10.28048
 Alpha  occ. eigenvalues --  -10.27874 -10.27827 -10.27805 -10.27675 -10.27611
 Alpha  occ. eigenvalues --  -10.27563 -10.27521 -10.27508 -10.27471 -10.27354
 Alpha  occ. eigenvalues --  -10.27333 -10.27328 -10.27299 -10.27224 -10.27195
 Alpha  occ. eigenvalues --  -10.26900 -10.26750 -10.26623 -10.26580 -10.26288
 Alpha  occ. eigenvalues --  -10.26286 -10.26235 -10.26095 -10.25988 -10.25955
 Alpha  occ. eigenvalues --  -10.25916 -10.25760 -10.25582 -10.25490 -10.25257
 Alpha  occ. eigenvalues --  -10.24908 -10.24861 -10.24733 -10.24693 -10.24595
 Alpha  occ. eigenvalues --  -10.24529  -3.16616  -3.16247  -1.91498  -1.91130
 Alpha  occ. eigenvalues --   -1.91084  -1.90926  -1.90719  -1.90555  -1.16612
 Alpha  occ. eigenvalues --   -1.16554  -1.08675  -1.08492  -1.07336  -1.06843
 Alpha  occ. eigenvalues --   -1.06820  -1.06634  -1.04654  -1.04345  -1.03834
 Alpha  occ. eigenvalues --   -1.03503  -1.03311  -1.02871  -1.02486  -1.01945
 Alpha  occ. eigenvalues --   -0.92035  -0.91829  -0.89585  -0.89335  -0.89245
 Alpha  occ. eigenvalues --   -0.89049  -0.88350  -0.88066  -0.87946  -0.87744
 Alpha  occ. eigenvalues --   -0.87598  -0.87532  -0.87382  -0.86967  -0.85044
 Alpha  occ. eigenvalues --   -0.84885  -0.83992  -0.83727  -0.83083  -0.82789
 Alpha  occ. eigenvalues --   -0.82710  -0.82533  -0.81614  -0.81467  -0.80654
 Alpha  occ. eigenvalues --   -0.80304  -0.78892  -0.78471  -0.77285  -0.77011
 Alpha  occ. eigenvalues --   -0.76976  -0.76779  -0.75969  -0.75716  -0.74954
 Alpha  occ. eigenvalues --   -0.74660  -0.72847  -0.72530  -0.71734  -0.71440
 Alpha  occ. eigenvalues --   -0.69965  -0.69610  -0.68939  -0.68707  -0.67715
 Alpha  occ. eigenvalues --   -0.67452  -0.67289  -0.67089  -0.65342  -0.65154
 Alpha  occ. eigenvalues --   -0.64909  -0.64671  -0.64621  -0.64524  -0.64332
 Alpha  occ. eigenvalues --   -0.64052  -0.62314  -0.62156  -0.60536  -0.60185
 Alpha  occ. eigenvalues --   -0.59869  -0.59672  -0.59052  -0.58839  -0.58568
 Alpha  occ. eigenvalues --   -0.58275  -0.57624  -0.57408  -0.57371  -0.57082
 Alpha  occ. eigenvalues --   -0.56387  -0.56045  -0.55991  -0.55777  -0.55604
 Alpha  occ. eigenvalues --   -0.55383  -0.55314  -0.55103  -0.54554  -0.54358
 Alpha  occ. eigenvalues --   -0.53952  -0.53811  -0.53384  -0.53293  -0.53074
 Alpha  occ. eigenvalues --   -0.53013  -0.52965  -0.52848  -0.52778  -0.52540
 Alpha  occ. eigenvalues --   -0.52493  -0.52255  -0.51984  -0.51685  -0.51656
 Alpha  occ. eigenvalues --   -0.51543  -0.51250  -0.51052  -0.50702  -0.50339
 Alpha  occ. eigenvalues --   -0.50100  -0.50015  -0.49855  -0.49720  -0.49590
 Alpha  occ. eigenvalues --   -0.49356  -0.49284  -0.49152  -0.49068  -0.48969
 Alpha  occ. eigenvalues --   -0.48639  -0.48555  -0.48503  -0.48425  -0.48226
 Alpha  occ. eigenvalues --   -0.48198  -0.47765  -0.47464  -0.47370  -0.46976
 Alpha  occ. eigenvalues --   -0.46861  -0.46613  -0.46566  -0.46444  -0.46427
 Alpha  occ. eigenvalues --   -0.46215  -0.46114  -0.45923  -0.45862  -0.45669
 Alpha  occ. eigenvalues --   -0.45264  -0.45063  -0.44636  -0.44588  -0.44392
 Alpha  occ. eigenvalues --   -0.44335  -0.44215  -0.44151  -0.44082  -0.43996
 Alpha  occ. eigenvalues --   -0.43934  -0.43799  -0.43528  -0.43449  -0.43432
 Alpha  occ. eigenvalues --   -0.43253  -0.43089  -0.42813  -0.42752  -0.42743
 Alpha  occ. eigenvalues --   -0.42662  -0.42404  -0.42063  -0.41832  -0.41766
 Alpha  occ. eigenvalues --   -0.41591  -0.41520  -0.41342  -0.41204  -0.40946
 Alpha  occ. eigenvalues --   -0.40912  -0.40857  -0.40629  -0.40603  -0.40580
 Alpha  occ. eigenvalues --   -0.40349  -0.40290  -0.40138  -0.39496  -0.39276
 Alpha  occ. eigenvalues --   -0.38528  -0.38210  -0.37798  -0.37559  -0.37386
 Alpha  occ. eigenvalues --   -0.37323  -0.37116  -0.37067  -0.36728  -0.36664
 Alpha  occ. eigenvalues --   -0.36228  -0.36080  -0.34358  -0.34094  -0.33778
 Alpha  occ. eigenvalues --   -0.33747  -0.33254  -0.33014  -0.31460  -0.31127
 Alpha  occ. eigenvalues --   -0.31106  -0.30818  -0.30080  -0.29789  -0.29540
 Alpha  occ. eigenvalues --   -0.29398  -0.29162  -0.29027  -0.24153  -0.23872
 Alpha  occ. eigenvalues --   -0.21205  -0.20954
 Alpha virt. eigenvalues --   -0.08856  -0.08625  -0.01828  -0.01524  -0.00152
 Alpha virt. eigenvalues --    0.00122   0.02133   0.02383   0.03027   0.03377
 Alpha virt. eigenvalues --    0.04658   0.04863   0.05094   0.05277   0.06146

 Mulliken charges:
               1
     1  Mg   0.838610
     2  C   -0.002819
     3  C   -0.094528
     4  C   -0.045866
     5  C   -0.064060
     6  N   -0.256785
     7  C   -0.052348
     8  C   -0.013919
     9  C   -0.086916
    10  C    0.046218
    11  C    0.104808
    12  C    0.053594
    13  C   -0.072301
    14  H    0.037675
    15  N   -0.433057
    16  C    0.168116
    17  C   -0.177680
    18  C   -0.004413
    19  C    0.148628
    20  C    0.110272
    21  C    0.011790
    22  O   -0.249479
    23  C    0.062855
    24  N   -0.341196
    25  C    0.041253
    26  C   -0.028233
    27  C   -0.024065
    28  C    0.075106
    29  C    0.076122
    30  C    0.035055
    31  C   -0.004447
    32  N   -0.310561
    33  C    0.080671
    34  C   -0.169791
    35  C    0.008545
    36  C    0.083094
    37  C    0.127306
    38  C    0.046238
    39  O   -0.187822
    40  C   -0.005291
    41  C    0.212896
    42  O   -0.256768
    43  O   -0.305013
    44  C    0.157208
    45  H   -0.017687
    46  H   -0.016829
    47  H   -0.041392
    48  H    0.001306
    49  H   -0.004259
    50  H    0.025654
    51  H    0.016376
    52  H    0.016716
    53  H    0.010236
    54  H    0.044608
    55  H    0.018052
    56  H    0.017343
    57  H    0.005928
    58  H    0.026928
    59  H    0.038048
    60  H    0.037685
    61  H    0.035201
    62  H    0.029905
    63  H    0.016732
    64  H    0.009599
    65  H    0.023344
    66  H    0.012491
    67  H    0.004874
    68  H    0.006764
    69  H    0.004564
    70  H    0.009403
    71  H    0.017983
    72  H    0.028716
    73  H    0.047587
    74  H    0.009058
    75  H    0.046309
    76  H    0.035309
    77  H    0.043315
    78  H    0.046460
    79  H    0.054963
    80  Mg   0.838264
    81  C   -0.016656
    82  C   -0.087981
    83  C   -0.045350
    84  C   -0.063511
    85  N   -0.254460
    86  C   -0.049578
    87  C   -0.015071
    88  C   -0.090613
    89  C    0.045786
    90  C    0.114546
    91  C    0.062661
    92  C   -0.077489
    93  H    0.034506
    94  N   -0.423447
    95  C    0.162694
    96  C   -0.174723
    97  C   -0.007891
    98  C    0.151932
    99  C    0.099409
   100  C    0.015512
   101  O   -0.253555
   102  C    0.061236
   103  N   -0.349840
   104  C    0.037453
   105  C   -0.019811
   106  C   -0.035086
   107  C    0.088975
   108  C    0.073646
   109  C    0.034718
   110  C   -0.007589
   111  N   -0.324406
   112  C    0.078701
   113  C   -0.161553
   114  C    0.002866
   115  C    0.096418
   116  C    0.130924
   117  C    0.043361
   118  O   -0.187901
   119  C    0.000542
   120  C    0.211032
   121  O   -0.251179
   122  O   -0.305732
   123  C    0.152176
   124  H   -0.020635
   125  H   -0.015878
   126  H   -0.039665
   127  H   -0.001158
   128  H   -0.005167
   129  H    0.023158
   130  H    0.015037
   131  H    0.013973
   132  H    0.013923
   133  H    0.037757
   134  H    0.020080
   135  H    0.019186
   136  H    0.007964
   137  H    0.026326
   138  H    0.039229
   139  H    0.038446
   140  H    0.036015
   141  H    0.033543
   142  H    0.014012
   143  H    0.013448
   144  H    0.024281
   145  H    0.011921
   146  H    0.005785
   147  H    0.005878
   148  H    0.004036
   149  H    0.010636
   150  H    0.017711
   151  H    0.030106
   152  H    0.045303
   153  H    0.008356
   154  H    0.050824
   155  H    0.035612
   156  H    0.043458
   157  H    0.049032
   158  H    0.053534
 Sum of Mulliken charges =  -0.00000

 Dipole moment (field-independent basis, Debye):
    X=              3.6803    Y=             -2.0101    Z=              7.1700  Tot=              8.3062
 Quadrupole moment (field-independent basis, Debye-Ang):
   XX=           -518.6644   YY=           -539.2012   ZZ=           -460.0062
   XY=             16.7942   XZ=              1.1698   YZ=             36.9210

 Normal termination of Gaussian 16 at Sat Sep  4 05:01:33 2021.
