 Gaussian 16, Revision A.03,
 Gaussian 16:  ES64L-G16RevA.03 25-Dec-2016

 -----------------------------------
 #p cam-b3lyp/Def2SVP td=(nstates=5)
 -----------------------------------

 --------------------------------
 TDDFT excited states in gaussian
 --------------------------------
 Symbolic Z-matrix:
 Charge =  0 Multiplicity = 1

                         Standard orientation:
 ---------------------------------------------------------------------
 Center     Atomic      Atomic             Coordinates (Angstroms)
 Number     Number       Type             X           Y           Z
 ---------------------------------------------------------------------
      1         12           0        4.019988    0.397135    1.265680
      2          6           0        4.730773   -2.587934   -0.577242
      3          6           0        5.695587    2.115641   -1.159639
      4          6           0        3.800655    2.978058    3.095257
      5          6           0        3.421871   -1.631641    4.035515
      6          7           0        5.038072   -0.263971   -0.585560
      7          6           0        5.186977   -1.428730   -1.208725
      8          6           0        5.806403   -1.293259   -2.631866
      9          6           0        6.562539    0.098025   -2.445899
     10          6           0        5.694087    0.702798   -1.356878
     11          6           0        7.985119   -0.047837   -1.915342
     12          6           0        4.713767   -1.206485   -3.750055
     13          6           0        5.225688   -1.400648   -5.180297
     14          1           0        4.378062   -2.092454   -6.139611
     15          7           0        4.212889    2.309984    0.811093
     16          6           0        4.918987    2.829744   -0.221652
     17          6           0        4.752450    4.296344   -0.132052
     18          6           0        4.049275    4.597208    1.145884
     19          6           0        4.015684    3.292338    1.755444
     20          6           0        5.192222    5.241620   -1.207600
     21          6           0        3.504795    5.862143    1.730362
     22          8           0        3.139158    5.944393    2.952703
     23          6           0        3.493093    7.042220    0.847004
     24          7           0        3.876918    0.665815    3.330862
     25          6           0        3.734720    1.886073    3.859761
     26          6           0        3.370816    1.812249    5.313055
     27          6           0        3.053968    0.276012    5.611943
     28          6           0        3.389424   -0.309645    4.218119
     29          6           0        4.437286    2.314047    6.296341
     30          6           0        1.673433   -0.048814    6.235667
     31          6           0        0.576641    0.249077    5.237966
     32          7           0        3.886931   -1.735674    1.645763
     33          6           0        3.651035   -2.359113    2.879599
     34          6           0        3.758293   -3.812679    2.656639
     35          6           0        4.067500   -3.933973    1.303301
     36          6           0        4.174133   -2.637414    0.723770
     37          6           0        3.633271   -4.820163    3.653524
     38          6           0        4.356871   -4.856564    0.217508
     39          8           0        4.321794   -6.081042    0.087439
     40          6           0        4.917644   -4.019222   -1.015463
     41          6           0        4.186176   -4.478686   -2.247192
     42          8           0        2.965553   -4.258970   -2.385648
     43          8           0        5.074997   -4.888443   -3.165145
     44          6           0        4.416214   -5.330002   -4.423392
     45          1           0        6.395742    2.727683   -1.731591
     46          1           0        3.609934    3.838420    3.740114
     47          1           0        3.164689   -2.329513    4.834442
     48          1           0        6.521535   -2.073709   -2.892461
     49          1           0        6.519315    0.708409   -3.347723
     50          1           0        8.200247   -1.077476   -1.629886
     51          1           0        8.040173    0.607666   -1.045987
     52          1           0        8.707793    0.343437   -2.631878
     53          1           0        4.351920   -0.180711   -3.820168
     54          1           0        3.906867   -1.914209   -3.556750
     55          1           0        6.232945   -1.818080   -5.189882
     56          1           0        5.335119   -0.418439   -5.640179
     57          1           0        5.823152    4.745103   -1.943767
     58          1           0        5.847799    5.974983   -0.738444
     59          1           0        4.349685    5.749149   -1.677576
     60          1           0        4.510722    7.257343    0.520350
     61          1           0        2.988073    7.830210    1.404567
     62          1           0        2.926085    6.803725   -0.053313
     63          1           0        2.483662    2.407698    5.524774
     64          1           0        3.769875   -0.161296    6.308299
     65          1           0        4.086896    3.110297    6.953545
     66          1           0        5.303206    2.636343    5.718761
     67          1           0        4.874237    1.542463    6.929705
     68          1           0        1.493715    0.579843    7.107124
     69          1           0        1.577306   -1.087900    6.550804
     70          1           0        0.414966    1.318785    5.366102
     71          1           0       -0.324285   -0.314123    5.483624
     72          1           0        0.916195    0.091188    4.214120
     73          1           0        3.020948   -5.608328    3.215544
     74          1           0        3.179296   -4.424377    4.561743
     75          1           0        4.678366   -5.095270    3.794766
     76          1           0        5.986165   -4.224191   -1.073535
     77          1           0        4.748935   -6.349394   -4.619275
     78          1           0        4.640840   -4.571498   -5.173472
     79          1           0        3.335797   -5.471323   -4.377916
     80         12           0       -3.583356    0.543360   -1.012667
     81          6           0       -6.247104   -1.551151    0.169066
     82          6           0       -5.915066    2.987868   -1.484009
     83          6           0       -1.347961    2.255582   -2.475102
     84          6           0       -1.717634   -2.355373   -1.524674
     85          7           0       -5.767097    0.592114   -0.664617
     86          6           0       -6.660682   -0.242155   -0.154864
     87          6           0       -8.058810    0.385268    0.092362
     88          6           0       -7.977355    1.582292   -0.975059
     89          6           0       -6.461579    1.763042   -1.024424
     90          6           0       -8.456503    1.185823   -2.361629
     91          6           0       -8.219342    0.929945    1.555092
     92          6           0       -9.654566    1.274354    1.959173
     93          1           0      -10.066594    1.031170    3.338870
     94          7           0       -3.504112    2.487933   -1.401184
     95          6           0       -4.546900    3.333818   -1.536688
     96          6           0       -3.961318    4.649311   -1.837940
     97          6           0       -2.495913    4.477124   -2.031977
     98          6           0       -2.393335    3.032031   -1.996698
     99          6           0       -4.765385    5.916941   -1.839022
    100          6           0       -1.374462    5.451304   -2.230817
    101          8           0       -0.212833    5.071184   -2.616765
    102          6           0       -1.701624    6.873279   -2.050732
    103          7           0       -1.873523    0.018594   -2.072590
    104          6           0       -1.046097    0.959816   -2.559836
    105          6           0        0.249806    0.351221   -3.040100
    106          6           0        0.217387   -1.170689   -2.549871
    107          6           0       -1.192814   -1.203969   -1.920892
    108          6           0        0.485841    0.394463   -4.549666
    109          6           0        1.419088   -1.660948   -1.696518
    110          6           0        1.418367   -0.963399   -0.355326
    111          7           0       -3.820925   -1.557843   -0.569312
    112          6           0       -2.930250   -2.604256   -0.894575
    113          6           0       -3.578142   -3.868886   -0.490384
    114          6           0       -4.820331   -3.469101    0.025006
    115          6           0       -4.946600   -2.056902   -0.071058
    116          6           0       -3.036466   -5.173696   -0.664109
    117          6           0       -6.057857   -3.921603    0.618703
    118          8           0       -6.484165   -5.003728    1.019959
    119          6           0       -7.088686   -2.711745    0.622285
    120          6           0       -7.709873   -2.634842    1.990029
    121          8           0       -7.018753   -2.345981    2.982771
    122          8           0       -9.048449   -2.700136    1.870343
    123          6           0       -9.710093   -2.616710    3.199662
    124          1           0       -6.594370    3.742151   -1.882098
    125          1           0       -0.501340    2.808112   -2.889141
    126          1           0       -1.160614   -3.294033   -1.561014
    127          1           0       -8.895162   -0.263260   -0.139342
    128          1           0       -8.456501    2.481741   -0.597202
    129          1           0       -8.662464    0.127945   -2.429521
    130          1           0       -7.657832    1.459976   -3.038404
    131          1           0       -9.318532    1.793819   -2.650728
    132          1           0       -7.762183    1.925798    1.618535
    133          1           0       -7.798575    0.244784    2.265113
    134          1           0      -10.390515    0.859787    1.259564
    135          1           0       -9.787728    2.355925    1.878523
    136          1           0       -5.842617    5.710013   -1.826240
    137          1           0       -4.593748    6.403641   -2.805216
    138          1           0       -4.472192    6.602400   -1.040991
    139          1           0       -2.493434    7.152025   -2.741973
    140          1           0       -0.753369    7.405725   -2.146536
    141          1           0       -2.101468    7.015052   -1.040459
    142          1           0        1.100522    0.847527   -2.589472
    143          1           0        0.200046   -1.871490   -3.397467
    144          1           0        1.426679    0.904745   -4.829890
    145          1           0       -0.362592    0.879254   -5.014070
    146          1           0        0.496336   -0.575747   -5.043424
    147          1           0        2.361501   -1.397412   -2.182905
    148          1           0        1.427333   -2.734243   -1.538551
    149          1           0        1.913038   -0.011806   -0.571821
    150          1           0        1.977914   -1.541392    0.377386
    151          1           0        0.396315   -0.737071   -0.029976
    152          1           0       -3.223188   -5.713215    0.254883
    153          1           0       -1.973876   -5.135578   -0.894784
    154          1           0       -3.629161   -5.519163   -1.515364
    155          1           0       -7.829476   -2.910231   -0.153223
    156          1           0      -10.348592   -3.500421    3.294763
    157          1           0      -10.209181   -1.629744    3.223534
    158          1           0       -9.083271   -2.713125    4.078434
 ---------------------------------------------------------------------

 SCF Done:  E(RCAM-B3LYP) =  -4069.81462661     A.U. after   19 cycles

 Excitation energies and oscillator strengths:

 Excited State   1:      Singlet-A      1.6281 eV  761.50 nm  f=0.0033  <S**2>=0.000
     309 -> 315       -0.11206
     310 -> 316        0.11736
     311 -> 313       -0.47028
     312 -> 314        0.50284
 This state for optimization and/or second-order correction.
 Total Energy, E(TD-HF/TD-DFT) =  -4069.75479327
 Copying the excited state density for this state as the 1-particle RhoCI density.

 Excited State   2:      Singlet-A      1.7089 eV  725.51 nm  f=0.6696  <S**2>=0.000
     309 -> 315        0.13516
     310 -> 316        0.12354
     311 -> 313        0.49940
     312 -> 314        0.46703

 Excited State   3:      Singlet-A      2.1760 eV  569.78 nm  f=0.0645  <S**2>=0.000
     309 -> 313        0.32907
     310 -> 314        0.55382
     311 -> 315       -0.13780
     312 -> 316       -0.22547

 Excited State   4:      Singlet-A      2.1890 eV  566.39 nm  f=0.1260  <S**2>=0.000
     309 -> 313        0.54098
     310 -> 314       -0.32880
     311 -> 315       -0.23818
     312 -> 316        0.14435

 Excited State   5:      Singlet-A      2.2456 eV  552.13 nm  f=0.0019  <S**2>=0.000
     309 -> 313        0.10036
     312 -> 313        0.69734

 The electronic state is 1-A.
 Alpha  occ. eigenvalues --  -46.87646 -46.87259 -19.26907 -19.26124 -19.19891
 Alpha  occ. eigenvalues --  -19.18919 -19.18669 -19.18556 -19.18313 -19.17739
 Alpha  occ. eigenvalues --  -14.42445 -14.42115 -14.41361 -14.40894 -14.39293
 Alpha  occ. eigenvalues --  -14.38973 -14.38407 -14.38197 -10.39812 -10.38840
 Alpha  occ. eigenvalues --  -10.35292 -10.35237 -10.34563 -10.33914 -10.32172
 Alpha  occ. eigenvalues --  -10.31566 -10.31485 -10.30976 -10.30912 -10.30706
 Alpha  occ. eigenvalues --  -10.30590 -10.30482 -10.30084 -10.29985 -10.29937
 Alpha  occ. eigenvalues --  -10.29905 -10.29608 -10.29598 -10.29402 -10.29158
 Alpha  occ. eigenvalues --  -10.29049 -10.29009 -10.28971 -10.28858 -10.28452
 Alpha  occ. eigenvalues --  -10.28439 -10.28331 -10.28245 -10.28066 -10.27841
 Alpha  occ. eigenvalues --  -10.27745 -10.27726 -10.27634 -10.27514 -10.27513
 Alpha  occ. eigenvalues --  -10.27463 -10.27355 -10.27343 -10.27285 -10.27202
 Alpha  occ. eigenvalues --  -10.27196 -10.27112 -10.27105 -10.27098 -10.26749
 Alpha  occ. eigenvalues --  -10.26743 -10.26508 -10.26450 -10.26348 -10.26321
 Alpha  occ. eigenvalues --  -10.26115 -10.25964 -10.25931 -10.25778 -10.25755
 Alpha  occ. eigenvalues --  -10.25347 -10.25345 -10.25288 -10.25035 -10.24866
 Alpha  occ. eigenvalues --  -10.24741 -10.24514 -10.24403 -10.24287 -10.24237
 Alpha  occ. eigenvalues --  -10.23843  -3.16350  -3.16010  -1.91225  -1.90892
 Alpha  occ. eigenvalues --   -1.90825  -1.90667  -1.90480  -1.90318  -1.17287
 Alpha  occ. eigenvalues --   -1.16413  -1.08830  -1.08351  -1.07462  -1.07066
 Alpha  occ. eigenvalues --   -1.06819  -1.06702  -1.04618  -1.04125  -1.03715
 Alpha  occ. eigenvalues --   -1.03255  -1.03200  -1.02597  -1.02388  -1.01693
 Alpha  occ. eigenvalues --   -0.92090  -0.91618  -0.89459  -0.89334  -0.88929
 Alpha  occ. eigenvalues --   -0.88765  -0.88205  -0.87872  -0.87700  -0.87518
 Alpha  occ. eigenvalues --   -0.87367  -0.87267  -0.87123  -0.86825  -0.85104
 Alpha  occ. eigenvalues --   -0.84671  -0.83882  -0.83263  -0.82855  -0.82668
 Alpha  occ. eigenvalues --   -0.82639  -0.82273  -0.81792  -0.81248  -0.80663
 Alpha  occ. eigenvalues --   -0.80097  -0.78708  -0.78280  -0.77245  -0.77058
 Alpha  occ. eigenvalues --   -0.76781  -0.76484  -0.76031  -0.75500  -0.74863
 Alpha  occ. eigenvalues --   -0.74362  -0.72762  -0.72268  -0.71708  -0.71194
 Alpha  occ. eigenvalues --   -0.69767  -0.69066  -0.68932  -0.68479  -0.67692
 Alpha  occ. eigenvalues --   -0.67309  -0.67228  -0.66933  -0.65455  -0.65005
 Alpha  occ. eigenvalues --   -0.64933  -0.64682  -0.64357  -0.64252  -0.64201
 Alpha  occ. eigenvalues --   -0.63533  -0.62559  -0.61886  -0.60326  -0.59973
 Alpha  occ. eigenvalues --   -0.59898  -0.59463  -0.59037  -0.58581  -0.58566
 Alpha  occ. eigenvalues --   -0.58011  -0.57913  -0.57289  -0.57231  -0.56793
 Alpha  occ. eigenvalues --   -0.56472  -0.56179  -0.55831  -0.55637  -0.55523
 Alpha  occ. eigenvalues --   -0.55416  -0.55170  -0.54896  -0.54681  -0.54202
 Alpha  occ. eigenvalues --   -0.53982  -0.53610  -0.53360  -0.53253  -0.53120
 Alpha  occ. eigenvalues --   -0.52913  -0.52784  -0.52634  -0.52540  -0.52440
 Alpha  occ. eigenvalues --   -0.52283  -0.52049  -0.51773  -0.51484  -0.51382
 Alpha  occ. eigenvalues --   -0.51369  -0.51241  -0.50793  -0.50350  -0.50251
 Alpha  occ. eigenvalues --   -0.50054  -0.49846  -0.49676  -0.49640  -0.49377
 Alpha  occ. eigenvalues --   -0.49252  -0.49207  -0.49180  -0.48898  -0.48801
 Alpha  occ. eigenvalues --   -0.48622  -0.48443  -0.48331  -0.48247  -0.48112
 Alpha  occ. eigenvalues --   -0.47954  -0.47703  -0.47248  -0.47236  -0.46875
 Alpha  occ. eigenvalues --   -0.46782  -0.46701  -0.46496  -0.46311  -0.46178
 Alpha  occ. eigenvalues --   -0.46144  -0.46026  -0.45767  -0.45632  -0.45428
 Alpha  occ. eigenvalues --   -0.45152  -0.44897  -0.44534  -0.44504  -0.44250
 Alpha  occ. eigenvalues --   -0.44228  -0.44067  -0.44064  -0.43980  -0.43845
 Alpha  occ. eigenvalues --   -0.43686  -0.43652  -0.43582  -0.43446  -0.43253
 Alpha  occ. eigenvalues --   -0.43079  -0.43041  -0.42875  -0.42615  -0.42558
 Alpha  occ. eigenvalues --   -0.42500  -0.42064  -0.42009  -0.41827  -0.41591
 Alpha  occ. eigenvalues --   -0.41337  -0.41278  -0.41176  -0.41024  -0.40949
 Alpha  occ. eigenvalues --   -0.40745  -0.40624  -0.40521  -0.40486  -0.40431
 Alpha  occ. eigenvalues --   -0.40206  -0.39989  -0.39552  -0.39265  -0.38776
 Alpha  occ. eigenvalues --   -0.38355  -0.37903  -0.37770  -0.37385  -0.37326
 Alpha  occ. eigenvalues --   -0.37219  -0.37167  -0.36869  -0.36636  -0.36464
 Alpha  occ. eigenvalues --   -0.36204  -0.35616  -0.34431  -0.34120  -0.33830
 Alpha  occ. eigenvalues --   -0.33586  -0.33201  -0.32760  -0.31225  -0.31112
 Alpha  occ. eigenvalues --   -0.31043  -0.30576  -0.30185  -0.29639  -0.29329
 Alpha  occ. eigenvalues --   -0.29223  -0.28991  -0.28836  -0.24070  -0.23626
 Alpha  occ. eigenvalues --   -0.21115  -0.20704
 Alpha virt. eigenvalues --   -0.08745  -0.08415  -0.01749  -0.01280  -0.00027
 Alpha virt. eigenvalues --    0.00245   0.02129   0.02587   0.03254   0.04437
 Alpha virt. eigenvalues --    0.04575   0.04987   0.05107   0.05430   0.06034

 Mulliken charges:
               1
     1  Mg   0.761225
     2  C    0.008264
     3  C   -0.091679
     4  C   -0.044377
     5  C   -0.060667
     6  N   -0.250411
     7  C   -0.066259
     8  C   -0.022029
     9  C   -0.082935
    10  C    0.044711
    11  C    0.105111
    12  C    0.031254
    13  C   -0.063664
    14  H    0.035468
    15  N   -0.425380
    16  C    0.168711
    17  C   -0.171288
    18  C   -0.001326
    19  C    0.150607
    20  C    0.108627
    21  C    0.014872
    22  O   -0.250236
    23  C    0.058146
    24  N   -0.336254
    25  C    0.043843
    26  C   -0.028196
    27  C   -0.022968
    28  C    0.072778
    29  C    0.076351
    30  C    0.034926
    31  C   -0.006127
    32  N   -0.309129
    33  C    0.080923
    34  C   -0.172079
    35  C    0.018077
    36  C    0.048233
    37  C    0.128261
    38  C    0.042394
    39  O   -0.188513
    40  C   -0.007062
    41  C    0.223674
    42  O   -0.256274
    43  O   -0.302747
    44  C    0.156248
    45  H   -0.018002
    46  H   -0.016889
    47  H   -0.041658
    48  H   -0.002261
    49  H   -0.003759
    50  H    0.025419
    51  H    0.017821
    52  H    0.017052
    53  H    0.014107
    54  H    0.064518
    55  H    0.018696
    56  H    0.019761
    57  H    0.005025
    58  H    0.025568
    59  H    0.049807
    60  H    0.036229
    61  H    0.033597
    62  H    0.041398
    63  H    0.017170
    64  H    0.009150
    65  H    0.023283
    66  H    0.012222
    67  H    0.004925
    68  H    0.006228
    69  H    0.005491
    70  H    0.007985
    71  H    0.021761
    72  H    0.030450
    73  H    0.046480
    74  H    0.010600
    75  H    0.045603
    76  H    0.036069
    77  H    0.045653
    78  H    0.048325
    79  H    0.052483
    80  Mg   0.836541
    81  C   -0.018114
    82  C   -0.088724
    83  C   -0.046894
    84  C   -0.068022
    85  N   -0.254754
    86  C   -0.049733
    87  C   -0.015119
    88  C   -0.090297
    89  C    0.045322
    90  C    0.114692
    91  C    0.062655
    92  C   -0.077376
    93  H    0.033844
    94  N   -0.423103
    95  C    0.162308
    96  C   -0.175532
    97  C   -0.009178
    98  C    0.152315
    99  C    0.099521
   100  C    0.015069
   101  O   -0.258556
   102  C    0.061909
   103  N   -0.349844
   104  C    0.036275
   105  C   -0.018311
   106  C   -0.034472
   107  C    0.088047
   108  C    0.075344
   109  C    0.038260
   110  C   -0.058165
   111  N   -0.324235
   112  C    0.078722
   113  C   -0.161482
   114  C    0.001585
   115  C    0.096729
   116  C    0.129553
   117  C    0.042273
   118  O   -0.188426
   119  C    0.001056
   120  C    0.211163
   121  O   -0.251632
   122  O   -0.305612
   123  C    0.152313
   124  H   -0.021172
   125  H   -0.018255
   126  H   -0.028843
   127  H   -0.001249
   128  H   -0.005155
   129  H    0.021984
   130  H    0.014275
   131  H    0.015211
   132  H    0.013985
   133  H    0.037337
   134  H    0.020498
   135  H    0.019275
   136  H    0.008249
   137  H    0.024348
   138  H    0.038806
   139  H    0.038435
   140  H    0.030909
   141  H    0.035549
   142  H    0.014766
   143  H    0.014394
   144  H    0.019194
   145  H    0.009144
   146  H    0.005601
   147  H   -0.000939
   148  H    0.032418
   149  H    0.032279
   150  H    0.085694
   151  H    0.023813
   152  H    0.045266
   153  H    0.017112
   154  H    0.045738
   155  H    0.034295
   156  H    0.043438
   157  H    0.049223
   158  H    0.053047
 Sum of Mulliken charges =  -0.00000

 Dipole moment (field-independent basis, Debye):
    X=              1.4437    Y=              6.3658    Z=             -3.5770  Tot=              7.4434
 Quadrupole moment (field-independent basis, Debye-Ang):
   XX=           -454.2347   YY=           -538.2314   ZZ=           -484.8696
   XY=            -26.5403   XZ=             -9.8837   YZ=             -1.9866

 Normal termination of Gaussian 16 at Wed Sep  8 15:14:36 2021.
