 Gaussian 16, Revision A.03,
 Gaussian 16:  ES64L-G16RevA.03 25-Dec-2016

 -----------------------------------
 #p cam-b3lyp/Def2SVP td=(nstates=5)
 -----------------------------------

 --------------------------------
 TDDFT excited states in gaussian
 --------------------------------
 Symbolic Z-matrix:
 Charge =  0 Multiplicity = 1

                         Standard orientation:
 ---------------------------------------------------------------------
 Center     Atomic      Atomic             Coordinates (Angstroms)
 Number     Number       Type             X           Y           Z
 ---------------------------------------------------------------------
      1         12           0       -4.212181   -1.019023    0.257292
      2          6           0       -4.565647    1.906814    2.288733
      3          6           0       -5.389759    0.833795   -2.354879
      4          6           0       -4.339598   -3.694007   -1.441191
      5          6           0       -4.158807   -2.878755    3.204190
      6          7           0       -4.859875    1.092731    0.110201
      7          6           0       -4.890027    2.124543    0.947832
      8          6           0       -5.226103    3.476697    0.250620
      9          6           0       -6.000338    2.916299   -1.025512
     10          6           0       -5.354187    1.545283   -1.118937
     11          6           0       -7.498391    2.738932   -0.799949
     12          6           0       -3.939919    4.268772   -0.161787
     13          6           0       -4.169937    5.732686   -0.548311
     14          1           0       -3.156537    6.716738   -0.199014
     15          7           0       -4.309971   -1.292457   -1.696812
     16          6           0       -4.804671   -0.424907   -2.612189
     17          6           0       -4.654616   -1.088311   -3.925224
     18          6           0       -4.207523   -2.487553   -3.679613
     19          6           0       -4.294166   -2.556132   -2.243240
     20          6           0       -4.878649   -0.389010   -5.230803
     21          6           0       -3.781433   -3.591496   -4.594975
     22          8           0       -3.655610   -4.798441   -4.192450
     23          6           0       -3.598386   -3.234855   -6.013546
     24          7           0       -4.465230   -3.023590    0.781994
     25          6           0       -4.423531   -3.989406   -0.142368
     26          6           0       -4.343880   -5.347274    0.489921
     27          6           0       -4.093759   -5.095948    2.046850
     28          6           0       -4.158491   -3.548669    2.049512
     29          6           0       -5.577153   -6.243043    0.309245
     30          6           0       -2.858467   -5.783580    2.680598
     31          6           0       -1.590671   -5.181364    2.117457
     32          7           0       -4.159466   -0.584424    2.383178
     33          6           0       -4.164964   -1.513095    3.433993
     34          6           0       -4.231343   -0.743746    4.690084
     35          6           0       -4.276870    0.587121    4.279516
     36          6           0       -4.267678    0.644369    2.856516
     37          6           0       -4.301416   -1.292712    6.000870
     38          6           0       -4.356001    1.973120    4.711494
     39          8           0       -4.299817    2.546636    5.800261
     40          6           0       -4.669035    2.877538    3.438755
     41          6           0       -3.717079    4.042215    3.463577
     42          8           0       -2.491922    3.870677    3.299476
     43          8           0       -4.415385    5.187754    3.438049
     44          6           0       -3.529672    6.382584    3.431095
     45          1           0       -5.966341    1.246462   -3.185060
     46          1           0       -4.273302   -4.638202   -1.985745
     47          1           0       -4.060590   -3.387598    4.164859
     48          1           0       -5.880307    4.133540    0.824203
     49          1           0       -5.784254    3.498856   -1.920865
     50          1           0       -7.766631    2.905138    0.243288
     51          1           0       -7.716713    1.710986   -1.090045
     52          1           0       -8.070037    3.370238   -1.480722
     53          1           0       -3.568769    3.882377   -1.111002
     54          1           0       -3.186526    4.217744    0.625055
     55          1           0       -5.157893    6.075837   -0.239929
     56          1           0       -4.187118    5.800062   -1.636137
     57          1           0       -5.358720    0.578543   -5.089671
     58          1           0       -5.609876   -0.976725   -5.785427
     59          1           0       -3.960629   -0.301008   -5.812031
     60          1           0       -4.534419   -2.839877   -6.408999
     61          1           0       -3.207090   -4.127664   -6.499992
     62          1           0       -2.870565   -2.425918   -6.083171
     63          1           0       -3.511952   -5.920211    0.082410
     64          1           0       -4.930509   -5.438560    2.656064
     65          1           0       -5.356642   -7.202389   -0.159515
     66          1           0       -6.316106   -5.686926   -0.266928
     67          1           0       -6.128892   -6.451467    1.225521
     68          1           0       -2.846803   -6.844611    2.433568
     69          1           0       -2.826863   -5.695547    3.766647
     70          1           0       -1.453739   -5.729405    1.185936
     71          1           0       -0.754610   -5.350999    2.796749
     72          1           0       -1.728965   -4.131025    1.860263
     73          1           0       -3.618736   -0.705093    6.614564
     74          1           0       -4.028138   -2.347660    6.003476
     75          1           0       -5.354944   -1.133705    6.230331
     76          1           0       -5.707341    3.195501    3.527876
     77          1           0       -3.821448    7.003360    4.278290
     78          1           0       -3.605104    6.818431    2.434726
     79          1           0       -2.478155    6.204470    3.658968
     80         12           0        4.736309   -0.229062   -0.201675
     81          6           0        2.498443    1.892869   -2.037000
     82          6           0        6.935281    2.378113   -0.159619
     83          6           0        6.900811   -2.203744    1.016117
     84          6           0        2.890056   -2.947028   -1.363436
     85          7           0        4.617439    1.820287   -1.025255
     86          6           0        3.693260    2.534628   -1.649708
     87          6           0        4.037479    4.040727   -1.800506
     88          6           0        5.636816    3.932697   -1.703953
     89          6           0        5.745981    2.650151   -0.881877
     90          6           0        6.306319    3.697164   -3.047687
     91          6           0        3.448839    4.908210   -0.633039
     92          6           0        3.480479    6.418868   -0.875254
     93          1           0        2.380338    7.229519   -0.360477
     94          7           0        6.422275    0.155847    0.771958
     95          6           0        7.173286    1.273981    0.688073
     96          6           0        8.319999    1.056544    1.583597
     97          6           0        8.270718   -0.346781    2.076533
     98          6           0        7.183944   -0.870256    1.273422
     99          6           0        9.279797    2.148844    1.956517
    100          6           0        9.077633   -1.097369    3.092258
    101          8           0        9.017755   -2.373958    3.190000
    102          6           0       10.009557   -0.303217    3.906088
    103          7           0        5.007790   -2.285307   -0.344832
    104          6           0        5.997530   -2.900329    0.326059
    105          6           0        5.829274   -4.400637    0.292156
    106          6           0        4.382181   -4.656518   -0.338729
    107          6           0        3.983319   -3.198698   -0.656616
    108          6           0        6.877737   -5.169634   -0.511423
    109          6           0        3.398077   -5.528519    0.488220
    110          6           0        2.998034   -4.799264    1.750563
    111          7           0        2.904252   -0.503689   -1.313516
    112          6           0        2.325038   -1.727595   -1.714327
    113          6           0        1.148010   -1.400806   -2.545124
    114          6           0        1.137367    0.001485   -2.589398
    115          6           0        2.242223    0.512171   -1.855914
    116          6           0        0.289575   -2.342984   -3.178778
    117          6           0        0.448815    1.165628   -3.098666
    118          8           0       -0.600793    1.354913   -3.712038
    119          6           0        1.371603    2.439246   -2.869056
    120          6           0        0.521979    3.526586   -2.270432
    121          8           0        0.033256    3.393732   -1.134602
    122          8           0        0.605631    4.626034   -3.041539
    123          6           0       -0.211586    5.735927   -2.482877
    124          1           0        7.783967    3.051060   -0.285190
    125          1           0        7.555264   -2.927901    1.506788
    126          1           0        2.206019   -3.736651   -1.681658
    127          1           0        3.751026    4.479437   -2.748801
    128          1           0        6.057177    4.772884   -1.157369
    129          1           0        5.584967    3.522838   -3.832164
    130          1           0        6.937087    2.828116   -2.913767
    131          1           0        6.980586    4.525535   -3.283252
    132          1           0        4.118346    4.842923    0.234281
    133          1           0        2.448580    4.600962   -0.397007
    134          1           0        3.679613    6.663823   -1.925628
    135          1           0        4.332830    6.839026   -0.335823
    136          1           0        9.159867    3.027506    1.310771
    137          1           0       10.286460    1.780945    1.730378
    138          1           0        9.228904    2.410894    3.015482
    139          1           0       10.713149    0.208345    3.253612
    140          1           0       10.429273   -1.000476    4.633788
    141          1           0        9.442049    0.474899    4.428667
    142          1           0        5.854907   -4.815351    1.292385
    143          1           0        4.445150   -5.182428   -1.302727
    144          1           0        7.406789   -5.937768    0.083683
    145          1           0        7.580328   -4.458261   -0.924761
    146          1           0        6.501849   -5.668002   -1.403365
    147          1           0        3.886320   -6.453254    0.805471
    148          1           0        2.503936   -5.807806   -0.059046
    149          1           0        3.823895   -5.017903    2.434117
    150          1           0        2.055686   -5.185464    2.133800
    151          1           0        2.981152   -3.714993    1.590155
    152          1           0       -0.723164   -1.996351   -3.021596
    153          1           0        0.434388   -3.344463   -2.778971
    154          1           0        0.636996   -2.259291   -4.212012
    155          1           0        1.780817    2.726355   -3.838429
    156          1           0       -0.899839    6.054419   -3.271900
    157          1           0        0.514137    6.485307   -2.114781
    158          1           0       -0.902794    5.496151   -1.683391
 ---------------------------------------------------------------------

 SCF Done:  E(RCAM-B3LYP) =  -4069.81358373     A.U. after   19 cycles

 Excitation energies and oscillator strengths:

 Excited State   1:      Singlet-A      1.6432 eV  754.54 nm  f=0.2093  <S**2>=0.000
     309 -> 315        0.12363
     310 -> 316        0.10882
     311 -> 313        0.50976
     312 -> 314        0.45864
 This state for optimization and/or second-order correction.
 Total Energy, E(TD-HF/TD-DFT) =  -4069.75319782
 Copying the excited state density for this state as the 1-particle RhoCI density.

 Excited State   2:      Singlet-A      1.7016 eV  728.64 nm  f=0.5467  <S**2>=0.000
     309 -> 315       -0.12012
     310 -> 316        0.13323
     311 -> 313       -0.45794
     312 -> 314        0.50854

 Excited State   3:      Singlet-A      2.1765 eV  569.66 nm  f=0.0059  <S**2>=0.000
     309 -> 313        0.52056
     310 -> 314        0.38178
     311 -> 315       -0.21480
     312 -> 316       -0.15545

 Excited State   4:      Singlet-A      2.1945 eV  564.97 nm  f=0.1638  <S**2>=0.000
     309 -> 313       -0.37740
     310 -> 314        0.51482
     311 -> 315        0.16466
     312 -> 316       -0.22562

 Excited State   5:      Singlet-A      2.2428 eV  552.81 nm  f=0.0001  <S**2>=0.000
     312 -> 313        0.70383

 The electronic state is 1-A.
 Alpha  occ. eigenvalues --  -46.87567 -46.87123 -19.26446 -19.25755 -19.19229
 Alpha  occ. eigenvalues --  -19.18634 -19.18393 -19.18313 -19.18163 -19.17596
 Alpha  occ. eigenvalues --  -14.42406 -14.41776 -14.41277 -14.40844 -14.39266
 Alpha  occ. eigenvalues --  -14.38754 -14.38521 -14.37937 -10.39127 -10.38462
 Alpha  occ. eigenvalues --  -10.35310 -10.34950 -10.34318 -10.33814 -10.31909
 Alpha  occ. eigenvalues --  -10.31274 -10.31245 -10.30945 -10.30740 -10.30324
 Alpha  occ. eigenvalues --  -10.30296 -10.30219 -10.30036 -10.29948 -10.29907
 Alpha  occ. eigenvalues --  -10.29819 -10.29630 -10.29401 -10.29338 -10.29333
 Alpha  occ. eigenvalues --  -10.29044 -10.28646 -10.28609 -10.28579 -10.28342
 Alpha  occ. eigenvalues --  -10.28229 -10.28084 -10.28077 -10.27937 -10.27696
 Alpha  occ. eigenvalues --  -10.27588 -10.27476 -10.27414 -10.27410 -10.27396
 Alpha  occ. eigenvalues --  -10.27383 -10.27285 -10.27158 -10.27121 -10.27092
 Alpha  occ. eigenvalues --  -10.27085 -10.27056 -10.26973 -10.26771 -10.26652
 Alpha  occ. eigenvalues --  -10.26570 -10.26561 -10.26322 -10.26010 -10.25994
 Alpha  occ. eigenvalues --  -10.25945 -10.25876 -10.25866 -10.25828 -10.25697
 Alpha  occ. eigenvalues --  -10.25675 -10.25430 -10.25351 -10.25320 -10.25106
 Alpha  occ. eigenvalues --  -10.24825 -10.24617 -10.24606 -10.24563 -10.24222
 Alpha  occ. eigenvalues --  -10.24211  -3.16315  -3.15861  -1.91196  -1.90786
 Alpha  occ. eigenvalues --   -1.90742  -1.90623  -1.90330  -1.90173  -1.16731
 Alpha  occ. eigenvalues --   -1.16086  -1.08766  -1.08061  -1.07000  -1.06885
 Alpha  occ. eigenvalues --   -1.06730  -1.06029  -1.04415  -1.03912  -1.03582
 Alpha  occ. eigenvalues --   -1.03155  -1.02958  -1.02605  -1.02035  -1.01787
 Alpha  occ. eigenvalues --   -0.91948  -0.91350  -0.89409  -0.89077  -0.89060
 Alpha  occ. eigenvalues --   -0.88545  -0.88130  -0.87826  -0.87697  -0.87597
 Alpha  occ. eigenvalues --   -0.87284  -0.87040  -0.87028  -0.86625  -0.84923
 Alpha  occ. eigenvalues --   -0.84388  -0.83796  -0.83544  -0.82849  -0.82593
 Alpha  occ. eigenvalues --   -0.82421  -0.82081  -0.81594  -0.81049  -0.80401
 Alpha  occ. eigenvalues --   -0.80021  -0.78553  -0.78161  -0.77060  -0.76860
 Alpha  occ. eigenvalues --   -0.76701  -0.76417  -0.75807  -0.75360  -0.74739
 Alpha  occ. eigenvalues --   -0.74432  -0.72612  -0.72192  -0.71522  -0.71110
 Alpha  occ. eigenvalues --   -0.69658  -0.69546  -0.68760  -0.68296  -0.67543
 Alpha  occ. eigenvalues --   -0.67113  -0.67062  -0.66615  -0.65214  -0.64715
 Alpha  occ. eigenvalues --   -0.64669  -0.64604  -0.64282  -0.64125  -0.64089
 Alpha  occ. eigenvalues --   -0.63756  -0.62289  -0.61762  -0.60261  -0.59859
 Alpha  occ. eigenvalues --   -0.59721  -0.59166  -0.58929  -0.58415  -0.58378
 Alpha  occ. eigenvalues --   -0.57925  -0.57563  -0.57173  -0.57001  -0.56778
 Alpha  occ. eigenvalues --   -0.56134  -0.55896  -0.55714  -0.55436  -0.55403
 Alpha  occ. eigenvalues --   -0.55200  -0.54966  -0.54883  -0.54455  -0.54046
 Alpha  occ. eigenvalues --   -0.53838  -0.53265  -0.53153  -0.53093  -0.52852
 Alpha  occ. eigenvalues --   -0.52761  -0.52632  -0.52588  -0.52375  -0.52294
 Alpha  occ. eigenvalues --   -0.52178  -0.52048  -0.51767  -0.51581  -0.51373
 Alpha  occ. eigenvalues --   -0.51166  -0.50983  -0.50653  -0.50389  -0.49954
 Alpha  occ. eigenvalues --   -0.49899  -0.49789  -0.49551  -0.49420  -0.49320
 Alpha  occ. eigenvalues --   -0.49163  -0.49079  -0.48940  -0.48628  -0.48549
 Alpha  occ. eigenvalues --   -0.48518  -0.48345  -0.48264  -0.48081  -0.47960
 Alpha  occ. eigenvalues --   -0.47882  -0.47539  -0.47142  -0.47047  -0.46719
 Alpha  occ. eigenvalues --   -0.46628  -0.46484  -0.46272  -0.46195  -0.46022
 Alpha  occ. eigenvalues --   -0.45968  -0.45798  -0.45752  -0.45631  -0.45309
 Alpha  occ. eigenvalues --   -0.45137  -0.44758  -0.44473  -0.44395  -0.44118
 Alpha  occ. eigenvalues --   -0.44058  -0.44007  -0.43977  -0.43884  -0.43664
 Alpha  occ. eigenvalues --   -0.43577  -0.43502  -0.43437  -0.43320  -0.42965
 Alpha  occ. eigenvalues --   -0.42947  -0.42864  -0.42811  -0.42518  -0.42451
 Alpha  occ. eigenvalues --   -0.42257  -0.42156  -0.41881  -0.41652  -0.41536
 Alpha  occ. eigenvalues --   -0.41379  -0.41138  -0.40996  -0.40932  -0.40639
 Alpha  occ. eigenvalues --   -0.40613  -0.40594  -0.40408  -0.40378  -0.40287
 Alpha  occ. eigenvalues --   -0.40131  -0.40093  -0.39560  -0.39324  -0.39104
 Alpha  occ. eigenvalues --   -0.38259  -0.38018  -0.37572  -0.37198  -0.37180
 Alpha  occ. eigenvalues --   -0.37123  -0.36802  -0.36793  -0.36632  -0.36181
 Alpha  occ. eigenvalues --   -0.36145  -0.35640  -0.34177  -0.33869  -0.33662
 Alpha  occ. eigenvalues --   -0.33135  -0.33102  -0.32558  -0.31192  -0.30899
 Alpha  occ. eigenvalues --   -0.30846  -0.30423  -0.30050  -0.29458  -0.29263
 Alpha  occ. eigenvalues --   -0.29160  -0.28813  -0.28693  -0.23955  -0.23437
 Alpha  occ. eigenvalues --   -0.21040  -0.20496
 Alpha virt. eigenvalues --   -0.08726  -0.08138  -0.01597  -0.01155   0.00034
 Alpha virt. eigenvalues --    0.00558   0.02212   0.02766   0.03290   0.04050
 Alpha virt. eigenvalues --    0.04797   0.05095   0.05232   0.05701   0.06094

 Mulliken charges:
               1
     1  Mg   0.843375
     2  C    0.001213
     3  C   -0.086163
     4  C   -0.049686
     5  C   -0.065668
     6  N   -0.256717
     7  C   -0.048592
     8  C   -0.015845
     9  C   -0.089377
    10  C    0.050625
    11  C    0.105276
    12  C    0.053357
    13  C   -0.074709
    14  H    0.028586
    15  N   -0.434433
    16  C    0.178619
    17  C   -0.169603
    18  C   -0.006197
    19  C    0.145739
    20  C    0.112236
    21  C    0.010325
    22  O   -0.253419
    23  C    0.061795
    24  N   -0.341175
    25  C    0.041852
    26  C   -0.027845
    27  C   -0.023396
    28  C    0.074023
    29  C    0.076734
    30  C    0.037056
    31  C   -0.012029
    32  N   -0.310407
    33  C    0.080161
    34  C   -0.171284
    35  C    0.007279
    36  C    0.083582
    37  C    0.127598
    38  C    0.045941
    39  O   -0.190943
    40  C   -0.006261
    41  C    0.211335
    42  O   -0.252577
    43  O   -0.305737
    44  C    0.159079
    45  H   -0.019169
    46  H   -0.019602
    47  H   -0.043843
    48  H   -0.001872
    49  H   -0.003715
    50  H    0.024442
    51  H    0.015872
    52  H    0.014936
    53  H    0.021154
    54  H    0.052830
    55  H    0.017287
    56  H    0.015289
    57  H    0.005656
    58  H    0.022671
    59  H    0.048157
    60  H    0.037047
    61  H    0.032384
    62  H    0.036039
    63  H    0.013450
    64  H    0.008688
    65  H    0.021513
    66  H    0.012891
    67  H    0.003991
    68  H    0.004401
    69  H    0.004110
    70  H    0.005347
    71  H    0.022271
    72  H    0.032857
    73  H    0.046286
    74  H    0.007654
    75  H    0.044606
    76  H    0.033527
    77  H    0.040882
    78  H    0.044872
    79  H    0.053295
    80  Mg   0.840488
    81  C   -0.015411
    82  C   -0.087762
    83  C   -0.045329
    84  C   -0.065006
    85  N   -0.254779
    86  C   -0.049172
    87  C   -0.015836
    88  C   -0.090667
    89  C    0.046596
    90  C    0.114527
    91  C    0.062105
    92  C   -0.077622
    93  H    0.034436
    94  N   -0.423412
    95  C    0.163771
    96  C   -0.174467
    97  C   -0.007451
    98  C    0.152492
    99  C    0.099421
   100  C    0.015929
   101  O   -0.253133
   102  C    0.060987
   103  N   -0.350053
   104  C    0.037707
   105  C   -0.020058
   106  C   -0.034057
   107  C    0.088713
   108  C    0.073742
   109  C    0.033720
   110  C   -0.009260
   111  N   -0.323704
   112  C    0.077485
   113  C   -0.164177
   114  C   -0.000790
   115  C    0.097388
   116  C    0.125905
   117  C    0.043164
   118  O   -0.193672
   119  C    0.001237
   120  C    0.208622
   121  O   -0.245338
   122  O   -0.306102
   123  C    0.151158
   124  H   -0.019903
   125  H   -0.015552
   126  H   -0.038904
   127  H   -0.001881
   128  H   -0.004159
   129  H    0.021734
   130  H    0.014389
   131  H    0.015991
   132  H    0.015308
   133  H    0.040718
   134  H    0.019483
   135  H    0.019746
   136  H    0.008731
   137  H    0.025923
   138  H    0.040434
   139  H    0.038012
   140  H    0.036415
   141  H    0.034563
   142  H    0.014543
   143  H    0.012689
   144  H    0.024976
   145  H    0.011358
   146  H    0.005714
   147  H    0.005512
   148  H    0.005007
   149  H    0.010185
   150  H    0.018465
   151  H    0.031061
   152  H    0.051605
   153  H    0.014651
   154  H    0.043040
   155  H    0.033652
   156  H    0.040091
   157  H    0.050211
   158  H    0.053928
 Sum of Mulliken charges =  -0.00000

 Dipole moment (field-independent basis, Debye):
    X=              1.9859    Y=              3.0925    Z=             -4.3058  Tot=              5.6610
 Quadrupole moment (field-independent basis, Debye-Ang):
   XX=           -477.4365   YY=           -467.8768   ZZ=           -528.6590
   XY=             21.9768   XZ=              8.4458   YZ=            -26.3178

 Normal termination of Gaussian 16 at Thu Sep  9 20:45:44 2021.
