 Gaussian 16, Revision A.03,
 Gaussian 16:  ES64L-G16RevA.03 25-Dec-2016

 -----------------------------------
 #p cam-b3lyp/Def2SVP td=(nstates=5)
 -----------------------------------

 --------------------------------
 TDDFT excited states in gaussian
 --------------------------------
 Symbolic Z-matrix:
 Charge =  0 Multiplicity = 1

                         Standard orientation:
 ---------------------------------------------------------------------
 Center     Atomic      Atomic             Coordinates (Angstroms)
 Number     Number       Type             X           Y           Z
 ---------------------------------------------------------------------
      1         12           0       -7.843933    0.656762    0.411493
      2          6           0       -8.185783   -2.171559   -1.755522
      3          6           0       -8.566366   -1.434112    3.009454
      4          6           0       -7.995486    3.211947    2.283572
      5          6           0       -8.273074    2.674642   -2.397361
      6          7           0       -8.297961   -1.508490    0.490154
      7          6           0       -8.338567   -2.490912   -0.404479
      8          6           0       -8.483557   -3.903892    0.235709
      9          6           0       -9.152102   -3.485108    1.621228
     10          6           0       -8.612610   -2.070081    1.733352
     11          6           0      -10.675429   -3.427358    1.569836
     12          6           0       -7.099297   -4.601956    0.455394
     13          6           0       -7.165162   -6.099570    0.768715
     14          1           0       -6.121211   -6.970204    0.249571
     15          7           0       -7.743070    0.811746    2.378383
     16          6           0       -8.059822   -0.145233    3.283449
     17          6           0       -7.817177    0.454889    4.612982
     18          6           0       -7.515247    1.899369    4.411957
     19          6           0       -7.768194    2.039682    3.000678
     20          6           0       -7.835590   -0.332695    5.887000
     21          6           0       -7.079615    2.983891    5.345857
     22          8           0       -7.097947    4.217683    5.011201
     23          6           0       -6.709889    2.566497    6.710454
     24          7           0       -8.315766    2.657482    0.048000
     25          6           0       -8.248627    3.570463    1.023163
     26          6           0       -8.350746    4.963069    0.475297
     27          6           0       -8.257856    4.821378   -1.112484
     28          6           0       -8.197066    3.276914   -1.208429
     29          6           0       -9.624276    5.735999    0.845046
     30          6           0       -7.161417    5.648633   -1.829346
     31          6           0       -5.793773    5.129431   -1.445840
     32          7           0       -7.995722    0.347064   -1.731424
     33          6           0       -8.194525    1.328550   -2.713176
     34          6           0       -8.339321    0.627221   -4.002067
     35          6           0       -8.230535   -0.723241   -3.676087
     36          6           0       -8.056714   -0.858324   -2.269022
     37          6           0       -8.600598    1.239816   -5.259403
     38          6           0       -8.245353   -2.084736   -4.185960
     39          8           0       -8.265791   -2.589838   -5.309324
     40          6           0       -8.339006   -3.082304   -2.948255
     41          6           0       -7.304788   -4.155972   -3.150590
     42          8           0       -6.086869   -3.887183   -3.108257
     43          8           0       -7.900795   -5.357903   -3.124489
     44          6           0       -6.926167   -6.469125   -3.290138
     45          1           0       -9.010600   -1.941102    3.868266
     46          1           0       -7.944967    4.126648    2.877885
     47          1           0       -8.325051    3.242642   -3.328021
     48          1           0       -9.142829   -4.582659   -0.305641
     49          1           0       -8.790240   -4.095279    2.448554
     50          1           0      -11.044996   -3.558277    0.552878
     51          1           0      -10.942185   -2.440161    1.947695
     52          1           0      -11.113892   -4.143087    2.265722
     53          1           0       -6.656207   -4.237807    1.382286
     54          1           0       -6.445821   -4.441579   -0.402845
     55          1           0       -8.150513   -6.510272    0.546644
     56          1           0       -7.054346   -6.228439    1.845428
     57          1           0       -8.248618   -1.329242    5.735851
     58          1           0       -8.544921    0.157054    6.553862
     59          1           0       -6.853919   -0.372084    6.359337
     60          1           0       -7.560444    2.069744    7.177725
     61          1           0       -6.339884    3.461772    7.208882
     62          1           0       -5.915804    1.821786    6.648943
     63          1           0       -7.527359    5.583158    0.827361
     64          1           0       -9.182791    5.122674   -1.604816
     65          1           0       -9.430781    6.683478    1.348581
     66          1           0      -10.246282    5.086206    1.460001
     67          1           0      -10.290635    5.945822    0.008771
     68          1           0       -7.207927    6.691263   -1.516769
     69          1           0       -7.245174    5.624095   -2.915915
     70          1           0       -5.597711    5.634830   -0.500872
     71          1           0       -5.055923    5.409048   -2.198570
     72          1           0       -5.816812    4.058372   -1.243881
     73          1           0       -7.945998    0.749189   -5.979648
     74          1           0       -8.415610    2.313155   -5.222984
     75          1           0       -9.656910    1.002145   -5.384202
     76          1           0       -9.351592   -3.484528   -2.945756
     77          1           0       -7.260207   -7.065103   -4.139527
     78          1           0       -6.853514   -6.964508   -2.321778
     79          1           0       -5.924842   -6.187253   -3.617607
     80         12           0        8.009337    0.623266   -0.551567
     81          6           0        7.911037   -2.432834    1.327164
     82          6           0        7.312404    2.260040    2.358734
     83          6           0        7.643720    3.279099   -2.248729
     84          6           0        7.561214   -1.292969   -3.427830
     85          7           0        7.677350   -0.102483    1.511273
     86          6           0        7.725735   -1.279236    2.117293
     87          6           0        7.646840   -1.208876    3.665961
     88          6           0        6.897303    0.204575    3.804584
     89          6           0        7.347186    0.849262    2.495137
     90          6           0        5.382346    0.087053    3.783334
     91          6           0        9.065351   -1.174958    4.335813
     92          6           0        9.069001   -1.417402    5.846758
     93          1           0       10.186730   -2.153576    6.430868
     94          7           0        8.032241    2.524377    0.017497
     95          6           0        7.744891    3.010382    1.243266
     96          6           0        7.886768    4.471017    1.140345
     97          6           0        8.120537    4.820156   -0.287292
     98          6           0        7.916046    3.528382   -0.911469
     99          6           0        7.876201    5.375972    2.338002
    100          6           0        8.458057    6.106676   -0.978052
    101          8           0        8.381245    6.227356   -2.251770
    102          6           0        8.790896    7.247692   -0.112715
    103          7           0        7.443357    0.970906   -2.521628
    104          6           0        7.415696    2.218160   -3.023156
    105          6           0        7.249266    2.199058   -4.523930
    106          6           0        7.414244    0.667869   -4.955021
    107          6           0        7.565343    0.026558   -3.558141
    108          6           0        5.919367    2.735896   -5.052645
    109          6           0        8.486680    0.351950   -6.033325
    110          6           0        9.868861    0.608203   -5.477172
    111          7           0        7.960227   -1.484365   -1.024349
    112          6           0        7.733548   -2.069737   -2.289271
    113          6           0        7.678260   -3.532296   -2.088560
    114          6           0        7.855053   -3.696337   -0.706416
    115          6           0        7.989422   -2.424641   -0.086538
    116          6           0        7.438591   -4.502589   -3.102076
    117          6           0        7.947929   -4.655582    0.370580
    118          8           0        7.991434   -5.883243    0.439088
    119          6           0        7.861802   -3.874242    1.752063
    120          6           0        8.964099   -4.380515    2.641526
    121          8           0       10.155850   -4.184698    2.344920
    122          8           0        8.431835   -4.818151    3.797192
    123          6           0        9.487107   -5.320130    4.717104
    124          1           0        6.873630    2.848572    3.164954
    125          1           0        7.618010    4.158375   -2.896552
    126          1           0        7.522645   -1.964420   -4.288263
    127          1           0        7.054695   -1.990498    4.126620
    128          1           0        7.271310    0.768239    4.655336
    129          1           0        5.059383   -0.918706    3.559081
    130          1           0        5.044848    0.772521    3.016996
    131          1           0        4.962427    0.455696    4.723597
    132          1           0        9.449238   -0.147015    4.309530
    133          1           0        9.729455   -1.868035    3.857017
    134          1           0        8.113968   -1.823776    6.201325
    135          1           0        9.154176   -0.452684    6.352795
    136          1           0        7.521059    4.852759    3.234396
    137          1           0        7.116641    6.143096    2.152428
    138          1           0        8.838468    5.864568    2.505246
    139          1           0        7.955565    7.451902    0.552861
    140          1           0        9.089680    8.050432   -0.789625
    141          1           0        9.638880    6.969123    0.522842
    142          1           0        8.021955    2.785117   -5.006199
    143          1           0        6.486974    0.264163   -5.387504
    144          1           0        6.039520    3.568120   -5.771701
    145          1           0        5.316949    3.046108   -4.209194
    146          1           0        5.280973    1.996315   -5.532932
    147          1           0        8.368885    1.018417   -6.891284
    148          1           0        8.437158   -0.665475   -6.406683
    149          1           0        9.994509    1.686248   -5.615371
    150          1           0       10.616422    0.048852   -6.036027
    151          1           0        9.903047    0.407760   -4.399994
    152          1           0        8.139652   -5.309091   -2.933009
    153          1           0        7.554370   -4.075991   -4.096237
    154          1           0        6.398474   -4.759395   -2.884175
    155          1           0        6.874598   -4.064357    2.174958
    156          1           0        9.216826   -6.346600    4.983550
    157          1           0        9.540699   -4.583434    5.540611
    158          1           0       10.481167   -5.462193    4.309528
 ---------------------------------------------------------------------

 SCF Done:  E(RCAM-B3LYP) =  -4069.81180531     A.U. after   19 cycles

 Excitation energies and oscillator strengths:

 Excited State   1:      Singlet-A      1.6739 eV  740.70 nm  f=0.2779  <S**2>=0.000
     310 -> 316        0.15559
     311 -> 313       -0.30136
     312 -> 314        0.61636
 This state for optimization and/or second-order correction.
 Total Energy, E(TD-HF/TD-DFT) =  -4069.75029178
 Copying the excited state density for this state as the 1-particle RhoCI density.

 Excited State   2:      Singlet-A      1.6807 eV  737.67 nm  f=0.4712  <S**2>=0.000
     309 -> 315        0.15774
     311 -> 313        0.61592
     312 -> 314        0.30126

 Excited State   3:      Singlet-A      2.1859 eV  567.21 nm  f=0.0976  <S**2>=0.000
     310 -> 314        0.64138
     312 -> 316       -0.27259

 Excited State   4:      Singlet-A      2.1921 eV  565.60 nm  f=0.1016  <S**2>=0.000
     309 -> 313        0.63963
     311 -> 315       -0.27747

 Excited State   5:      Singlet-A      2.7657 eV  448.30 nm  f=0.0000  <S**2>=0.000
     312 -> 313        0.70710

 The electronic state is 1-A.
 Alpha  occ. eigenvalues --  -46.87834 -46.87592 -19.26323 -19.26289 -19.19127
 Alpha  occ. eigenvalues --  -19.19031 -19.18874 -19.18653 -19.18199 -19.17995
 Alpha  occ. eigenvalues --  -14.42485 -14.42433 -14.41488 -14.41287 -14.39443
 Alpha  occ. eigenvalues --  -14.39285 -14.38624 -14.38532 -10.39092 -10.39055
 Alpha  occ. eigenvalues --  -10.35509 -10.35330 -10.34418 -10.34173 -10.31742
 Alpha  occ. eigenvalues --  -10.31672 -10.31435 -10.31247 -10.30964 -10.30943
 Alpha  occ. eigenvalues --  -10.30605 -10.30547 -10.30329 -10.30295 -10.30249
 Alpha  occ. eigenvalues --  -10.30066 -10.29958 -10.29819 -10.29671 -10.29367
 Alpha  occ. eigenvalues --  -10.29335 -10.29296 -10.28769 -10.28676 -10.28636
 Alpha  occ. eigenvalues --  -10.28535 -10.28402 -10.28341 -10.28139 -10.28093
 Alpha  occ. eigenvalues --  -10.27934 -10.27831 -10.27762 -10.27627 -10.27605
 Alpha  occ. eigenvalues --  -10.27542 -10.27530 -10.27492 -10.27437 -10.27427
 Alpha  occ. eigenvalues --  -10.27420 -10.27408 -10.27401 -10.27287 -10.27182
 Alpha  occ. eigenvalues --  -10.27001 -10.26716 -10.26660 -10.26485 -10.26360
 Alpha  occ. eigenvalues --  -10.26255 -10.26226 -10.26057 -10.26053 -10.25978
 Alpha  occ. eigenvalues --  -10.25876 -10.25860 -10.25769 -10.25476 -10.25291
 Alpha  occ. eigenvalues --  -10.24869 -10.24827 -10.24807 -10.24734 -10.24656
 Alpha  occ. eigenvalues --  -10.24620  -3.16577  -3.16342  -1.91459  -1.91224
 Alpha  occ. eigenvalues --   -1.91046  -1.90888  -1.90813  -1.90650  -1.16639
 Alpha  occ. eigenvalues --   -1.16615  -1.08655  -1.08605  -1.07276  -1.06912
 Alpha  occ. eigenvalues --   -1.06905  -1.06653  -1.04615  -1.04432  -1.03798
 Alpha  occ. eigenvalues --   -1.03596  -1.03272  -1.02968  -1.02449  -1.02042
 Alpha  occ. eigenvalues --   -0.92004  -0.91926  -0.89559  -0.89420  -0.89210
 Alpha  occ. eigenvalues --   -0.89103  -0.88326  -0.88141  -0.87905  -0.87723
 Alpha  occ. eigenvalues --   -0.87706  -0.87620  -0.87322  -0.87058  -0.85008
 Alpha  occ. eigenvalues --   -0.84948  -0.83975  -0.83799  -0.83022  -0.82867
 Alpha  occ. eigenvalues --   -0.82679  -0.82599  -0.81607  -0.81548  -0.80628
 Alpha  occ. eigenvalues --   -0.80387  -0.78840  -0.78571  -0.77252  -0.77085
 Alpha  occ. eigenvalues --   -0.76957  -0.76843  -0.75947  -0.75787  -0.74934
 Alpha  occ. eigenvalues --   -0.74727  -0.72810  -0.72631  -0.71705  -0.71515
 Alpha  occ. eigenvalues --   -0.69948  -0.69678  -0.68903  -0.68774  -0.67678
 Alpha  occ. eigenvalues --   -0.67539  -0.67247  -0.67153  -0.65311  -0.65221
 Alpha  occ. eigenvalues --   -0.64885  -0.64708  -0.64650  -0.64598  -0.64307
 Alpha  occ. eigenvalues --   -0.64130  -0.62317  -0.62230  -0.60488  -0.60273
 Alpha  occ. eigenvalues --   -0.59832  -0.59742  -0.59022  -0.58927  -0.58538
 Alpha  occ. eigenvalues --   -0.58363  -0.57609  -0.57503  -0.57345  -0.57169
 Alpha  occ. eigenvalues --   -0.56346  -0.56142  -0.55994  -0.55844  -0.55561
 Alpha  occ. eigenvalues --   -0.55398  -0.55372  -0.55180  -0.54550  -0.54426
 Alpha  occ. eigenvalues --   -0.53918  -0.53865  -0.53340  -0.53255  -0.53163
 Alpha  occ. eigenvalues --   -0.53088  -0.52944  -0.52850  -0.52798  -0.52613
 Alpha  occ. eigenvalues --   -0.52479  -0.52325  -0.51948  -0.51811  -0.51646
 Alpha  occ. eigenvalues --   -0.51610  -0.51226  -0.51141  -0.50628  -0.50414
 Alpha  occ. eigenvalues --   -0.50072  -0.49963  -0.49922  -0.49791  -0.49549
 Alpha  occ. eigenvalues --   -0.49432  -0.49249  -0.49147  -0.49121  -0.49050
 Alpha  occ. eigenvalues --   -0.48619  -0.48507  -0.48505  -0.48482  -0.48301
 Alpha  occ. eigenvalues --   -0.48279  -0.47729  -0.47536  -0.47334  -0.47053
 Alpha  occ. eigenvalues --   -0.46831  -0.46644  -0.46579  -0.46503  -0.46395
 Alpha  occ. eigenvalues --   -0.46204  -0.46194  -0.46016  -0.45846  -0.45765
 Alpha  occ. eigenvalues --   -0.45240  -0.45131  -0.44607  -0.44547  -0.44459
 Alpha  occ. eigenvalues --   -0.44420  -0.44184  -0.44115  -0.44071  -0.44053
 Alpha  occ. eigenvalues --   -0.44012  -0.43884  -0.43519  -0.43504  -0.43417
 Alpha  occ. eigenvalues --   -0.43327  -0.43060  -0.42886  -0.42840  -0.42727
 Alpha  occ. eigenvalues --   -0.42679  -0.42480  -0.42043  -0.41901  -0.41737
 Alpha  occ. eigenvalues --   -0.41609  -0.41559  -0.41405  -0.41173  -0.40927
 Alpha  occ. eigenvalues --   -0.40901  -0.40871  -0.40668  -0.40643  -0.40607
 Alpha  occ. eigenvalues --   -0.40420  -0.40252  -0.40187  -0.39483  -0.39346
 Alpha  occ. eigenvalues --   -0.38505  -0.38275  -0.37768  -0.37610  -0.37357
 Alpha  occ. eigenvalues --   -0.37289  -0.37195  -0.37144  -0.36732  -0.36729
 Alpha  occ. eigenvalues --   -0.36219  -0.36153  -0.34322  -0.34187  -0.33822
 Alpha  occ. eigenvalues --   -0.33787  -0.33222  -0.33109  -0.31403  -0.31211
 Alpha  occ. eigenvalues --   -0.31072  -0.30908  -0.30057  -0.29901  -0.29492
 Alpha  occ. eigenvalues --   -0.29359  -0.29262  -0.29145  -0.24117  -0.23968
 Alpha  occ. eigenvalues --   -0.21165  -0.21049
 Alpha virt. eigenvalues --   -0.08813  -0.08725  -0.01789  -0.01615  -0.00102
 Alpha virt. eigenvalues --    0.00032   0.02165   0.02271   0.03075   0.03288
 Alpha virt. eigenvalues --    0.04690   0.04789   0.05084   0.05203   0.06166

 Mulliken charges:
               1
     1  Mg   0.838566
     2  C   -0.002922
     3  C   -0.094087
     4  C   -0.045989
     5  C   -0.063966
     6  N   -0.256800
     7  C   -0.052365
     8  C   -0.014014
     9  C   -0.086992
    10  C    0.046311
    11  C    0.104797
    12  C    0.053458
    13  C   -0.072031
    14  H    0.036707
    15  N   -0.433103
    16  C    0.168326
    17  C   -0.177218
    18  C   -0.004175
    19  C    0.148652
    20  C    0.110174
    21  C    0.012058
    22  O   -0.249819
    23  C    0.062590
    24  N   -0.341123
    25  C    0.041240
    26  C   -0.028145
    27  C   -0.023998
    28  C    0.074855
    29  C    0.076174
    30  C    0.035132
    31  C   -0.004496
    32  N   -0.310487
    33  C    0.080449
    34  C   -0.169687
    35  C    0.008427
    36  C    0.083013
    37  C    0.127303
    38  C    0.046151
    39  O   -0.188242
    40  C   -0.005305
    41  C    0.212904
    42  O   -0.257093
    43  O   -0.304806
    44  C    0.157607
    45  H   -0.017547
    46  H   -0.016985
    47  H   -0.041437
    48  H    0.001066
    49  H   -0.003946
    50  H    0.025525
    51  H    0.016381
    52  H    0.016759
    53  H    0.011111
    54  H    0.044180
    55  H    0.017902
    56  H    0.017975
    57  H    0.006016
    58  H    0.026808
    59  H    0.039238
    60  H    0.037512
    61  H    0.035285
    62  H    0.031153
    63  H    0.016365
    64  H    0.009547
    65  H    0.023121
    66  H    0.012584
    67  H    0.004831
    68  H    0.006369
    69  H    0.004849
    70  H    0.008556
    71  H    0.018245
    72  H    0.028939
    73  H    0.047618
    74  H    0.009133
    75  H    0.046114
    76  H    0.035255
    77  H    0.043065
    78  H    0.046558
    79  H    0.053822
    80  Mg   0.837972
    81  C   -0.016916
    82  C   -0.087854
    83  C   -0.045398
    84  C   -0.064437
    85  N   -0.254558
    86  C   -0.049792
    87  C   -0.015090
    88  C   -0.090536
    89  C    0.045776
    90  C    0.114386
    91  C    0.062571
    92  C   -0.077738
    93  H    0.034654
    94  N   -0.423487
    95  C    0.162928
    96  C   -0.174634
    97  C   -0.007807
    98  C    0.152124
    99  C    0.099380
   100  C    0.015550
   101  O   -0.253169
   102  C    0.061207
   103  N   -0.350008
   104  C    0.037670
   105  C   -0.019955
   106  C   -0.034927
   107  C    0.088928
   108  C    0.073470
   109  C    0.034720
   110  C   -0.007664
   111  N   -0.324126
   112  C    0.078431
   113  C   -0.162901
   114  C    0.002222
   115  C    0.096261
   116  C    0.131468
   117  C    0.042420
   118  O   -0.188122
   119  C    0.000875
   120  C    0.211216
   121  O   -0.251034
   122  O   -0.305706
   123  C    0.152099
   124  H   -0.019761
   125  H   -0.015525
   126  H   -0.040149
   127  H   -0.000913
   128  H   -0.004537
   129  H    0.022414
   130  H    0.014839
   131  H    0.015895
   132  H    0.013938
   133  H    0.037653
   134  H    0.020544
   135  H    0.019519
   136  H    0.008654
   137  H    0.026203
   138  H    0.039620
   139  H    0.038275
   140  H    0.036294
   141  H    0.033785
   142  H    0.014257
   143  H    0.013092
   144  H    0.025006
   145  H    0.011841
   146  H    0.006407
   147  H    0.006361
   148  H    0.003782
   149  H    0.010848
   150  H    0.017816
   151  H    0.029960
   152  H    0.045776
   153  H    0.008671
   154  H    0.047456
   155  H    0.034915
   156  H    0.043669
   157  H    0.049369
   158  H    0.053557
 Sum of Mulliken charges =  -0.00000

 Dipole moment (field-independent basis, Debye):
    X=             -3.6378    Y=              1.9566    Z=              6.5675  Tot=              7.7585
 Quadrupole moment (field-independent basis, Debye-Ang):
   XX=           -518.5204   YY=           -518.1260   ZZ=           -480.7883
   XY=             38.3332   XZ=             -9.4758   YZ=            -17.4171

 Normal termination of Gaussian 16 at Sat Sep  4 14:45:28 2021.
