 Gaussian 16, Revision A.03,
 Gaussian 16:  ES64L-G16RevA.03 25-Dec-2016

 -----------------------------------
 #p cam-b3lyp/Def2SVP td=(nstates=5)
 -----------------------------------

 --------------------------------
 TDDFT excited states in gaussian
 --------------------------------
 Symbolic Z-matrix:
 Charge =  0 Multiplicity = 1

                         Standard orientation:
 ---------------------------------------------------------------------
 Center     Atomic      Atomic             Coordinates (Angstroms)
 Number     Number       Type             X           Y           Z
 ---------------------------------------------------------------------
      1         12           0        8.113535   -0.516966    0.166762
      2          6           0        8.250925    2.661113   -1.474321
      3          6           0        8.933692    1.105629    3.054251
      4          6           0        8.443731   -3.356091    1.540429
      5          6           0        8.428031   -1.988227   -2.976825
      6          7           0        8.514007    1.615258    0.607092
      7          6           0        8.475316    2.741448   -0.098153
      8          6           0        8.620711    4.023013    0.775819
      9          6           0        9.381345    3.390175    2.025999
     10          6           0        8.887096    1.958869    1.911954
     11          6           0       10.899910    3.398285    1.883182
     12          6           0        7.233994    4.619933    1.191069
     13          6           0        7.278747    6.039743    1.763336
     14          1           0        6.183096    6.949741    1.465339
     15          7           0        8.134003   -1.021534    2.076695
     16          6           0        8.478616   -0.229079    3.120027
     17          6           0        8.331459   -1.063723    4.331801
     18          6           0        8.056417   -2.459817    3.892066
     19          6           0        8.228576   -2.338533    2.466924
     20          6           0        8.404797   -0.514159    5.723330
     21          6           0        7.705958   -3.707849    4.638876
     22          8           0        7.736976   -4.861327    4.088331
     23          6           0        7.407160   -3.552633    6.074031
     24          7           0        8.615662   -2.402997   -0.573772
     25          6           0        8.630831   -3.476129    0.224439
     26          6           0        8.736974   -4.744961   -0.568492
     27          6           0        8.546070   -4.327725   -2.097944
     28          6           0        8.438849   -2.793973   -1.912530
     29          6           0       10.050243   -5.523989   -0.412129
     30          6           0        7.431190   -5.054499   -2.891204
     31          6           0        6.075530   -4.661903   -2.347923
     32          7           0        8.129320    0.172813   -1.891150
     33          6           0        8.295254   -0.611273   -3.041953
     34          6           0        8.344511    0.312124   -4.190421
     35          6           0        8.219629    1.578570   -3.622651
     36          6           0        8.126315    1.455786   -2.206844
     37          6           0        8.546634   -0.058049   -5.549301
     38          6           0        8.168068    3.008470   -3.880686
     39          8           0        8.108270    3.704998   -4.894967
     40          6           0        8.308772    3.773743   -2.491303
     41          6           0        7.236312    4.827657   -2.442262
     42          8           0        6.030606    4.511189   -2.383221
     43          8           0        7.800815    6.026965   -2.233605
     44          6           0        6.789008    7.113497   -2.145012
     45          1           0        9.414668    1.468384    3.964753
     46          1           0        8.452871   -4.362837    1.963297
     47          1           0        8.439553   -2.380080   -3.995536
     48          1           0        9.228423    4.810634    0.329992
     49          1           0        9.053332    3.830458    2.967423
     50          1           0       11.204726    3.720742    0.887677
     51          1           0       11.214691    2.370208    2.063357
     52          1           0       11.359912    3.994986    2.671295
     53          1           0        6.856620    4.081356    2.060313
     54          1           0        6.535086    4.590306    0.354423
     55          1           0        8.237932    6.519106    1.565639
     56          1           0        7.228815    5.971681    2.850109
     57          1           0        8.781597    0.507853    5.730953
     58          1           0        9.165252   -1.087982    6.252617
     59          1           0        7.452268   -0.595057    6.247234
     60          1           0        8.270571   -3.115698    6.576186
     61          1           0        7.091275   -4.534990    6.423375
     62          1           0        6.591403   -2.838401    6.189619
     63          1           0        7.952681   -5.447351   -0.289281
     64          1           0        9.447721   -4.502948   -2.685308
     65          1           0        9.912178   -6.552128   -0.076610
     66          1           0       10.690329   -4.971075    0.274798
     67          1           0       10.670986   -5.557790   -1.307089
     68          1           0        7.523776   -6.133598   -2.773226
     69          1           0        7.449476   -4.834806   -3.958749
     70          1           0        5.949472   -5.333552   -1.499496
     71          1           0        5.301860   -4.830584   -3.097717
     72          1           0        6.082205   -3.643450   -1.959086
     73          1           0        7.837595    0.528100   -6.133819
     74          1           0        8.392596   -1.126907   -5.695650
     75          1           0        9.586993    0.236504   -5.686225
     76          1           0        9.308720    4.205981   -2.471370
     77          1           0        7.056042    7.862352   -2.890761
     78          1           0        6.761017    7.426494   -1.101147
     79          1           0        5.777781    6.857608   -2.463258
     80         12           0       -7.755401   -0.886531    0.082456
     81          6           0      -10.175480    1.763183    0.046397
     82          6           0       -5.358146    1.509715    0.464269
     83          6           0       -5.569208   -3.148376   -0.332358
     84          6           0      -10.158789   -2.914669   -1.419575
     85          7           0       -7.875751    1.317479    0.224270
     86          6           0       -8.854535    2.209130    0.260096
     87          6           0       -8.400069    3.648941    0.620591
     88          6           0       -6.865984    3.539663    0.158534
     89          6           0       -6.667752    2.034253    0.323247
     90          6           0       -6.651343    3.892487   -1.303920
     91          6           0       -8.517504    3.945787    2.156856
     92          6           0       -8.386031    5.421858    2.538523
     93          1           0       -9.186828    5.927349    3.650123
     94          7           0       -5.825667   -0.907791    0.545306
     95          6           0       -5.009735    0.158511    0.681521
     96          6           0       -3.683539   -0.388683    1.006997
     97          6           0       -3.745992   -1.870922    0.889699
     98          6           0       -5.072791   -2.035431    0.330573
     99          6           0       -2.538445    0.469169    1.461194
    100          6           0       -2.767938   -2.959348    1.213641
    101          8           0       -2.941852   -4.163142    0.809314
    102          6           0       -1.554076   -2.555637    1.938239
    103          7           0       -7.774419   -2.694656   -0.943545
    104          6           0       -6.708452   -3.513871   -0.920451
    105          6           0       -7.049375   -4.868932   -1.493155
    106          6           0       -8.637162   -4.867462   -1.684247
    107          6           0       -8.942538   -3.416028   -1.253608
    108          6           0       -6.377554   -5.218112   -2.820974
    109          6           0       -9.428380   -6.020885   -1.008757
    110          6           0       -9.354749   -5.885670    0.495127
    111          7           0       -9.851754   -0.710410   -0.409838
    112          6           0      -10.658779   -1.669647   -1.059950
    113          6           0      -11.982317   -1.050195   -1.276642
    114          6           0      -11.845306    0.244671   -0.754093
    115          6           0      -10.523212    0.426629   -0.265770
    116          6           0      -13.090484   -1.661794   -1.927814
    117          6           0      -12.515318    1.502538   -0.514195
    118          8           0      -13.669847    1.909279   -0.638105
    119          6           0      -11.426669    2.584007   -0.099853
    120          6           0      -11.933510    3.311311    1.115324
    121          8           0      -12.079560    2.712238    2.195322
    122          8           0      -11.954670    4.632428    0.861204
    123          6           0      -12.439894    5.397370    2.040717
    124          1           0       -4.512566    2.189675    0.356902
    125          1           0       -4.886809   -3.998581   -0.402706
    126          1           0      -10.991523   -3.514517   -1.792937
    127          1           0       -8.899935    4.434976    0.067349
    128          1           0       -6.210813    4.086435    0.831702
    129          1           0       -7.585959    4.044791   -1.822993
    130          1           0       -6.112561    3.057319   -1.732006
    131          1           0       -5.985816    4.756236   -1.389563
    132          1           0       -7.635164    3.540135    2.668391
    133          1           0       -9.432845    3.550409    2.552415
    134          1           0       -8.477007    6.082454    1.667720
    135          1           0       -7.370846    5.596983    2.902872
    136          1           0       -2.741310    1.533780    1.291364
    137          1           0       -1.691214    0.245856    0.803789
    138          1           0       -2.246368    0.269328    2.494356
    139          1           0       -1.019114   -1.807562    1.358011
    140          1           0       -1.021918   -3.483530    2.156669
    141          1           0       -1.850718   -2.073351    2.876329
    142          1           0       -6.779141   -5.659294   -0.803663
    143          1           0       -8.920062   -4.946888   -2.744200
    144          1           0       -5.788584   -6.153772   -2.779369
    145          1           0       -5.750628   -4.386921   -3.115278
    146          1           0       -7.052743   -5.310174   -3.669999
    147          1           0       -8.977479   -6.985064   -1.256134
    148          1           0      -10.469449   -6.065258   -1.310743
    149          1           0       -8.395381   -6.352191    0.738171
    150          1           0      -10.180967   -6.412694    0.968042
    151          1           0       -9.294023   -4.832493    0.793095
    152          1           0      -13.966131   -1.429469   -1.336402
    153          1           0      -12.950136   -2.736178   -2.026642
    154          1           0      -13.054094   -1.152429   -2.894497
    155          1           0      -11.289671    3.253313   -0.950050
    156          1           0      -13.288169    6.000857    1.703215
    157          1           0      -11.557549    5.940736    2.427991
    158          1           0      -12.888967    4.836233    2.851835
 ---------------------------------------------------------------------

 SCF Done:  E(RCAM-B3LYP) =  -4069.81187817     A.U. after   19 cycles

 Excitation energies and oscillator strengths:

 Excited State   1:      Singlet-A      1.6744 eV  740.48 nm  f=0.3329  <S**2>=0.000
     310 -> 316       -0.15812
     311 -> 313        0.28112
     312 -> 314        0.62590
 This state for optimization and/or second-order correction.
 Total Energy, E(TD-HF/TD-DFT) =  -4069.75034600
 Copying the excited state density for this state as the 1-particle RhoCI density.

 Excited State   2:      Singlet-A      1.6805 eV  737.78 nm  f=0.4506  <S**2>=0.000
     309 -> 315        0.16060
     311 -> 313        0.62544
     312 -> 314       -0.28094

 Excited State   3:      Singlet-A      2.1861 eV  567.15 nm  f=0.0543  <S**2>=0.000
     309 -> 313       -0.15147
     310 -> 314        0.62459
     312 -> 316        0.26531

 Excited State   4:      Singlet-A      2.1935 eV  565.25 nm  f=0.1382  <S**2>=0.000
     309 -> 313        0.62261
     310 -> 314        0.15039
     311 -> 315       -0.27108

 Excited State   5:      Singlet-A      2.7308 eV  454.03 nm  f=0.0000  <S**2>=0.000
     312 -> 313        0.70700

 The electronic state is 1-A.
 Alpha  occ. eigenvalues --  -46.87918 -46.87580 -19.26451 -19.26297 -19.19191
 Alpha  occ. eigenvalues --  -19.19106 -19.18913 -19.18622 -19.18295 -19.17979
 Alpha  occ. eigenvalues --  -14.42573 -14.42416 -14.41560 -14.41280 -14.39523
 Alpha  occ. eigenvalues --  -14.39269 -14.38708 -14.38521 -10.39246 -10.39034
 Alpha  occ. eigenvalues --  -10.35545 -10.35299 -10.34517 -10.34157 -10.31856
 Alpha  occ. eigenvalues --  -10.31713 -10.31530 -10.31228 -10.31037 -10.30939
 Alpha  occ. eigenvalues --  -10.30691 -10.30621 -10.30320 -10.30309 -10.30281
 Alpha  occ. eigenvalues --  -10.30058 -10.30025 -10.29820 -10.29745 -10.29368
 Alpha  occ. eigenvalues --  -10.29350 -10.29318 -10.28895 -10.28724 -10.28642
 Alpha  occ. eigenvalues --  -10.28605 -10.28488 -10.28322 -10.28251 -10.28053
 Alpha  occ. eigenvalues --  -10.27919 -10.27910 -10.27847 -10.27699 -10.27599
 Alpha  occ. eigenvalues --  -10.27581 -10.27573 -10.27527 -10.27521 -10.27447
 Alpha  occ. eigenvalues --  -10.27404 -10.27381 -10.27347 -10.27304 -10.27294
 Alpha  occ. eigenvalues --  -10.26981 -10.26885 -10.26632 -10.26505 -10.26353
 Alpha  occ. eigenvalues --  -10.26311 -10.26232 -10.26126 -10.26077 -10.25945
 Alpha  occ. eigenvalues --  -10.25918 -10.25856 -10.25784 -10.25498 -10.25322
 Alpha  occ. eigenvalues --  -10.24952 -10.24896 -10.24793 -10.24724 -10.24675
 Alpha  occ. eigenvalues --  -10.24610  -3.16662  -3.16330  -1.91544  -1.91212
 Alpha  occ. eigenvalues --   -1.91130  -1.90972  -1.90801  -1.90638  -1.16800
 Alpha  occ. eigenvalues --   -1.16590  -1.08756  -1.08589  -1.07312  -1.06890
 Alpha  occ. eigenvalues --   -1.06874  -1.06812  -1.04705  -1.04414  -1.03874
 Alpha  occ. eigenvalues --   -1.03582  -1.03350  -1.02959  -1.02527  -1.02031
 Alpha  occ. eigenvalues --   -0.92097  -0.91910  -0.89612  -0.89420  -0.89327
 Alpha  occ. eigenvalues --   -0.89071  -0.88375  -0.88147  -0.87984  -0.87795
 Alpha  occ. eigenvalues --   -0.87718  -0.87604  -0.87386  -0.87025  -0.85117
 Alpha  occ. eigenvalues --   -0.84922  -0.84020  -0.83806  -0.83065  -0.82841
 Alpha  occ. eigenvalues --   -0.82775  -0.82571  -0.81723  -0.81530  -0.80722
 Alpha  occ. eigenvalues --   -0.80368  -0.78911  -0.78547  -0.77332  -0.77065
 Alpha  occ. eigenvalues --   -0.77062  -0.76828  -0.76053  -0.75760  -0.74992
 Alpha  occ. eigenvalues --   -0.74728  -0.72887  -0.72619  -0.71786  -0.71501
 Alpha  occ. eigenvalues --   -0.69980  -0.69689  -0.69002  -0.68749  -0.67759
 Alpha  occ. eigenvalues --   -0.67524  -0.67360  -0.67124  -0.65422  -0.65197
 Alpha  occ. eigenvalues --   -0.64976  -0.64741  -0.64694  -0.64580  -0.64364
 Alpha  occ. eigenvalues --   -0.64131  -0.62436  -0.62213  -0.60548  -0.60252
 Alpha  occ. eigenvalues --   -0.59935  -0.59716  -0.59102  -0.58915  -0.58620
 Alpha  occ. eigenvalues --   -0.58349  -0.57721  -0.57486  -0.57416  -0.57159
 Alpha  occ. eigenvalues --   -0.56428  -0.56127  -0.56123  -0.55820  -0.55635
 Alpha  occ. eigenvalues --   -0.55443  -0.55371  -0.55179  -0.54638  -0.54422
 Alpha  occ. eigenvalues --   -0.54035  -0.53834  -0.53410  -0.53349  -0.53149
 Alpha  occ. eigenvalues --   -0.53063  -0.53044  -0.52875  -0.52829  -0.52573
 Alpha  occ. eigenvalues --   -0.52508  -0.52336  -0.52025  -0.51814  -0.51753
 Alpha  occ. eigenvalues --   -0.51579  -0.51313  -0.51129  -0.50679  -0.50378
 Alpha  occ. eigenvalues --   -0.50120  -0.50028  -0.49894  -0.49788  -0.49638
 Alpha  occ. eigenvalues --   -0.49403  -0.49337  -0.49224  -0.49120  -0.49027
 Alpha  occ. eigenvalues --   -0.48721  -0.48560  -0.48555  -0.48482  -0.48304
 Alpha  occ. eigenvalues --   -0.48250  -0.47811  -0.47512  -0.47409  -0.47031
 Alpha  occ. eigenvalues --   -0.46908  -0.46693  -0.46633  -0.46475  -0.46472
 Alpha  occ. eigenvalues --   -0.46274  -0.46190  -0.46013  -0.45949  -0.45754
 Alpha  occ. eigenvalues --   -0.45291  -0.45133  -0.44702  -0.44619  -0.44441
 Alpha  occ. eigenvalues --   -0.44397  -0.44251  -0.44210  -0.44140  -0.44047
 Alpha  occ. eigenvalues --   -0.44002  -0.43854  -0.43626  -0.43504  -0.43489
 Alpha  occ. eigenvalues --   -0.43309  -0.43142  -0.42866  -0.42844  -0.42828
 Alpha  occ. eigenvalues --   -0.42744  -0.42478  -0.42112  -0.41895  -0.41822
 Alpha  occ. eigenvalues --   -0.41665  -0.41594  -0.41385  -0.41257  -0.40991
 Alpha  occ. eigenvalues --   -0.40934  -0.40908  -0.40663  -0.40643  -0.40618
 Alpha  occ. eigenvalues --   -0.40421  -0.40390  -0.40156  -0.39508  -0.39359
 Alpha  occ. eigenvalues --   -0.38564  -0.38278  -0.37899  -0.37586  -0.37419
 Alpha  occ. eigenvalues --   -0.37401  -0.37191  -0.37122  -0.36856  -0.36712
 Alpha  occ. eigenvalues --   -0.36315  -0.36146  -0.34405  -0.34175  -0.33933
 Alpha  occ. eigenvalues --   -0.33802  -0.33306  -0.33096  -0.31442  -0.31182
 Alpha  occ. eigenvalues --   -0.31152  -0.30892  -0.30156  -0.29885  -0.29565
 Alpha  occ. eigenvalues --   -0.29441  -0.29241  -0.29132  -0.24199  -0.23956
 Alpha  occ. eigenvalues --   -0.21243  -0.21035
 Alpha virt. eigenvalues --   -0.08891  -0.08709  -0.01863  -0.01603  -0.00173
 Alpha virt. eigenvalues --    0.00059   0.02083   0.02283   0.02962   0.03294
 Alpha virt. eigenvalues --    0.04587   0.04807   0.04937   0.05224   0.06018

 Mulliken charges:
               1
     1  Mg   0.837960
     2  C   -0.003390
     3  C   -0.094490
     4  C   -0.045666
     5  C   -0.063678
     6  N   -0.256808
     7  C   -0.052705
     8  C   -0.013912
     9  C   -0.086948
    10  C    0.046117
    11  C    0.104760
    12  C    0.053582
    13  C   -0.071595
    14  H    0.035241
    15  N   -0.433225
    16  C    0.168218
    17  C   -0.177338
    18  C   -0.003977
    19  C    0.148559
    20  C    0.110173
    21  C    0.012243
    22  O   -0.249031
    23  C    0.062552
    24  N   -0.341156
    25  C    0.041287
    26  C   -0.028292
    27  C   -0.024054
    28  C    0.074848
    29  C    0.076063
    30  C    0.035012
    31  C   -0.004563
    32  N   -0.310458
    33  C    0.080287
    34  C   -0.169638
    35  C    0.008346
    36  C    0.082755
    37  C    0.127320
    38  C    0.045968
    39  O   -0.188449
    40  C   -0.005267
    41  C    0.213020
    42  O   -0.257945
    43  O   -0.304534
    44  C    0.157801
    45  H   -0.017494
    46  H   -0.016372
    47  H   -0.041135
    48  H    0.001080
    49  H   -0.004211
    50  H    0.025592
    51  H    0.016686
    52  H    0.016807
    53  H    0.010657
    54  H    0.043451
    55  H    0.018366
    56  H    0.017956
    57  H    0.005811
    58  H    0.027184
    59  H    0.039183
    60  H    0.037479
    61  H    0.036163
    62  H    0.030946
    63  H    0.017043
    64  H    0.009628
    65  H    0.023622
    66  H    0.012483
    67  H    0.004926
    68  H    0.006879
    69  H    0.004794
    70  H    0.009388
    71  H    0.018870
    72  H    0.028132
    73  H    0.047507
    74  H    0.009408
    75  H    0.046198
    76  H    0.035363
    77  H    0.043240
    78  H    0.046315
    79  H    0.053066
    80  Mg   0.837726
    81  C   -0.016881
    82  C   -0.087770
    83  C   -0.045413
    84  C   -0.064880
    85  N   -0.254549
    86  C   -0.049906
    87  C   -0.015099
    88  C   -0.090455
    89  C    0.045635
    90  C    0.114252
    91  C    0.062570
    92  C   -0.077720
    93  H    0.034431
    94  N   -0.423593
    95  C    0.162808
    96  C   -0.174091
    97  C   -0.007720
    98  C    0.152204
    99  C    0.099009
   100  C    0.015707
   101  O   -0.253169
   102  C    0.061074
   103  N   -0.350016
   104  C    0.037617
   105  C   -0.019885
   106  C   -0.034748
   107  C    0.088807
   108  C    0.073622
   109  C    0.034784
   110  C   -0.007643
   111  N   -0.324052
   112  C    0.078297
   113  C   -0.163292
   114  C    0.002181
   115  C    0.096079
   116  C    0.131528
   117  C    0.042241
   118  O   -0.188185
   119  C    0.000952
   120  C    0.211220
   121  O   -0.251166
   122  O   -0.305579
   123  C    0.152111
   124  H   -0.018840
   125  H   -0.015531
   126  H   -0.040656
   127  H   -0.000694
   128  H   -0.004393
   129  H    0.022343
   130  H    0.014961
   131  H    0.016701
   132  H    0.013770
   133  H    0.037528
   134  H    0.020882
   135  H    0.019481
   136  H    0.009170
   137  H    0.027747
   138  H    0.039120
   139  H    0.039049
   140  H    0.036652
   141  H    0.033237
   142  H    0.014296
   143  H    0.012361
   144  H    0.025018
   145  H    0.011989
   146  H    0.005619
   147  H    0.006137
   148  H    0.003527
   149  H    0.010893
   150  H    0.017728
   151  H    0.030138
   152  H    0.045784
   153  H    0.008366
   154  H    0.046875
   155  H    0.035041
   156  H    0.043794
   157  H    0.049441
   158  H    0.053428
 Sum of Mulliken charges =  -0.00000

 Dipole moment (field-independent basis, Debye):
    X=              6.1621    Y=              2.2597    Z=              3.5717  Tot=              7.4723
 Quadrupole moment (field-independent basis, Debye-Ang):
   XX=           -564.0707   YY=           -483.3786   ZZ=           -504.4996
   XY=             16.4891   XZ=             43.4487   YZ=             48.9959

 Normal termination of Gaussian 16 at Sun Sep 12 08:10:26 2021.
