 Gaussian 16, Revision A.03,
 Gaussian 16:  ES64L-G16RevA.03 25-Dec-2016

 -----------------------------------
 #p cam-b3lyp/Def2SVP td=(nstates=5)
 -----------------------------------

 --------------------------------
 TDDFT excited states in gaussian
 --------------------------------
 Symbolic Z-matrix:
 Charge =  0 Multiplicity = 1

                         Standard orientation:
 ---------------------------------------------------------------------
 Center     Atomic      Atomic             Coordinates (Angstroms)
 Number     Number       Type             X           Y           Z
 ---------------------------------------------------------------------
      1         12           0        7.804614    0.875265    0.297364
      2          6           0        8.410766   -2.548333   -0.553383
      3          6           0        8.623764    1.664655   -2.919610
      4          6           0        7.717913    3.931246    1.140028
      5          6           0        8.143824   -0.049143    3.640426
      6          7           0        8.420164   -0.372123   -1.424777
      7          6           0        8.556108   -1.677581   -1.635655
      8          6           0        8.793355   -2.040260   -3.132168
      9          6           0        9.395852   -0.652423   -3.635063
     10          6           0        8.747788    0.274977   -2.622213
     11          6           0       10.911147   -0.557374   -3.488949
     12          6           0        7.461523   -2.390280   -3.877445
     13          6           0        7.633901   -3.066478   -5.240675
     14          1           0        6.671528   -4.079630   -5.646519
     15          7           0        7.646763    2.505059   -0.807944
     16          6           0        8.014398    2.643003   -2.104517
     17          6           0        7.696087    4.039527   -2.472050
     18          6           0        7.289837    4.755394   -1.230846
     19          6           0        7.563960    3.753296   -0.232830
     20          6           0        7.744899    4.551676   -3.878845
     21          6           0        6.751441    6.128904   -0.982387
     22          8           0        6.683564    6.630786    0.191530
     23          6           0        6.383075    6.915496   -2.173446
     24          7           0        8.131103    1.858370    2.109695
     25          6           0        7.972132    3.182236    2.215017
     26          6           0        7.980624    3.620786    3.649430
     27          6           0        7.935551    2.283480    4.520828
     28          6           0        7.994712    1.249480    3.369476
     29          6           0        9.182741    4.471528    4.082055
     30          6           0        6.796218    2.161768    5.563672
     31          6           0        5.463546    2.051729    4.857292
     32          7           0        8.029076   -0.984725    1.393310
     33          6           0        8.175272   -1.133874    2.780052
     34          6           0        8.402806   -2.567534    3.038730
     35          6           0        8.389595   -3.154257    1.774837
     36          6           0        8.194047   -2.147053    0.787116
     37          6           0        8.645730   -3.156519    4.310941
     38          6           0        8.519777   -4.394401    1.027207
     39          8           0        8.604584   -5.585225    1.330918
     40          6           0        8.660412   -4.035599   -0.517886
     41          6           0        7.715862   -4.925502   -1.278943
     42          8           0        6.480367   -4.805794   -1.150148
     43          8           0        8.400846   -5.609194   -2.208407
     44          6           0        7.517706   -6.489684   -3.018934
     45          1           0        9.085301    2.052914   -3.829654
     46          1           0        7.584191    4.958961    1.484062
     47          1           0        8.173945   -0.423514    4.665313
     48          1           0        9.514721   -2.840822   -3.296962
     49          1           0        9.062429   -0.405322   -4.642779
     50          1           0       11.313037   -1.410686   -2.942813
     51          1           0       11.093186    0.366368   -2.939353
     52          1           0       11.386587   -0.426158   -4.461325
     53          1           0        6.970676   -1.468124   -4.188504
     54          1           0        6.817771   -3.006068   -3.248386
     55          1           0        8.652524   -3.429911   -5.379356
     56          1           0        7.508330   -2.310061   -6.015443
     57          1           0        8.235955    3.844169   -4.545810
     58          1           0        8.399281    5.423165   -3.877894
     59          1           0        6.758406    4.833098   -4.247580
     60          1           0        7.257927    7.029975   -2.813819
     61          1           0        5.934577    7.835209   -1.799511
     62          1           0        5.649604    6.354975   -2.753778
     63          1           0        7.104509    4.226081    3.878485
     64          1           0        8.846018    2.144613    5.104300
     65          1           0        8.906103    5.439059    4.501652
     66          1           0        9.837998    4.592120    3.219856
     67          1           0        9.850372    3.989808    4.795940
     68          1           0        6.756001    3.054249    6.187215
     69          1           0        6.906719    1.301017    6.223330
     70          1           0        5.207777    3.091524    4.656689
     71          1           0        4.724172    1.586786    5.510258
     72          1           0        5.563349    1.549229    3.894993
     73          1           0        8.047207   -4.066784    4.344947
     74          1           0        8.378801   -2.476488    5.119588
     75          1           0        9.719669   -3.332146    4.250401
     76          1           0        9.700342   -4.216116   -0.788219
     77          1           0        7.915697   -7.501597   -2.942321
     78          1           0        7.460576   -6.042240   -4.011373
     79          1           0        6.505680   -6.637373   -2.640345
     80         12           0       -7.973434   -0.938393    0.160631
     81          6           0       -8.141045    2.415604   -1.104935
     82          6           0       -7.273343    0.408414    3.215231
     83          6           0       -7.375707   -3.873477    1.207276
     84          6           0       -7.551085   -2.010323   -3.128486
     85          7           0       -7.762080    1.155498    0.841230
     86          6           0       -7.908508    2.348428    0.284613
     87          6           0       -7.879470    3.533642    1.286600
     88          6           0       -7.044432    2.831781    2.465144
     89          6           0       -7.405053    1.374201    2.185674
     90          6           0       -5.540595    2.989277    2.313465
     91          6           0       -9.315321    3.945775    1.766693
     92          6           0       -9.387744    5.286392    2.501032
     93          1           0      -10.571004    6.120888    2.311309
     94          7           0       -7.891904   -1.650140    2.011400
     95          6           0       -7.616502   -0.959265    3.137515
     96          6           0       -7.658882   -1.940992    4.232315
     97          6           0       -7.819159   -3.296996    3.640472
     98          6           0       -7.677834   -2.988111    2.231671
     99          6           0       -7.631121   -1.546584    5.680451
    100          6           0       -8.047429   -4.649910    4.243543
    101          8           0       -7.918326   -5.724009    3.556171
    102          6           0       -8.335056   -4.685126    5.684900
    103          7           0       -7.317275   -2.667596   -0.788918
    104          6           0       -7.190561   -3.822425   -0.111974
    105          6           0       -6.973263   -4.984469   -1.051568
    106          6           0       -7.222802   -4.402137   -2.519966
    107          6           0       -7.464355   -2.918287   -2.166073
    108          6           0       -5.593397   -5.639287   -0.991759
    109          6           0       -8.275175   -5.133482   -3.397650
    110          6           0       -9.656268   -4.944252   -2.812710
    111          7           0       -8.045713   -0.022890   -1.795044
    112          6           0       -7.813618   -0.649265   -3.039187
    113          6           0       -7.861145    0.404991   -4.072980
    114          6           0       -8.096593    1.584371   -3.350387
    115          6           0       -8.169155    1.289082   -1.962213
    116          6           0       -7.650069    0.212776   -5.467468
    117          6           0       -8.289665    3.013491   -3.445336
    118          8           0       -8.415721    3.813401   -4.371618
    119          6           0       -8.201082    3.633556   -1.984490
    120          6           0       -9.364603    4.569984   -1.806025
    121          8           0      -10.529882    4.135642   -1.797029
    122          8           0       -8.902912    5.785421   -1.459738
    123          6           0      -10.020324    6.746452   -1.260656
    124          1           0       -6.825542    0.715747    4.160695
    125          1           0       -7.269878   -4.919521    1.504031
    126          1           0       -7.526381   -2.277557   -4.187086
    127          1           0       -7.356208    4.414185    0.933610
    128          1           0       -7.410365    3.134387    3.442844
    129          1           0       -5.276425    3.447511    1.371986
    130          1           0       -5.132356    1.988990    2.375109
    131          1           0       -5.130674    3.535280    3.167959
    132          1           0       -9.630032    3.272069    2.574055
    133          1           0      -10.006152    3.945476    0.946097
    134          1           0       -8.474338    5.878889    2.368418
    135          1           0       -9.427336    5.091786    3.575542
    136          1           0       -7.342576   -0.495653    5.805672
    137          1           0       -6.816991   -2.109545    6.149626
    138          1           0       -8.564655   -1.777712    6.197921
    139          1           0       -7.511999   -4.227588    6.228677
    140          1           0       -8.556818   -5.729438    5.913210
    141          1           0       -9.221191   -4.070845    5.879937
    142          1           0       -7.688606   -5.775038   -0.860798
    143          1           0       -6.309339   -4.434583   -3.131829
    144          1           0       -5.633621   -6.722749   -0.771389
    145          1           0       -5.001916   -5.121723   -0.248247
    146          1           0       -4.988301   -5.524193   -1.889423
    147          1           0       -8.084060   -6.209406   -3.400497
    148          1           0       -8.279227   -4.804381   -4.431418
    149          1           0       -9.706246   -5.719399   -2.042171
    150          1           0      -10.418763   -5.094987   -3.574232
    151          1           0       -9.741201   -3.973809   -2.310036
    152          1           0       -8.407857    0.790668   -5.979623
    153          1           0       -7.702812   -0.840222   -5.736135
    154          1           0       -6.637248    0.611895   -5.568267
    155          1           0       -7.243836    4.150271   -1.905415
    156          1           0       -9.827235    7.601187   -1.916271
    157          1           0      -10.054445    6.943720   -0.172692
    158          1           0      -11.006654    6.443962   -1.592467
 ---------------------------------------------------------------------

 SCF Done:  E(RCAM-B3LYP) =  -4069.81180350     A.U. after   19 cycles

 Excitation energies and oscillator strengths:

 Excited State   1:      Singlet-A      1.6711 eV  741.95 nm  f=0.0820  <S**2>=0.000
     310 -> 316        0.14219
     311 -> 313        0.38921
     312 -> 314        0.56527
 This state for optimization and/or second-order correction.
 Total Energy, E(TD-HF/TD-DFT) =  -4069.75039282
 Copying the excited state density for this state as the 1-particle RhoCI density.

 Excited State   2:      Singlet-A      1.6841 eV  736.19 nm  f=0.6728  <S**2>=0.000
     309 -> 315        0.14545
     311 -> 313        0.56452
     312 -> 314       -0.38876

 Excited State   3:      Singlet-A      2.1857 eV  567.25 nm  f=0.0678  <S**2>=0.000
     309 -> 313        0.12793
     310 -> 314        0.62991
     312 -> 316       -0.26724

 Excited State   4:      Singlet-A      2.1931 eV  565.35 nm  f=0.1270  <S**2>=0.000
     309 -> 313        0.62787
     310 -> 314       -0.12700
     311 -> 315       -0.27294

 Excited State   5:      Singlet-A      2.7662 eV  448.21 nm  f=0.0000  <S**2>=0.000
     312 -> 313        0.70710

 The electronic state is 1-A.
 Alpha  occ. eigenvalues --  -46.87835 -46.87591 -19.26313 -19.26310 -19.19120
 Alpha  occ. eigenvalues --  -19.19048 -19.18849 -19.18637 -19.18202 -19.18001
 Alpha  occ. eigenvalues --  -14.42486 -14.42428 -14.41491 -14.41287 -14.39440
 Alpha  occ. eigenvalues --  -14.39282 -14.38625 -14.38534 -10.39108 -10.39049
 Alpha  occ. eigenvalues --  -10.35481 -10.35314 -10.34421 -10.34178 -10.31727
 Alpha  occ. eigenvalues --  -10.31702 -10.31440 -10.31245 -10.30954 -10.30941
 Alpha  occ. eigenvalues --  -10.30606 -10.30547 -10.30331 -10.30298 -10.30250
 Alpha  occ. eigenvalues --  -10.30064 -10.29966 -10.29822 -10.29667 -10.29365
 Alpha  occ. eigenvalues --  -10.29337 -10.29291 -10.28775 -10.28658 -10.28608
 Alpha  occ. eigenvalues --  -10.28556 -10.28399 -10.28338 -10.28142 -10.28075
 Alpha  occ. eigenvalues --  -10.27937 -10.27828 -10.27762 -10.27619 -10.27600
 Alpha  occ. eigenvalues --  -10.27561 -10.27507 -10.27500 -10.27439 -10.27437
 Alpha  occ. eigenvalues --  -10.27417 -10.27400 -10.27395 -10.27285 -10.27189
 Alpha  occ. eigenvalues --  -10.26999 -10.26728 -10.26640 -10.26431 -10.26336
 Alpha  occ. eigenvalues --  -10.26264 -10.26257 -10.26069 -10.26062 -10.25950
 Alpha  occ. eigenvalues --  -10.25884 -10.25866 -10.25810 -10.25489 -10.25274
 Alpha  occ. eigenvalues --  -10.24868 -10.24829 -10.24811 -10.24782 -10.24669
 Alpha  occ. eigenvalues --  -10.24616  -3.16578  -3.16341  -1.91460  -1.91223
 Alpha  occ. eigenvalues --   -1.91046  -1.90889  -1.90812  -1.90649  -1.16659
 Alpha  occ. eigenvalues --   -1.16606  -1.08659  -1.08610  -1.07250  -1.06905
 Alpha  occ. eigenvalues --   -1.06888  -1.06670  -1.04616  -1.04427  -1.03801
 Alpha  occ. eigenvalues --   -1.03594  -1.03272  -1.02968  -1.02450  -1.02042
 Alpha  occ. eigenvalues --   -0.92007  -0.91925  -0.89572  -0.89424  -0.89216
 Alpha  occ. eigenvalues --   -0.89087  -0.88339  -0.88142  -0.87907  -0.87737
 Alpha  occ. eigenvalues --   -0.87708  -0.87616  -0.87304  -0.87050  -0.85012
 Alpha  occ. eigenvalues --   -0.84936  -0.83994  -0.83800  -0.83002  -0.82857
 Alpha  occ. eigenvalues --   -0.82680  -0.82587  -0.81618  -0.81544  -0.80630
 Alpha  occ. eigenvalues --   -0.80382  -0.78830  -0.78570  -0.77258  -0.77080
 Alpha  occ. eigenvalues --   -0.76969  -0.76835  -0.75954  -0.75778  -0.74945
 Alpha  occ. eigenvalues --   -0.74721  -0.72813  -0.72634  -0.71710  -0.71508
 Alpha  occ. eigenvalues --   -0.69971  -0.69683  -0.68904  -0.68764  -0.67677
 Alpha  occ. eigenvalues --   -0.67536  -0.67247  -0.67138  -0.65318  -0.65211
 Alpha  occ. eigenvalues --   -0.64892  -0.64706  -0.64659  -0.64592  -0.64319
 Alpha  occ. eigenvalues --   -0.64132  -0.62332  -0.62226  -0.60478  -0.60267
 Alpha  occ. eigenvalues --   -0.59835  -0.59733  -0.59026  -0.58926  -0.58542
 Alpha  occ. eigenvalues --   -0.58361  -0.57617  -0.57503  -0.57350  -0.57167
 Alpha  occ. eigenvalues --   -0.56344  -0.56143  -0.56008  -0.55835  -0.55553
 Alpha  occ. eigenvalues --   -0.55390  -0.55387  -0.55180  -0.54567  -0.54424
 Alpha  occ. eigenvalues --   -0.53923  -0.53849  -0.53336  -0.53252  -0.53162
 Alpha  occ. eigenvalues --   -0.53079  -0.52951  -0.52843  -0.52784  -0.52597
 Alpha  occ. eigenvalues --   -0.52504  -0.52334  -0.51953  -0.51836  -0.51644
 Alpha  occ. eigenvalues --   -0.51597  -0.51235  -0.51142  -0.50600  -0.50401
 Alpha  occ. eigenvalues --   -0.50084  -0.49950  -0.49910  -0.49788  -0.49545
 Alpha  occ. eigenvalues --   -0.49421  -0.49247  -0.49141  -0.49125  -0.49044
 Alpha  occ. eigenvalues --   -0.48627  -0.48506  -0.48500  -0.48478  -0.48300
 Alpha  occ. eigenvalues --   -0.48268  -0.47730  -0.47528  -0.47332  -0.47046
 Alpha  occ. eigenvalues --   -0.46839  -0.46643  -0.46584  -0.46490  -0.46399
 Alpha  occ. eigenvalues --   -0.46203  -0.46203  -0.46019  -0.45857  -0.45769
 Alpha  occ. eigenvalues --   -0.45250  -0.45124  -0.44613  -0.44542  -0.44456
 Alpha  occ. eigenvalues --   -0.44412  -0.44190  -0.44119  -0.44064  -0.44051
 Alpha  occ. eigenvalues --   -0.44011  -0.43875  -0.43529  -0.43500  -0.43423
 Alpha  occ. eigenvalues --   -0.43320  -0.43065  -0.42880  -0.42839  -0.42742
 Alpha  occ. eigenvalues --   -0.42701  -0.42480  -0.42059  -0.41899  -0.41741
 Alpha  occ. eigenvalues --   -0.41607  -0.41565  -0.41395  -0.41177  -0.40918
 Alpha  occ. eigenvalues --   -0.40908  -0.40856  -0.40654  -0.40630  -0.40621
 Alpha  occ. eigenvalues --   -0.40419  -0.40259  -0.40167  -0.39510  -0.39353
 Alpha  occ. eigenvalues --   -0.38519  -0.38272  -0.37777  -0.37595  -0.37368
 Alpha  occ. eigenvalues --   -0.37294  -0.37195  -0.37136  -0.36749  -0.36722
 Alpha  occ. eigenvalues --   -0.36232  -0.36150  -0.34324  -0.34187  -0.33816
 Alpha  occ. eigenvalues --   -0.33801  -0.33224  -0.33108  -0.31379  -0.31196
 Alpha  occ. eigenvalues --   -0.31073  -0.30904  -0.30061  -0.29906  -0.29484
 Alpha  occ. eigenvalues --   -0.29358  -0.29259  -0.29149  -0.24119  -0.23968
 Alpha  occ. eigenvalues --   -0.21166  -0.21048
 Alpha virt. eigenvalues --   -0.08810  -0.08725  -0.01789  -0.01612  -0.00091
 Alpha virt. eigenvalues --    0.00041   0.02164   0.02267   0.03074   0.03290
 Alpha virt. eigenvalues --    0.04684   0.04797   0.05069   0.05209   0.06152

 Mulliken charges:
               1
     1  Mg   0.838616
     2  C   -0.002896
     3  C   -0.093937
     4  C   -0.045996
     5  C   -0.064064
     6  N   -0.256778
     7  C   -0.052462
     8  C   -0.013999
     9  C   -0.087027
    10  C    0.046313
    11  C    0.104777
    12  C    0.053410
    13  C   -0.071849
    14  H    0.036137
    15  N   -0.433170
    16  C    0.168403
    17  C   -0.176985
    18  C   -0.003997
    19  C    0.148709
    20  C    0.110107
    21  C    0.012240
    22  O   -0.249830
    23  C    0.062466
    24  N   -0.341097
    25  C    0.041243
    26  C   -0.028159
    27  C   -0.023912
    28  C    0.074716
    29  C    0.076166
    30  C    0.035221
    31  C   -0.004437
    32  N   -0.310460
    33  C    0.080329
    34  C   -0.169821
    35  C    0.008404
    36  C    0.082912
    37  C    0.127335
    38  C    0.046104
    39  O   -0.188366
    40  C   -0.005344
    41  C    0.212929
    42  O   -0.257163
    43  O   -0.304765
    44  C    0.157666
    45  H   -0.017407
    46  H   -0.016949
    47  H   -0.041663
    48  H    0.001000
    49  H   -0.003867
    50  H    0.025494
    51  H    0.016436
    52  H    0.016811
    53  H    0.011273
    54  H    0.044055
    55  H    0.017924
    56  H    0.018104
    57  H    0.006021
    58  H    0.026941
    59  H    0.039876
    60  H    0.037490
    61  H    0.035674
    62  H    0.031728
    63  H    0.016270
    64  H    0.009498
    65  H    0.023099
    66  H    0.012722
    67  H    0.004770
    68  H    0.006150
    69  H    0.004682
    70  H    0.008528
    71  H    0.017544
    72  H    0.029208
    73  H    0.047557
    74  H    0.008913
    75  H    0.046067
    76  H    0.035233
    77  H    0.043021
    78  H    0.046453
    79  H    0.053655
    80  Mg   0.838002
    81  C   -0.016901
    82  C   -0.087758
    83  C   -0.045245
    84  C   -0.064766
    85  N   -0.254593
    86  C   -0.049886
    87  C   -0.015098
    88  C   -0.090531
    89  C    0.045836
    90  C    0.114343
    91  C    0.062549
    92  C   -0.077835
    93  H    0.034648
    94  N   -0.423589
    95  C    0.163048
    96  C   -0.174422
    97  C   -0.007567
    98  C    0.152191
    99  C    0.099285
   100  C    0.015707
   101  O   -0.252896
   102  C    0.061179
   103  N   -0.350024
   104  C    0.037740
   105  C   -0.020009
   106  C   -0.034689
   107  C    0.088873
   108  C    0.073399
   109  C    0.034736
   110  C   -0.007643
   111  N   -0.324046
   112  C    0.078378
   113  C   -0.163289
   114  C    0.002085
   115  C    0.096159
   116  C    0.131519
   117  C    0.042171
   118  O   -0.188395
   119  C    0.000979
   120  C    0.211184
   121  O   -0.251075
   122  O   -0.305627
   123  C    0.152094
   124  H   -0.019556
   125  H   -0.015245
   126  H   -0.040672
   127  H   -0.000741
   128  H   -0.004415
   129  H    0.022435
   130  H    0.014800
   131  H    0.016346
   132  H    0.013894
   133  H    0.037572
   134  H    0.020810
   135  H    0.019586
   136  H    0.008723
   137  H    0.026466
   138  H    0.039706
   139  H    0.038432
   140  H    0.036480
   141  H    0.033697
   142  H    0.014318
   143  H    0.012515
   144  H    0.025348
   145  H    0.012435
   146  H    0.006034
   147  H    0.006323
   148  H    0.003384
   149  H    0.010986
   150  H    0.017684
   151  H    0.030047
   152  H    0.045728
   153  H    0.008408
   154  H    0.046637
   155  H    0.034885
   156  H    0.043704
   157  H    0.049541
   158  H    0.053485
 Sum of Mulliken charges =  -0.00000

 Dipole moment (field-independent basis, Debye):
    X=              3.7470    Y=              2.8105    Z=              0.6740  Tot=              4.7322
 Quadrupole moment (field-independent basis, Debye-Ang):
   XX=           -520.9312   YY=           -541.4246   ZZ=           -456.5317
   XY=             21.6375   XZ=            -66.8796   YZ=             38.2558

 Normal termination of Gaussian 16 at Sat Sep  4 13:41:35 2021.
