 Gaussian 16, Revision A.03,
 Gaussian 16:  ES64L-G16RevA.03 25-Dec-2016

 -----------------------------------
 #p cam-b3lyp/Def2SVP td=(nstates=5)
 -----------------------------------

 --------------------------------
 TDDFT excited states in gaussian
 --------------------------------
 Symbolic Z-matrix:
 Charge =  0 Multiplicity = 1

                         Standard orientation:
 ---------------------------------------------------------------------
 Center     Atomic      Atomic             Coordinates (Angstroms)
 Number     Number       Type             X           Y           Z
 ---------------------------------------------------------------------
      1         12           0       -6.673894   -0.413269    0.230119
      2          6           0       -6.658870    3.102214    0.903444
      3          6           0       -7.626223    0.352008   -2.955864
      4          6           0       -7.134199   -3.512274   -0.260702
      5          6           0       -6.836853   -0.922458    3.673929
      6          7           0       -7.058994    1.519268   -0.778664
      7          6           0       -6.959433    2.797090   -0.425919
      8          6           0       -7.130323    3.782839   -1.620268
      9          6           0       -7.972282    2.848050   -2.599693
     10          6           0       -7.499052    1.491725   -2.107393
     11          6           0       -9.479887    2.947813   -2.390701
     12          6           0       -5.758538    4.190293   -2.255815
     13          6           0       -5.809282    5.390573   -3.205609
     14          1           0       -4.681765    6.309973   -3.233123
     15          7           0       -6.812048   -1.437085   -1.453795
     16          6           0       -7.200500   -0.961330   -2.661292
     17          6           0       -7.137860   -2.109477   -3.591085
     18          6           0       -6.864315   -3.332375   -2.786233
     19          6           0       -6.953070   -2.806678   -1.447897
     20          6           0       -7.279787   -1.974341   -5.076126
     21          6           0       -6.580043   -4.751958   -3.163203
     22          8           0       -6.601217   -5.700549   -2.306289
     23          6           0       -6.360305   -5.019774   -4.596043
     24          7           0       -7.168176   -1.994185    1.500561
     25          6           0       -7.248545   -3.248281    1.042555
     26          6           0       -7.333105   -4.236238    2.168046
     27          6           0       -7.048025   -3.409666    3.504182
     28          6           0       -6.923003   -1.995778    2.884860
     29          6           0       -8.667383   -4.982612    2.304566
     30          6           0       -5.903645   -3.919435    4.415746
     31          6           0       -4.573923   -3.743022    3.717307
     32          7           0       -6.560091    0.831202    2.004769
     33          6           0       -6.675023    0.411233    3.337845
     34          6           0       -6.641879    1.623195    4.176963
     35          6           0       -6.525886    2.671997    3.266795
     36          6           0       -6.515334    2.150183    1.941695
     37          6           0       -6.773439    1.660102    5.593213
     38          6           0       -6.433200    4.113824    3.104315
     39          8           0       -6.303024    5.066637    3.874182
     40          6           0       -6.638242    4.458602    1.563240
     41          6           0       -5.550886    5.418444    1.163655
     42          8           0       -4.356561    5.057478    1.137999
     43          8           0       -6.103925    6.528000    0.650258
     44          6           0       -5.078750    7.509962    0.206501
     45          1           0       -8.151247    0.458160   -3.907191
     46          1           0       -7.186024   -4.596647   -0.378553
     47          1           0       -6.797851   -1.009137    4.761320
     48          1           0       -7.697021    4.684629   -1.387777
     49          1           0       -7.690073    2.992294   -3.642417
     50          1           0       -9.721694    3.549153   -1.514436
     51          1           0       -9.823438    1.922101   -2.255124
     52          1           0       -9.972683    3.312143   -3.292473
     53          1           0       -5.441158    3.415107   -2.953250
     54          1           0       -5.013968    4.375117   -1.480714
     55          1           0       -6.746631    5.938568   -3.105675
     56          1           0       -5.822353    5.015864   -4.229143
     57          1           0       -7.637350   -0.984154   -5.355812
     58          1           0       -8.079577   -2.648412   -5.382188
     59          1           0       -6.360180   -2.232582   -5.601450
     60          1           0       -7.242539   -4.713898   -5.158761
     61          1           0       -6.083060   -6.070981   -4.666406
     62          1           0       -5.539282   -4.395636   -4.950052
     63          1           0       -6.579106   -5.015145    2.062140
     64          1           0       -7.918006   -3.380662    4.160662
     65          1           0       -8.567708   -6.067748    2.269202
     66          1           0       -9.335016   -4.625483    1.520975
     67          1           0       -9.236879   -4.740483    3.201486
     68          1           0       -6.022816   -4.983976    4.614482
     69          1           0       -5.857257   -3.405913    5.376160
     70          1           0       -4.508703   -4.631327    3.090017
     71          1           0       -3.762235   -3.718611    4.445164
     72          1           0       -4.583712   -2.876771    3.055491
     73          1           0       -6.021611    2.363374    5.951169
     74          1           0       -6.631242    0.671865    6.029985
     75          1           0       -7.798700    2.016509    5.691551
     76          1           0       -7.629503    4.901179    1.470234
     77          1           0       -5.289084    8.447973    0.720436
     78          1           0       -5.104206    7.513379   -0.883337
     79          1           0       -4.056031    7.320509    0.534358
     80         12           0        6.530992   -1.136849   -0.265274
     81          6           0        7.756973    2.205750    0.185421
     82          6           0        4.608200    0.071325   -2.810434
     83          6           0        5.100510   -3.966038   -0.395002
     84          6           0        7.642318   -1.831316    2.964024
     85          7           0        6.300109    0.894429   -1.109591
     86          6           0        6.863241    2.074422   -0.897838
     87          6           0        6.506502    3.155930   -1.952654
     88          6           0        5.112246    2.543718   -2.462679
     89          6           0        5.360690    1.070926   -2.143602
     90          6           0        3.916165    3.013064   -1.651243
     91          6           0        7.560164    3.229682   -3.112986
     92          6           0        7.443748    4.464103   -4.009870
     93          1           0        8.668114    5.055375   -4.542579
     94          7           0        5.451679   -1.965162   -1.710103
     95          6           0        4.754508   -1.326556   -2.673129
     96          6           0        4.117298   -2.382107   -3.475595
     97          6           0        4.361380   -3.690031   -2.808910
     98          6           0        4.976339   -3.245823   -1.574163
     99          6           0        3.433757   -2.108933   -4.783863
    100          6           0        4.075512   -5.105532   -3.209946
    101          8           0        4.156494   -6.072178   -2.372173
    102          6           0        3.607622   -5.314767   -4.587912
    103          7           0        6.198718   -2.615383    1.158059
    104          6           0        5.598451   -3.771913    0.826341
    105          6           0        5.715925   -4.786173    1.938941
    106          6           0        6.733513   -4.149051    2.995429
    107          6           0        6.969474   -2.778095    2.324456
    108          6           0        4.411159   -5.151873    2.646214
    109          6           0        7.970442   -5.004009    3.384952
    110          6           0        8.894929   -5.145281    2.197205
    111          7           0        7.681896   -0.099268    1.240347
    112          6           0        8.009919   -0.562993    2.533193
    113          6           0        8.704231    0.540276    3.228294
    114          6           0        8.711660    1.585390    2.292242
    115          6           0        8.049625    1.169992    1.105372
    116          6           0        9.183734    0.508275    4.568131
    117          6           0        9.119649    2.949093    2.042173
    118          8           0        9.793721    3.779545    2.650222
    119          6           0        8.408405    3.453761    0.713328
    120          6           0        9.448321    4.118668   -0.146333
    121          8           0       10.385937    3.458952   -0.628274
    122          8           0        9.047000    5.370087   -0.434872
    123          6           0       10.040498    6.066623   -1.294901
    124          1           0        3.799484    0.384984   -3.471092
    125          1           0        4.720396   -4.989786   -0.425544
    126          1           0        8.106213   -2.001353    3.937965
    127          1           0        6.351094    4.149569   -1.549803
    128          1           0        4.986299    2.686030   -3.532847
    129          1           0        4.215692    3.589949   -0.788899
    130          1           0        3.398274    2.114034   -1.343707
    131          1           0        3.217434    3.559417   -2.291236
    132          1           0        7.340716    2.443163   -3.846451
    133          1           0        8.558158    3.156581   -2.726605
    134          1           0        6.805104    5.237405   -3.565929
    135          1           0        6.921692    4.179061   -4.926505
    136          1           0        3.267685   -1.035089   -4.934421
    137          1           0        2.425993   -2.532267   -4.712616
    138          1           0        3.949428   -2.564773   -5.631775
    139          1           0        2.694885   -4.746242   -4.749618
    140          1           0        3.542991   -6.397346   -4.713378
    141          1           0        4.356968   -4.909713   -5.277133
    142          1           0        6.128631   -5.717582    1.571167
    143          1           0        6.245580   -3.946884    3.960252
    144          1           0        4.189086   -6.235409    2.619565
    145          1           0        3.607209   -4.587662    2.192499
    146          1           0        4.349223   -4.844709    3.688820
    147          1           0        7.660581   -6.015433    3.659114
    148          1           0        8.528297   -4.599796    4.223048
    149          1           0        8.452256   -5.974444    1.637177
    150          1           0        9.904850   -5.384472    2.524155
    151          1           0        8.852834   -4.255932    1.557725
    152          1           0       10.166288    0.961037    4.558065
    153          1           0        9.217555   -0.508395    4.954128
    154          1           0        8.417551    1.110301    5.063907
    155          1           0        7.617425    4.144793    1.007275
    156          1           0       10.314425    6.993017   -0.780661
    157          1           0        9.560664    6.164089   -2.286866
    158          1           0       11.010294    5.599335   -1.419767
 ---------------------------------------------------------------------

 SCF Done:  E(RCAM-B3LYP) =  -4069.81165900     A.U. after   19 cycles

 Excitation energies and oscillator strengths:

 Excited State   1:      Singlet-A      1.6656 eV  744.40 nm  f=0.0592  <S**2>=0.000
     309 -> 315       -0.10934
     310 -> 316        0.13199
     311 -> 313       -0.43641
     312 -> 314        0.53010
 This state for optimization and/or second-order correction.
 Total Energy, E(TD-HF/TD-DFT) =  -4069.75045073
 Copying the excited state density for this state as the 1-particle RhoCI density.

 Excited State   2:      Singlet-A      1.6885 eV  734.29 nm  f=0.6921  <S**2>=0.000
     309 -> 315        0.13750
     310 -> 316        0.11230
     311 -> 313        0.52891
     312 -> 314        0.43551

 Excited State   3:      Singlet-A      2.1844 eV  567.60 nm  f=0.0412  <S**2>=0.000
     309 -> 313       -0.19671
     310 -> 314        0.61242
     312 -> 316       -0.25869

 Excited State   4:      Singlet-A      2.1935 eV  565.25 nm  f=0.1476  <S**2>=0.000
     309 -> 313        0.60988
     310 -> 314        0.19493
     311 -> 315       -0.26584

 Excited State   5:      Singlet-A      2.6319 eV  471.08 nm  f=0.0000  <S**2>=0.000
     312 -> 313        0.70705

 The electronic state is 1-A.
 Alpha  occ. eigenvalues --  -46.87906 -46.87557 -19.26417 -19.26260 -19.19155
 Alpha  occ. eigenvalues --  -19.19071 -19.18912 -19.18634 -19.18274 -19.17949
 Alpha  occ. eigenvalues --  -14.42564 -14.42390 -14.41552 -14.41257 -14.39512
 Alpha  occ. eigenvalues --  -14.39251 -14.38695 -14.38497 -10.39212 -10.38999
 Alpha  occ. eigenvalues --  -10.35546 -10.35314 -10.34496 -10.34126 -10.31818
 Alpha  occ. eigenvalues --  -10.31678 -10.31520 -10.31198 -10.31029 -10.30920
 Alpha  occ. eigenvalues --  -10.30680 -10.30610 -10.30306 -10.30297 -10.30260
 Alpha  occ. eigenvalues --  -10.30044 -10.30015 -10.29792 -10.29736 -10.29361
 Alpha  occ. eigenvalues --  -10.29339 -10.29308 -10.28889 -10.28725 -10.28607
 Alpha  occ. eigenvalues --  -10.28584 -10.28477 -10.28303 -10.28246 -10.28012
 Alpha  occ. eigenvalues --  -10.27902 -10.27899 -10.27840 -10.27693 -10.27612
 Alpha  occ. eigenvalues --  -10.27576 -10.27564 -10.27521 -10.27515 -10.27427
 Alpha  occ. eigenvalues --  -10.27415 -10.27380 -10.27375 -10.27282 -10.27273
 Alpha  occ. eigenvalues --  -10.26943 -10.26880 -10.26607 -10.26521 -10.26363
 Alpha  occ. eigenvalues --  -10.26349 -10.26244 -10.26120 -10.26060 -10.25929
 Alpha  occ. eigenvalues --  -10.25837 -10.25836 -10.25750 -10.25498 -10.25299
 Alpha  occ. eigenvalues --  -10.24939 -10.24887 -10.24772 -10.24740 -10.24659
 Alpha  occ. eigenvalues --  -10.24589  -3.16649  -3.16307  -1.91531  -1.91189
 Alpha  occ. eigenvalues --   -1.91117  -1.90959  -1.90777  -1.90614  -1.16766
 Alpha  occ. eigenvalues --   -1.16554  -1.08733  -1.08556  -1.07311  -1.06886
 Alpha  occ. eigenvalues --   -1.06855  -1.06776  -1.04695  -1.04389  -1.03865
 Alpha  occ. eigenvalues --   -1.03561  -1.03340  -1.02938  -1.02517  -1.02009
 Alpha  occ. eigenvalues --   -0.92083  -0.91883  -0.89609  -0.89400  -0.89321
 Alpha  occ. eigenvalues --   -0.89034  -0.88373  -0.88127  -0.87972  -0.87789
 Alpha  occ. eigenvalues --   -0.87693  -0.87583  -0.87386  -0.87042  -0.85111
 Alpha  occ. eigenvalues --   -0.84895  -0.84018  -0.83786  -0.83070  -0.82858
 Alpha  occ. eigenvalues --   -0.82769  -0.82554  -0.81704  -0.81502  -0.80710
 Alpha  occ. eigenvalues --   -0.80348  -0.78907  -0.78548  -0.77328  -0.77053
 Alpha  occ. eigenvalues --   -0.77047  -0.76799  -0.76042  -0.75730  -0.74988
 Alpha  occ. eigenvalues --   -0.74707  -0.72878  -0.72599  -0.71778  -0.71473
 Alpha  occ. eigenvalues --   -0.69983  -0.69670  -0.68996  -0.68726  -0.67750
 Alpha  occ. eigenvalues --   -0.67507  -0.67357  -0.67114  -0.65413  -0.65168
 Alpha  occ. eigenvalues --   -0.64963  -0.64732  -0.64671  -0.64555  -0.64360
 Alpha  occ. eigenvalues --   -0.64110  -0.62415  -0.62185  -0.60546  -0.60254
 Alpha  occ. eigenvalues --   -0.59928  -0.59686  -0.59093  -0.58893  -0.58610
 Alpha  occ. eigenvalues --   -0.58328  -0.57700  -0.57454  -0.57409  -0.57144
 Alpha  occ. eigenvalues --   -0.56419  -0.56111  -0.56106  -0.55796  -0.55630
 Alpha  occ. eigenvalues --   -0.55434  -0.55364  -0.55154  -0.54625  -0.54397
 Alpha  occ. eigenvalues --   -0.54028  -0.53801  -0.53404  -0.53343  -0.53136
 Alpha  occ. eigenvalues --   -0.53047  -0.53030  -0.52876  -0.52808  -0.52586
 Alpha  occ. eigenvalues --   -0.52513  -0.52318  -0.52011  -0.51784  -0.51747
 Alpha  occ. eigenvalues --   -0.51565  -0.51302  -0.51104  -0.50688  -0.50406
 Alpha  occ. eigenvalues --   -0.50121  -0.50028  -0.49880  -0.49777  -0.49633
 Alpha  occ. eigenvalues --   -0.49393  -0.49327  -0.49216  -0.49103  -0.48991
 Alpha  occ. eigenvalues --   -0.48706  -0.48555  -0.48548  -0.48456  -0.48283
 Alpha  occ. eigenvalues --   -0.48254  -0.47807  -0.47502  -0.47404  -0.47031
 Alpha  occ. eigenvalues --   -0.46902  -0.46686  -0.46612  -0.46463  -0.46451
 Alpha  occ. eigenvalues --   -0.46263  -0.46178  -0.45989  -0.45932  -0.45723
 Alpha  occ. eigenvalues --   -0.45288  -0.45112  -0.44688  -0.44619  -0.44417
 Alpha  occ. eigenvalues --   -0.44375  -0.44245  -0.44208  -0.44131  -0.44018
 Alpha  occ. eigenvalues --   -0.43992  -0.43852  -0.43608  -0.43498  -0.43460
 Alpha  occ. eigenvalues --   -0.43284  -0.43133  -0.42838  -0.42817  -0.42802
 Alpha  occ. eigenvalues --   -0.42744  -0.42464  -0.42109  -0.41873  -0.41811
 Alpha  occ. eigenvalues --   -0.41660  -0.41567  -0.41361  -0.41249  -0.40988
 Alpha  occ. eigenvalues --   -0.40934  -0.40878  -0.40661  -0.40637  -0.40602
 Alpha  occ. eigenvalues --   -0.40396  -0.40387  -0.40138  -0.39514  -0.39340
 Alpha  occ. eigenvalues --   -0.38562  -0.38254  -0.37893  -0.37563  -0.37415
 Alpha  occ. eigenvalues --   -0.37392  -0.37169  -0.37098  -0.36832  -0.36681
 Alpha  occ. eigenvalues --   -0.36302  -0.36121  -0.34394  -0.34151  -0.33901
 Alpha  occ. eigenvalues --   -0.33770  -0.33295  -0.33074  -0.31441  -0.31192
 Alpha  occ. eigenvalues --   -0.31143  -0.30870  -0.30134  -0.29853  -0.29557
 Alpha  occ. eigenvalues --   -0.29428  -0.29234  -0.29111  -0.24189  -0.23932
 Alpha  occ. eigenvalues --   -0.21235  -0.21016
 Alpha virt. eigenvalues --   -0.08882  -0.08693  -0.01855  -0.01583  -0.00167
 Alpha virt. eigenvalues --    0.00064   0.02098   0.02308   0.02994   0.03316
 Alpha virt. eigenvalues --    0.04594   0.04835   0.04968   0.05258   0.06024

 Mulliken charges:
               1
     1  Mg   0.838386
     2  C   -0.003258
     3  C   -0.094667
     4  C   -0.045601
     5  C   -0.063697
     6  N   -0.256779
     7  C   -0.052627
     8  C   -0.013925
     9  C   -0.086927
    10  C    0.046119
    11  C    0.104785
    12  C    0.053669
    13  C   -0.071521
    14  H    0.035194
    15  N   -0.433150
    16  C    0.168222
    17  C   -0.177541
    18  C   -0.004004
    19  C    0.148667
    20  C    0.110259
    21  C    0.012328
    22  O   -0.248975
    23  C    0.062608
    24  N   -0.341139
    25  C    0.041277
    26  C   -0.028295
    27  C   -0.024038
    28  C    0.074874
    29  C    0.076070
    30  C    0.035037
    31  C   -0.004540
    32  N   -0.310490
    33  C    0.080427
    34  C   -0.169517
    35  C    0.008439
    36  C    0.082969
    37  C    0.127284
    38  C    0.046176
    39  O   -0.188156
    40  C   -0.005357
    41  C    0.213001
    42  O   -0.257577
    43  O   -0.304638
    44  C    0.157694
    45  H   -0.017656
    46  H   -0.016438
    47  H   -0.041183
    48  H    0.001132
    49  H   -0.004417
    50  H    0.025637
    51  H    0.016667
    52  H    0.016706
    53  H    0.010417
    54  H    0.043731
    55  H    0.018431
    56  H    0.017644
    57  H    0.005689
    58  H    0.027120
    59  H    0.038657
    60  H    0.037400
    61  H    0.036138
    62  H    0.030532
    63  H    0.016985
    64  H    0.009625
    65  H    0.023549
    66  H    0.012503
    67  H    0.004892
    68  H    0.006693
    69  H    0.004757
    70  H    0.009318
    71  H    0.018246
    72  H    0.028670
    73  H    0.047753
    74  H    0.009319
    75  H    0.046209
    76  H    0.035333
    77  H    0.043363
    78  H    0.046113
    79  H    0.053399
    80  Mg   0.838174
    81  C   -0.016811
    82  C   -0.087635
    83  C   -0.045429
    84  C   -0.064719
    85  N   -0.254602
    86  C   -0.049403
    87  C   -0.015131
    88  C   -0.090640
    89  C    0.045959
    90  C    0.114384
    91  C    0.062592
    92  C   -0.077642
    93  H    0.034406
    94  N   -0.423520
    95  C    0.162986
    96  C   -0.174631
    97  C   -0.007864
    98  C    0.152188
    99  C    0.099520
   100  C    0.015604
   101  O   -0.253073
   102  C    0.061289
   103  N   -0.349969
   104  C    0.037610
   105  C   -0.019880
   106  C   -0.034790
   107  C    0.088954
   108  C    0.073610
   109  C    0.034758
   110  C   -0.007624
   111  N   -0.324171
   112  C    0.078604
   113  C   -0.163047
   114  C    0.002423
   115  C    0.096260
   116  C    0.131439
   117  C    0.042485
   118  O   -0.187886
   119  C    0.000847
   120  C    0.211179
   121  O   -0.251261
   122  O   -0.305436
   123  C    0.152140
   124  H   -0.019777
   125  H   -0.015599
   126  H   -0.040545
   127  H   -0.000354
   128  H   -0.005025
   129  H    0.023363
   130  H    0.015456
   131  H    0.016414
   132  H    0.013624
   133  H    0.037528
   134  H    0.020962
   135  H    0.019196
   136  H    0.008399
   137  H    0.025593
   138  H    0.039234
   139  H    0.037845
   140  H    0.036278
   141  H    0.033569
   142  H    0.014194
   143  H    0.012508
   144  H    0.024912
   145  H    0.012136
   146  H    0.005589
   147  H    0.006083
   148  H    0.003575
   149  H    0.010835
   150  H    0.017725
   151  H    0.030154
   152  H    0.045818
   153  H    0.008332
   154  H    0.047426
   155  H    0.035704
   156  H    0.043873
   157  H    0.049348
   158  H    0.053376
 Sum of Mulliken charges =  -0.00000

 Dipole moment (field-independent basis, Debye):
    X=             -5.8746    Y=             -0.3621    Z=             -6.4360  Tot=              8.7214
 Quadrupole moment (field-independent basis, Debye-Ang):
   XX=           -542.7118   YY=           -530.4621   ZZ=           -463.8907
   XY=            -14.5282   XZ=             12.1278   YZ=            -56.5961

 Normal termination of Gaussian 16 at Sat Sep 11 12:30:46 2021.
