 Gaussian 16, Revision A.03,
 Gaussian 16:  ES64L-G16RevA.03 25-Dec-2016

 -----------------------------------
 #p cam-b3lyp/Def2SVP td=(nstates=5)
 -----------------------------------

 --------------------------------
 TDDFT excited states in gaussian
 --------------------------------
 Symbolic Z-matrix:
 Charge =  0 Multiplicity = 1

                         Standard orientation:
 ---------------------------------------------------------------------
 Center     Atomic      Atomic             Coordinates (Angstroms)
 Number     Number       Type             X           Y           Z
 ---------------------------------------------------------------------
      1         12           0       -4.381237   -0.848449    0.010634
      2          6           0       -4.723021    1.866425    2.318200
      3          6           0       -5.343526    1.314572   -2.446682
      4          6           0       -4.526720   -3.326297   -1.963125
      5          6           0       -4.558614   -3.001399    2.745411
      6          7           0       -4.934475    1.294595    0.054662
      7          6           0       -4.967116    2.235249    0.993424
      8          6           0       -5.211055    3.665763    0.426416
      9          6           0       -5.938845    3.275269   -0.937342
     10          6           0       -5.344545    1.893037   -1.142685
     11          6           0       -7.452654    3.144236   -0.804247
     12          6           0       -3.873967    4.436464    0.161945
     13          6           0       -4.023970    5.941291   -0.079610
     14          1           0       -2.991517    6.837000    0.419483
     15          7           0       -4.386705   -0.915060   -1.963798
     16          6           0       -4.796968    0.063555   -2.805987
     17          6           0       -4.604721   -0.467686   -4.172554
     18          6           0       -4.228074   -1.903689   -4.053702
     19          6           0       -4.393112   -2.115353   -2.638308
     20          6           0       -4.731112    0.371455   -5.406902
     21          6           0       -3.799181   -2.926108   -5.058113
     22          8           0       -3.743611   -4.172480   -4.778752
     23          6           0       -3.527261   -2.434435   -6.420963
     24          7           0       -4.742355   -2.882645    0.309421
     25          6           0       -4.690950   -3.749344   -0.708014
     26          6           0       -4.699672   -5.167166   -0.218480
     27          6           0       -4.522138   -5.088698    1.366473
     28          6           0       -4.524398   -3.548535    1.528225
     29          6           0       -5.956849   -5.982429   -0.551445
     30          6           0       -3.350791   -5.893419    1.983554
     31          6           0       -2.031759   -5.295059    1.548563
     32          7           0       -4.423305   -0.637273    2.170421
     33          6           0       -4.521751   -1.667700    3.116572
     34          6           0       -4.623223   -1.029156    4.441726
     35          6           0       -4.593246    0.337515    4.171249
     36          6           0       -4.506651    0.540080    2.764209
     37          6           0       -4.784493   -1.706027    5.682803
     38          6           0       -4.639044    1.673997    4.741841
     39          8           0       -4.617299    2.129534    5.886177
     40          6           0       -4.847692    2.717648    3.557321
     41          6           0       -3.852128    3.828956    3.750079
     42          8           0       -2.627942    3.619438    3.628271
     43          8           0       -4.501293    5.001731    3.811104
     44          6           0       -3.568931    6.149287    3.972260
     45          1           0       -5.858352    1.836176   -3.255895
     46          1           0       -4.469948   -4.211628   -2.599838
     47          1           0       -4.531866   -3.610135    3.651048
     48          1           0       -5.867570    4.289414    1.033434
     49          1           0       -5.652458    3.936201   -1.755188
     50          1           0       -7.768656    3.214521    0.236485
     51          1           0       -7.696683    2.162547   -1.210731
     52          1           0       -7.961614    3.867528   -1.441887
     53          1           0       -3.469134    4.133034   -0.803509
     54          1           0       -3.165832    4.270590    0.974569
     55          1           0       -5.012166    6.295697    0.214967
     56          1           0       -3.980973    6.120712   -1.153928
     57          1           0       -5.178507    1.340301   -5.188453
     58          1           0       -5.455176   -0.122223   -6.054763
     59          1           0       -3.780889    0.476678   -5.930673
     60          1           0       -4.424404   -1.958637   -6.817572
     61          1           0       -3.147200   -3.289505   -6.978868
     62          1           0       -2.764714   -1.656688   -6.370146
     63          1           0       -3.871205   -5.732604   -0.643155
     64          1           0       -5.403028   -5.453500    1.895271
     65          1           0       -5.750814   -6.897636   -1.107008
     66          1           0       -6.641302   -5.336953   -1.101150
     67          1           0       -6.564147   -6.258427    0.310200
     68          1           0       -3.368952   -6.922901    1.627487
     69          1           0       -3.373029   -5.918891    3.073099
     70          1           0       -1.868087   -5.750240    0.572420
     71          1           0       -1.240251   -5.571519    2.245911
     72          1           0       -2.113766   -4.218653    1.396538
     73          1           0       -4.111991   -1.216293    6.386983
     74          1           0       -4.554550   -2.767034    5.587979
     75          1           0       -5.841384   -1.523503    5.876512
     76          1           0       -5.875569    3.071834    3.629030
     77          1           0       -3.879717    6.692466    4.864786
     78          1           0       -3.574006    6.688114    3.024609
     79          1           0       -2.538957    5.900915    4.230727
     80         12           0        4.599039   -0.425108    0.067647
     81          6           0        3.848453    1.982203   -2.485892
     82          6           0        6.089166    2.104013    1.804797
     83          6           0        5.667410   -2.597080    2.119121
     84          6           0        4.090702   -2.911240   -2.321169
     85          7           0        4.869230    1.722798   -0.385943
     86          6           0        4.487877    2.537637   -1.358033
     87          6           0        4.738107    4.042512   -1.071136
     88          6           0        5.929156    3.889235   -0.004931
     89          6           0        5.595552    2.500531    0.536238
     90          6           0        7.306384    3.834299   -0.644894
     91          6           0        3.487012    4.746304   -0.437519
     92          6           0        3.551004    6.275102   -0.416752
     93          1           0        2.314149    7.026239   -0.612847
     94          7           0        5.273094   -0.217533    1.922677
     95          6           0        5.826514    0.885579    2.468694
     96          6           0        6.174742    0.519235    3.850254
     97          6           0        5.932503   -0.938772    4.024173
     98          6           0        5.628020   -1.320013    2.659599
     99          6           0        6.607075    1.527340    4.875057
    100          6           0        5.980990   -1.842932    5.218469
    101          8           0        5.967954   -3.118926    5.097979
    102          6           0        6.138331   -1.192225    6.527399
    103          7           0        5.051832   -2.444970   -0.125933
    104          6           0        5.447789   -3.169481    0.935295
    105          6           0        5.449297   -4.645851    0.617929
    106          6           0        4.737304   -4.779526   -0.807826
    107          6           0        4.517784   -3.283434   -1.122321
    108          6           0        6.823281   -5.313498    0.564951
    109          6           0        3.520324   -5.740392   -0.899420
    110          6           0        2.366832   -5.190762   -0.091487
    111          7           0        3.889565   -0.500843   -1.971706
    112          6           0        3.780290   -1.642947   -2.794953
    113          6           0        3.359946   -1.177014   -4.132359
    114          6           0        3.275451    0.217167   -3.999582
    115          6           0        3.638424    0.595316   -2.678699
    116          6           0        3.158169   -2.001422   -5.275052
    117          6           0        2.972011    1.455864   -4.679477
    118          8           0        2.525126    1.752106   -5.786843
    119          6           0        3.451653    2.664601   -3.765540
    120          6           0        2.336680    3.672455   -3.705555
    121          8           0        1.257144    3.388845   -3.157144
    122          8           0        2.801913    4.868760   -4.109024
    123          6           0        1.735435    5.903980   -4.056557
    124          1           0        6.777531    2.770560    2.325137
    125          1           0        5.923357   -3.397044    2.817707
    126          1           0        3.816182   -3.633258   -3.093180
    127          1           0        5.075210    4.617816   -1.925039
    128          1           0        5.852307    4.634068    0.782903
    129          1           0        7.248490    3.788451   -1.722243
    130          1           0        7.777481    2.942357   -0.253025
    131          1           0        7.916350    4.673901   -0.299418
    132          1           0        3.470613    4.544261    0.641202
    133          1           0        2.584727    4.428961   -0.923122
    134          1           0        4.343730    6.663352   -1.067737
    135          1           0        3.845581    6.596508    0.585214
    136          1           0        6.852083    2.491418    4.412538
    137          1           0        7.558174    1.175046    5.288764
    138          1           0        5.886665    1.636545    5.688531
    139          1           0        7.054970   -0.607231    6.532015
    140          1           0        6.061761   -1.994621    7.263733
    141          1           0        5.313092   -0.485268    6.668101
    142          1           0        4.875190   -5.199520    1.350714
    143          1           0        5.427334   -5.163642   -1.573436
    144          1           0        6.919764   -6.169326    1.259447
    145          1           0        7.574962   -4.564875    0.777266
    146          1           0        7.125082   -5.671697   -0.417809
    147          1           0        3.770239   -6.710691   -0.463269
    148          1           0        3.187712   -5.920431   -1.916252
    149          1           0        2.598112   -5.521512    0.925473
    150          1           0        1.423475   -5.608425   -0.437427
    151          1           0        2.373586   -4.094587   -0.091159
    152          1           0        2.246985   -1.660194   -5.748156
    153          1           0        3.095205   -3.052447   -5.000913
    154          1           0        4.067410   -1.778209   -5.839600
    155          1           0        4.353992    3.078717   -4.217046
    156          1           0        1.669602    6.345781   -5.055641
    157          1           0        2.014194    6.578208   -3.225020
    158          1           0        0.716469    5.566693   -3.906904
 ---------------------------------------------------------------------

 SCF Done:  E(RCAM-B3LYP) =  -4069.81253535     A.U. after   19 cycles

 Excitation energies and oscillator strengths:

 Excited State   1:      Singlet-A      1.6486 eV  752.06 nm  f=0.0323  <S**2>=0.000
     309 -> 315        0.12431
     310 -> 316        0.11108
     311 -> 313        0.51246
     312 -> 314        0.45862
 This state for optimization and/or second-order correction.
 Total Energy, E(TD-HF/TD-DFT) =  -4069.75195099
 Copying the excited state density for this state as the 1-particle RhoCI density.

 Excited State   2:      Singlet-A      1.7037 eV  727.75 nm  f=0.6755  <S**2>=0.000
     309 -> 315       -0.12056
     310 -> 316        0.13495
     311 -> 313       -0.45631
     312 -> 314        0.50991

 Excited State   3:      Singlet-A      2.1820 eV  568.22 nm  f=0.0158  <S**2>=0.000
     309 -> 313        0.56319
     310 -> 314       -0.31426
     311 -> 315       -0.23490
     312 -> 316        0.12980

 Excited State   4:      Singlet-A      2.1964 eV  564.49 nm  f=0.1591  <S**2>=0.000
     309 -> 313        0.31039
     310 -> 314        0.55863
     311 -> 315       -0.13713
     312 -> 316       -0.24527

 Excited State   5:      Singlet-A      2.4072 eV  515.05 nm  f=0.0000  <S**2>=0.000
     312 -> 313        0.70698

 The electronic state is 1-A.
 Alpha  occ. eigenvalues --  -46.87526 -46.87419 -19.26427 -19.26088 -19.19217
 Alpha  occ. eigenvalues --  -19.18795 -19.18566 -19.18450 -19.18036 -19.17872
 Alpha  occ. eigenvalues --  -14.42364 -14.42076 -14.41236 -14.41098 -14.39214
 Alpha  occ. eigenvalues --  -14.39015 -14.38483 -14.38229 -10.39135 -10.38849
 Alpha  occ. eigenvalues --  -10.35240 -10.35077 -10.34213 -10.34096 -10.31897
 Alpha  occ. eigenvalues --  -10.31545 -10.31201 -10.31051 -10.30892 -10.30524
 Alpha  occ. eigenvalues --  -10.30282 -10.30250 -10.30208 -10.30164 -10.29997
 Alpha  occ. eigenvalues --  -10.29847 -10.29789 -10.29611 -10.29296 -10.29284
 Alpha  occ. eigenvalues --  -10.29276 -10.28870 -10.28605 -10.28567 -10.28386
 Alpha  occ. eigenvalues --  -10.28290 -10.28245 -10.28028 -10.27993 -10.27893
 Alpha  occ. eigenvalues --  -10.27763 -10.27539 -10.27429 -10.27392 -10.27372
 Alpha  occ. eigenvalues --  -10.27350 -10.27339 -10.27286 -10.27266 -10.27231
 Alpha  occ. eigenvalues --  -10.27204 -10.27198 -10.27053 -10.27026 -10.26970
 Alpha  occ. eigenvalues --  -10.26872 -10.26542 -10.26279 -10.26221 -10.25996
 Alpha  occ. eigenvalues --  -10.25963 -10.25959 -10.25939 -10.25931 -10.25804
 Alpha  occ. eigenvalues --  -10.25791 -10.25672 -10.25564 -10.25306 -10.25211
 Alpha  occ. eigenvalues --  -10.24776 -10.24577 -10.24574 -10.24483 -10.24477
 Alpha  occ. eigenvalues --  -10.24449  -3.16274  -3.16160  -1.91156  -1.91041
 Alpha  occ. eigenvalues --   -1.90745  -1.90629  -1.90582  -1.90471  -1.16715
 Alpha  occ. eigenvalues --   -1.16429  -1.08658  -1.08343  -1.07002  -1.06855
 Alpha  occ. eigenvalues --   -1.06817  -1.06419  -1.04369  -1.04210  -1.03537
 Alpha  occ. eigenvalues --   -1.03407  -1.02916  -1.02870  -1.02054  -1.01992
 Alpha  occ. eigenvalues --   -0.91900  -0.91637  -0.89375  -0.89217  -0.89036
 Alpha  occ. eigenvalues --   -0.88831  -0.88101  -0.87993  -0.87701  -0.87559
 Alpha  occ. eigenvalues --   -0.87537  -0.87307  -0.86970  -0.86860  -0.84886
 Alpha  occ. eigenvalues --   -0.84632  -0.83769  -0.83669  -0.82786  -0.82593
 Alpha  occ. eigenvalues --   -0.82541  -0.82303  -0.81568  -0.81310  -0.80363
 Alpha  occ. eigenvalues --   -0.80269  -0.78506  -0.78410  -0.77029  -0.76891
 Alpha  occ. eigenvalues --   -0.76825  -0.76634  -0.75767  -0.75613  -0.74708
 Alpha  occ. eigenvalues --   -0.74613  -0.72588  -0.72433  -0.71483  -0.71350
 Alpha  occ. eigenvalues --   -0.69651  -0.69618  -0.68719  -0.68529  -0.67499
 Alpha  occ. eigenvalues --   -0.67300  -0.67069  -0.66848  -0.65174  -0.64943
 Alpha  occ. eigenvalues --   -0.64684  -0.64566  -0.64537  -0.64310  -0.64092
 Alpha  occ. eigenvalues --   -0.63960  -0.62260  -0.62039  -0.60204  -0.60069
 Alpha  occ. eigenvalues --   -0.59682  -0.59446  -0.58892  -0.58658  -0.58339
 Alpha  occ. eigenvalues --   -0.58177  -0.57532  -0.57300  -0.57131  -0.56994
 Alpha  occ. eigenvalues --   -0.56114  -0.55971  -0.55860  -0.55715  -0.55365
 Alpha  occ. eigenvalues --   -0.55173  -0.55165  -0.55073  -0.54432  -0.54269
 Alpha  occ. eigenvalues --   -0.53799  -0.53541  -0.53120  -0.53055  -0.52967
 Alpha  occ. eigenvalues --   -0.52863  -0.52821  -0.52609  -0.52518  -0.52357
 Alpha  occ. eigenvalues --   -0.52274  -0.52178  -0.51820  -0.51613  -0.51540
 Alpha  occ. eigenvalues --   -0.51248  -0.51128  -0.50889  -0.50309  -0.50137
 Alpha  occ. eigenvalues --   -0.49853  -0.49748  -0.49717  -0.49543  -0.49371
 Alpha  occ. eigenvalues --   -0.49167  -0.49113  -0.49029  -0.48878  -0.48775
 Alpha  occ. eigenvalues --   -0.48499  -0.48304  -0.48300  -0.48208  -0.48181
 Alpha  occ. eigenvalues --   -0.48083  -0.47492  -0.47358  -0.47006  -0.46950
 Alpha  occ. eigenvalues --   -0.46603  -0.46475  -0.46444  -0.46217  -0.46169
 Alpha  occ. eigenvalues --   -0.46020  -0.46004  -0.45866  -0.45778  -0.45545
 Alpha  occ. eigenvalues --   -0.45105  -0.44912  -0.44453  -0.44363  -0.44286
 Alpha  occ. eigenvalues --   -0.44154  -0.44056  -0.43971  -0.43826  -0.43822
 Alpha  occ. eigenvalues --   -0.43777  -0.43669  -0.43536  -0.43288  -0.43220
 Alpha  occ. eigenvalues --   -0.43051  -0.42934  -0.42820  -0.42711  -0.42463
 Alpha  occ. eigenvalues --   -0.42427  -0.42382  -0.41850  -0.41717  -0.41593
 Alpha  occ. eigenvalues --   -0.41384  -0.41347  -0.41201  -0.40890  -0.40817
 Alpha  occ. eigenvalues --   -0.40599  -0.40558  -0.40548  -0.40445  -0.40381
 Alpha  occ. eigenvalues --   -0.40280  -0.40088  -0.39846  -0.39319  -0.39152
 Alpha  occ. eigenvalues --   -0.38233  -0.38175  -0.37546  -0.37407  -0.37152
 Alpha  occ. eigenvalues --   -0.37086  -0.37004  -0.36906  -0.36790  -0.36471
 Alpha  occ. eigenvalues --   -0.36131  -0.35904  -0.34146  -0.33936  -0.33885
 Alpha  occ. eigenvalues --   -0.33521  -0.33060  -0.32836  -0.31129  -0.30985
 Alpha  occ. eigenvalues --   -0.30858  -0.30688  -0.29946  -0.29738  -0.29204
 Alpha  occ. eigenvalues --   -0.29105  -0.29073  -0.28961  -0.23916  -0.23722
 Alpha  occ. eigenvalues --   -0.20993  -0.20765
 Alpha virt. eigenvalues --   -0.08672  -0.08405  -0.01554  -0.01391   0.00100
 Alpha virt. eigenvalues --    0.00320   0.02280   0.02518   0.03086   0.03971
 Alpha virt. eigenvalues --    0.04841   0.05061   0.05133   0.05341   0.06232

 Mulliken charges:
               1
     1  Mg   0.841454
     2  C   -0.002593
     3  C   -0.090796
     4  C   -0.046713
     5  C   -0.064466
     6  N   -0.256796
     7  C   -0.052016
     8  C   -0.014620
     9  C   -0.087722
    10  C    0.047971
    11  C    0.104968
    12  C    0.052512
    13  C   -0.070368
    14  H    0.032618
    15  N   -0.433313
    16  C    0.171034
    17  C   -0.174155
    18  C   -0.003193
    19  C    0.149379
    20  C    0.109901
    21  C    0.012439
    22  O   -0.251634
    23  C    0.061128
    24  N   -0.341184
    25  C    0.041641
    26  C   -0.028108
    27  C   -0.023601
    28  C    0.074329
    29  C    0.076507
    30  C    0.035480
    31  C   -0.006183
    32  N   -0.310080
    33  C    0.079704
    34  C   -0.170632
    35  C    0.007612
    36  C    0.082568
    37  C    0.127567
    38  C    0.045282
    39  O   -0.190521
    40  C   -0.005274
    41  C    0.212637
    42  O   -0.257309
    43  O   -0.304699
    44  C    0.158495
    45  H   -0.017923
    46  H   -0.017947
    47  H   -0.042546
    48  H   -0.000424
    49  H   -0.003355
    50  H    0.024847
    51  H    0.016218
    52  H    0.015976
    53  H    0.017816
    54  H    0.044076
    55  H    0.016542
    56  H    0.017933
    57  H    0.005797
    58  H    0.025258
    59  H    0.045757
    60  H    0.036932
    61  H    0.034067
    62  H    0.036645
    63  H    0.015300
    64  H    0.008839
    65  H    0.022267
    66  H    0.012627
    67  H    0.004293
    68  H    0.004940
    69  H    0.004573
    70  H    0.008197
    71  H    0.019013
    72  H    0.030210
    73  H    0.046378
    74  H    0.008638
    75  H    0.045139
    76  H    0.034456
    77  H    0.041861
    78  H    0.046392
    79  H    0.052231
    80  Mg   0.840000
    81  C   -0.016792
    82  C   -0.086897
    83  C   -0.045467
    84  C   -0.064603
    85  N   -0.254717
    86  C   -0.049362
    87  C   -0.015649
    88  C   -0.090836
    89  C    0.046739
    90  C    0.114444
    91  C    0.062267
    92  C   -0.077196
    93  H    0.032954
    94  N   -0.423592
    95  C    0.164419
    96  C   -0.173736
    97  C   -0.007045
    98  C    0.152702
    99  C    0.099366
   100  C    0.016318
   101  O   -0.253514
   102  C    0.060600
   103  N   -0.350109
   104  C    0.037782
   105  C   -0.019864
   106  C   -0.034583
   107  C    0.088537
   108  C    0.073798
   109  C    0.034474
   110  C   -0.008871
   111  N   -0.323853
   112  C    0.078092
   113  C   -0.163487
   114  C    0.000966
   115  C    0.096194
   116  C    0.132060
   117  C    0.041278
   118  O   -0.191098
   119  C    0.001208
   120  C    0.210453
   121  O   -0.251478
   122  O   -0.305227
   123  C    0.153088
   124  H   -0.019727
   125  H   -0.015698
   126  H   -0.040225
   127  H   -0.001632
   128  H   -0.003869
   129  H    0.022012
   130  H    0.014388
   131  H    0.016053
   132  H    0.017070
   133  H    0.037847
   134  H    0.019842
   135  H    0.020279
   136  H    0.008798
   137  H    0.025724
   138  H    0.041921
   139  H    0.037851
   140  H    0.036306
   141  H    0.036007
   142  H    0.014274
   143  H    0.012110
   144  H    0.024858
   145  H    0.011503
   146  H    0.005491
   147  H    0.005441
   148  H    0.004404
   149  H    0.009993
   150  H    0.020198
   151  H    0.030415
   152  H    0.043325
   153  H    0.009944
   154  H    0.046348
   155  H    0.034668
   156  H    0.042760
   157  H    0.050259
   158  H    0.051021
 Sum of Mulliken charges =  -0.00000

 Dipole moment (field-independent basis, Debye):
    X=              1.1367    Y=              3.2129    Z=             -1.3861  Tot=              3.6791
 Quadrupole moment (field-independent basis, Debye-Ang):
   XX=           -476.3605   YY=           -462.1476   ZZ=           -542.1570
   XY=             10.3648   XZ=             24.1225   YZ=             -6.2163

 Normal termination of Gaussian 16 at Thu Sep  9 18:36:58 2021.
