 Gaussian 16, Revision A.03,
 Gaussian 16:  ES64L-G16RevA.03 25-Dec-2016

 -----------------------------------
 #p cam-b3lyp/Def2SVP td=(nstates=5)
 -----------------------------------

 --------------------------------
 TDDFT excited states in gaussian
 --------------------------------
 Symbolic Z-matrix:
 Charge =  0 Multiplicity = 1

                         Standard orientation:
 ---------------------------------------------------------------------
 Center     Atomic      Atomic             Coordinates (Angstroms)
 Number     Number       Type             X           Y           Z
 ---------------------------------------------------------------------
      1         12           0        5.206953   -0.676771    0.294216
      2          6           0        5.501457    2.513944   -1.301033
      3          6           0        5.863952    0.904553    3.245628
      4          6           0        5.401774   -3.533866    1.656448
      5          6           0        5.701113   -2.123294   -2.837722
      6          7           0        5.612144    1.444219    0.781932
      7          6           0        5.637350    2.577514    0.087541
      8          6           0        5.746262    3.848157    0.982515
      9          6           0        6.413940    3.190931    2.272577
     10          6           0        5.905250    1.769210    2.111744
     11          6           0        7.938506    3.175062    2.228427
     12          6           0        4.345274    4.464171    1.313406
     13          6           0        4.375560    5.877565    1.902265
     14          1           0        3.316281    6.808486    1.543570
     15          7           0        5.095372   -1.199642    2.196059
     16          6           0        5.384229   -0.422942    3.267780
     17          6           0        5.145402   -1.266432    4.458649
     18          6           0        4.877123   -2.653526    3.987382
     19          6           0        5.143303   -2.521665    2.577723
     20          6           0        5.137105   -0.731346    5.857707
     21          6           0        4.458987   -3.902543    4.696784
     22          8           0        4.507163   -5.051122    4.137304
     23          6           0        4.070235   -3.755937    6.111147
     24          7           0        5.725767   -2.563831   -0.432057
     25          6           0        5.671911   -3.644564    0.354136
     26          6           0        5.808921   -4.907437   -0.443560
     27          6           0        5.724361   -4.472637   -1.977689
     28          6           0        5.629939   -2.939131   -1.783488
     29          6           0        7.096621   -5.709704   -0.210735
     30          6           0        4.651789   -5.173184   -2.849033
     31          6           0        3.270207   -4.763185   -2.390526
     32          7           0        5.367276    0.032070   -1.750994
     33          6           0        5.594932   -0.743762   -2.896826
     34          6           0        5.733394    0.189499   -4.029928
     35          6           0        5.592257    1.452428   -3.458146
     36          6           0        5.405328    1.317841   -2.052715
     37          6           0        6.017293   -0.171132   -5.376695
     38          6           0        5.580476    2.885365   -3.703930
     39          8           0        5.597783    3.592350   -4.712576
     40          6           0        5.642992    3.635018   -2.300385
     41          6           0        4.586644    4.706162   -2.309774
     42          8           0        3.374729    4.409303   -2.332216
     43          8           0        5.155574    5.893862   -2.052425
     44          6           0        4.157699    6.996232   -2.018079
     45          1           0        6.290595    1.250612    4.189111
     46          1           0        5.367319   -4.544577    2.068413
     47          1           0        5.772420   -2.505637   -3.857615
     48          1           0        6.394167    4.629712    0.585256
     49          1           0        6.032640    3.627706    3.195377
     50          1           0        8.312398    3.501785    1.258181
     51          1           0        8.224413    2.140220    2.417778
     52          1           0        8.355913    3.756532    3.050887
     53          1           0        3.903714    3.923771    2.150695
     54          1           0        3.701735    4.454115    0.433018
     55          1           0        5.353112    6.342710    1.772107
     56          1           0        4.254140    5.800075    2.982752
     57          1           0        5.528952    0.284122    5.900443
     58          1           0        5.852321   -1.322750    6.429036
     59          1           0        4.151418   -0.801294    6.317990
     60          1           0        4.906140   -3.338230    6.672691
     61          1           0        3.716642   -4.736147    6.428969
     62          1           0        3.260252   -3.029322    6.181203
     63          1           0        4.997006   -5.599257   -0.223090
     64          1           0        6.659295   -4.657315   -2.507281
     65          1           0        6.920613   -6.738523    0.104318
     66          1           0        7.699572   -5.174061    0.521951
     67          1           0        7.773498   -5.745393   -1.063953
     68          1           0        4.719214   -6.254745   -2.736663
     69          1           0        4.742817   -4.943746   -3.910788
     70          1           0        3.078618   -5.440628   -1.559143
     71          1           0        2.544207   -4.911844   -3.190549
     72          1           0        3.267966   -3.748706   -1.991386
     73          1           0        5.357159    0.432260   -5.999679
     74          1           0        5.855959   -1.235841   -5.543935
     75          1           0        7.068932    0.107309   -5.442900
     76          1           0        6.646340    4.050310   -2.211239
     77          1           0        4.484524    7.747546   -2.737070
     78          1           0        4.067064    7.299772   -0.974981
     79          1           0        3.165278    6.760265   -2.403773
     80         12           0       -5.357510   -0.749301   -0.448340
     81          6           0       -5.263535    2.608320    0.815239
     82          6           0       -4.696502   -1.803890    2.727426
     83          6           0       -4.987517   -3.680621   -1.605022
     84          6           0       -4.872571    0.583106   -3.631925
     85          7           0       -5.042338    0.355036    1.441995
     86          6           0       -5.091243    1.625766    1.812398
     87          6           0       -5.027780    1.851329    3.346887
     88          6           0       -4.286116    0.488144    3.759852
     89          6           0       -4.726146   -0.392867    2.592433
     90          6           0       -2.770499    0.595470    3.732450
     91          6           0       -6.452891    1.949300    3.996078
     92          6           0       -6.470175    2.474974    5.433136
     93          1           0       -7.590175    3.311845    5.854722
     94          7           0       -5.394671   -2.507234    0.471919
     95          6           0       -5.121521   -2.751733    1.770720
     96          6           0       -5.269077   -4.204858    1.946238
     97          6           0       -5.490496   -4.818796    0.608787
     98          6           0       -5.274014   -3.670032   -0.247686
     99          6           0       -5.274337   -4.865279    3.294291
    100          6           0       -5.827159   -6.212409    0.172061
    101          8           0       -5.738477   -6.573576   -1.054524
    102          6           0       -6.173638   -7.166915    1.235236
    103          7           0       -4.773928   -1.467143   -2.310194
    104          6           0       -4.747092   -2.787133   -2.564818
    105          6           0       -4.565945   -3.054543   -4.039970
    106          6           0       -4.719682   -1.633010   -4.756336
    107          6           0       -4.881476   -0.737087   -3.508721
    108          6           0       -3.233418   -3.685734   -4.442908
    109          6           0       -5.780101   -1.525322   -5.886199
    110          6           0       -7.168800   -1.667354   -5.305909
    111          7           0       -5.294137    1.229638   -1.313115
    112          6           0       -5.052445    1.562885   -2.663903
    113          6           0       -4.992416    3.036752   -2.744693
    114          6           0       -5.181931    3.461392   -1.420961
    115          6           0       -5.328166    2.331340   -0.571791
    116          6           0       -4.738427    3.795707   -3.921803
    117          6           0       -5.280908    4.608387   -0.547279
    118          8           0       -5.319454    5.826740   -0.714172
    119          6           0       -5.211854    4.104120    0.958491
    120          6           0       -6.320431    4.773392    1.723759
    121          8           0       -7.510126    4.527830    1.457415
    122          8           0       -5.797482    5.421628    2.780486
    123          6           0       -6.859364    6.092352    3.576947
    124          1           0       -4.268314   -2.229324    3.635471
    125          1           0       -4.959513   -4.667221   -2.073328
    126          1           0       -4.822525    1.078365   -4.603986
    127          1           0       -4.436576    2.704791    3.656503
    128          1           0       -4.670984    0.097748    4.698373
    129          1           0       -2.440759    1.539283    3.324238
    130          1           0       -2.428683   -0.224245    3.114170
    131          1           0       -2.361468    0.411470    4.730031
    132          1           0       -6.841219    0.936176    4.161944
    133          1           0       -7.109116    2.540296    3.387213
    134          1           0       -5.516795    2.938900    5.713826
    135          1           0       -6.564704    1.624472    6.112642
    136          1           0       -4.925568   -4.181910    4.078369
    137          1           0       -4.516526   -5.655705    3.266083
    138          1           0       -6.240419   -5.310561    3.541416
    139          1           0       -5.345791   -7.242886    1.936207
    140          1           0       -6.469481   -8.083060    0.720425
    141          1           0       -7.026503   -6.770209    1.797254
    142          1           0       -5.336567   -3.719665   -4.409909
    143          1           0       -3.786403   -1.321472   -5.248049
    144          1           0       -3.350367   -4.639311   -4.991616
    145          1           0       -2.640688   -3.831279   -3.549582
    146          1           0       -2.586991   -3.052802   -5.048485
    147          1           0       -5.656984   -2.343255   -6.600337
    148          1           0       -5.722280   -0.597732   -6.445859
    149          1           0       -7.298026   -2.751665   -5.237691
    150          1           0       -7.908301   -1.222656   -5.968810
    151          1           0       -7.212572   -1.265410   -4.287007
    152          1           0       -5.437399    4.621485   -3.916692
    153          1           0       -4.846452    3.187940   -4.817743
    154          1           0       -3.699315    4.086555   -3.745916
    155          1           0       -4.227949    4.368665    1.347766
    156          1           0       -6.586999    7.150050    3.645948
    157          1           0       -6.924359    5.526053    4.525018
    158          1           0       -7.848739    6.156836    3.139428
 ---------------------------------------------------------------------

 SCF Done:  E(RCAM-B3LYP) =  -4069.81171295     A.U. after   19 cycles

 Excitation energies and oscillator strengths:

 Excited State   1:      Singlet-A      1.6621 eV  745.94 nm  f=0.1197  <S**2>=0.000
     309 -> 315       -0.11340
     310 -> 316        0.12724
     311 -> 313       -0.45563
     312 -> 314        0.51371
 This state for optimization and/or second-order correction.
 Total Energy, E(TD-HF/TD-DFT) =  -4069.75063088
 Copying the excited state density for this state as the 1-particle RhoCI density.

 Excited State   2:      Singlet-A      1.6899 eV  733.66 nm  f=0.5873  <S**2>=0.000
     309 -> 315        0.13299
     310 -> 316        0.11795
     311 -> 313        0.51239
     312 -> 314        0.45463

 Excited State   3:      Singlet-A      2.1848 eV  567.50 nm  f=0.0539  <S**2>=0.000
     309 -> 313       -0.24799
     310 -> 314        0.59330
     311 -> 315        0.10413
     312 -> 316       -0.25149

 Excited State   4:      Singlet-A      2.1920 eV  565.63 nm  f=0.1374  <S**2>=0.000
     309 -> 313        0.59108
     310 -> 314        0.24601
     311 -> 315       -0.25679
     312 -> 316       -0.10773

 Excited State   5:      Singlet-A      2.4856 eV  498.82 nm  f=0.0000  <S**2>=0.000
     312 -> 313        0.70709

 The electronic state is 1-A.
 Alpha  occ. eigenvalues --  -46.87874 -46.87500 -19.26279 -19.26264 -19.19071
 Alpha  occ. eigenvalues --  -19.19016 -19.18942 -19.18569 -19.18229 -19.17895
 Alpha  occ. eigenvalues --  -14.42523 -14.42347 -14.41523 -14.41196 -14.39487
 Alpha  occ. eigenvalues --  -14.39193 -14.38662 -14.38431 -10.39080 -10.38996
 Alpha  occ. eigenvalues --  -10.35579 -10.35249 -10.34445 -10.34074 -10.31715
 Alpha  occ. eigenvalues --  -10.31617 -10.31469 -10.31160 -10.30982 -10.30892
 Alpha  occ. eigenvalues --  -10.30644 -10.30586 -10.30289 -10.30226 -10.30191
 Alpha  occ. eigenvalues --  -10.29988 -10.29977 -10.29721 -10.29716 -10.29344
 Alpha  occ. eigenvalues --  -10.29272 -10.29231 -10.28793 -10.28634 -10.28629
 Alpha  occ. eigenvalues --  -10.28533 -10.28443 -10.28250 -10.28169 -10.28054
 Alpha  occ. eigenvalues --  -10.27876 -10.27831 -10.27803 -10.27678 -10.27611
 Alpha  occ. eigenvalues --  -10.27562 -10.27521 -10.27510 -10.27472 -10.27343
 Alpha  occ. eigenvalues --  -10.27332 -10.27327 -10.27302 -10.27216 -10.27198
 Alpha  occ. eigenvalues --  -10.26914 -10.26733 -10.26629 -10.26590 -10.26287
 Alpha  occ. eigenvalues --  -10.26283 -10.26231 -10.26095 -10.25977 -10.25966
 Alpha  occ. eigenvalues --  -10.25919 -10.25758 -10.25587 -10.25493 -10.25245
 Alpha  occ. eigenvalues --  -10.24911 -10.24863 -10.24726 -10.24698 -10.24587
 Alpha  occ. eigenvalues --  -10.24531  -3.16617  -3.16249  -1.91498  -1.91131
 Alpha  occ. eigenvalues --   -1.91085  -1.90927  -1.90720  -1.90557  -1.16616
 Alpha  occ. eigenvalues --   -1.16568  -1.08681  -1.08506  -1.07345  -1.06855
 Alpha  occ. eigenvalues --   -1.06824  -1.06639  -1.04653  -1.04348  -1.03835
 Alpha  occ. eigenvalues --   -1.03505  -1.03313  -1.02872  -1.02487  -1.01947
 Alpha  occ. eigenvalues --   -0.92036  -0.91835  -0.89585  -0.89333  -0.89238
 Alpha  occ. eigenvalues --   -0.89055  -0.88351  -0.88062  -0.87948  -0.87742
 Alpha  occ. eigenvalues --   -0.87602  -0.87534  -0.87385  -0.86967  -0.85038
 Alpha  occ. eigenvalues --   -0.84890  -0.83992  -0.83723  -0.83088  -0.82789
 Alpha  occ. eigenvalues --   -0.82707  -0.82537  -0.81615  -0.81474  -0.80655
 Alpha  occ. eigenvalues --   -0.80309  -0.78894  -0.78472  -0.77283  -0.77014
 Alpha  occ. eigenvalues --   -0.76972  -0.76781  -0.75968  -0.75721  -0.74954
 Alpha  occ. eigenvalues --   -0.74657  -0.72848  -0.72532  -0.71734  -0.71442
 Alpha  occ. eigenvalues --   -0.69963  -0.69603  -0.68936  -0.68711  -0.67716
 Alpha  occ. eigenvalues --   -0.67455  -0.67282  -0.67093  -0.65337  -0.65160
 Alpha  occ. eigenvalues --   -0.64910  -0.64670  -0.64624  -0.64528  -0.64332
 Alpha  occ. eigenvalues --   -0.64049  -0.62317  -0.62162  -0.60539  -0.60185
 Alpha  occ. eigenvalues --   -0.59865  -0.59677  -0.59053  -0.58841  -0.58569
 Alpha  occ. eigenvalues --   -0.58279  -0.57627  -0.57418  -0.57373  -0.57083
 Alpha  occ. eigenvalues --   -0.56389  -0.56049  -0.55992  -0.55785  -0.55606
 Alpha  occ. eigenvalues --   -0.55384  -0.55319  -0.55103  -0.54555  -0.54359
 Alpha  occ. eigenvalues --   -0.53945  -0.53816  -0.53387  -0.53291  -0.53076
 Alpha  occ. eigenvalues --   -0.53018  -0.52967  -0.52848  -0.52783  -0.52542
 Alpha  occ. eigenvalues --   -0.52491  -0.52249  -0.51987  -0.51681  -0.51661
 Alpha  occ. eigenvalues --   -0.51548  -0.51250  -0.51056  -0.50706  -0.50338
 Alpha  occ. eigenvalues --   -0.50099  -0.50017  -0.49858  -0.49716  -0.49588
 Alpha  occ. eigenvalues --   -0.49360  -0.49286  -0.49148  -0.49074  -0.48976
 Alpha  occ. eigenvalues --   -0.48640  -0.48560  -0.48505  -0.48431  -0.48225
 Alpha  occ. eigenvalues --   -0.48200  -0.47764  -0.47466  -0.47371  -0.46975
 Alpha  occ. eigenvalues --   -0.46860  -0.46607  -0.46567  -0.46447  -0.46428
 Alpha  occ. eigenvalues --   -0.46217  -0.46114  -0.45924  -0.45864  -0.45676
 Alpha  occ. eigenvalues --   -0.45265  -0.45060  -0.44638  -0.44587  -0.44398
 Alpha  occ. eigenvalues --   -0.44339  -0.44216  -0.44146  -0.44084  -0.44002
 Alpha  occ. eigenvalues --   -0.43934  -0.43804  -0.43530  -0.43446  -0.43438
 Alpha  occ. eigenvalues --   -0.43257  -0.43089  -0.42821  -0.42755  -0.42743
 Alpha  occ. eigenvalues --   -0.42665  -0.42401  -0.42061  -0.41832  -0.41767
 Alpha  occ. eigenvalues --   -0.41585  -0.41526  -0.41344  -0.41204  -0.40948
 Alpha  occ. eigenvalues --   -0.40907  -0.40860  -0.40628  -0.40605  -0.40583
 Alpha  occ. eigenvalues --   -0.40346  -0.40277  -0.40143  -0.39494  -0.39269
 Alpha  occ. eigenvalues --   -0.38527  -0.38206  -0.37789  -0.37564  -0.37385
 Alpha  occ. eigenvalues --   -0.37317  -0.37115  -0.37070  -0.36731  -0.36672
 Alpha  occ. eigenvalues --   -0.36229  -0.36080  -0.34358  -0.34097  -0.33783
 Alpha  occ. eigenvalues --   -0.33758  -0.33255  -0.33015  -0.31468  -0.31129
 Alpha  occ. eigenvalues --   -0.31107  -0.30821  -0.30084  -0.29802  -0.29543
 Alpha  occ. eigenvalues --   -0.29401  -0.29164  -0.29032  -0.24153  -0.23874
 Alpha  occ. eigenvalues --   -0.21205  -0.20955
 Alpha virt. eigenvalues --   -0.08857  -0.08628  -0.01829  -0.01525  -0.00156
 Alpha virt. eigenvalues --    0.00118   0.02129   0.02376   0.03028   0.03375
 Alpha virt. eigenvalues --    0.04663   0.04860   0.05090   0.05265   0.06160

 Mulliken charges:
               1
     1  Mg   0.838635
     2  C   -0.002820
     3  C   -0.094434
     4  C   -0.045940
     5  C   -0.064038
     6  N   -0.256802
     7  C   -0.052282
     8  C   -0.013938
     9  C   -0.086925
    10  C    0.046251
    11  C    0.104806
    12  C    0.053555
    13  C   -0.072450
    14  H    0.038045
    15  N   -0.433051
    16  C    0.168121
    17  C   -0.177642
    18  C   -0.004464
    19  C    0.148613
    20  C    0.110259
    21  C    0.011671
    22  O   -0.249620
    23  C    0.062891
    24  N   -0.341210
    25  C    0.041297
    26  C   -0.028190
    27  C   -0.024067
    28  C    0.075103
    29  C    0.076126
    30  C    0.035045
    31  C   -0.004440
    32  N   -0.310547
    33  C    0.080659
    34  C   -0.169814
    35  C    0.008500
    36  C    0.083093
    37  C    0.127320
    38  C    0.046179
    39  O   -0.187932
    40  C   -0.005265
    41  C    0.212872
    42  O   -0.256859
    43  O   -0.304973
    44  C    0.157300
    45  H   -0.017645
    46  H   -0.016915
    47  H   -0.041376
    48  H    0.001278
    49  H   -0.004144
    50  H    0.025629
    51  H    0.016335
    52  H    0.016753
    53  H    0.010389
    54  H    0.044612
    55  H    0.017941
    56  H    0.017473
    57  H    0.006021
    58  H    0.026906
    59  H    0.038088
    60  H    0.037762
    61  H    0.035069
    62  H    0.029879
    63  H    0.016624
    64  H    0.009597
    65  H    0.023281
    66  H    0.012491
    67  H    0.004894
    68  H    0.006746
    69  H    0.004621
    70  H    0.009203
    71  H    0.018347
    72  H    0.028644
    73  H    0.047503
    74  H    0.009099
    75  H    0.046311
    76  H    0.035330
    77  H    0.043230
    78  H    0.046673
    79  H    0.054706
    80  Mg   0.838247
    81  C   -0.016787
    82  C   -0.087990
    83  C   -0.045372
    84  C   -0.063252
    85  N   -0.254475
    86  C   -0.049651
    87  C   -0.015061
    88  C   -0.090583
    89  C    0.045738
    90  C    0.114591
    91  C    0.062671
    92  C   -0.077500
    93  H    0.034512
    94  N   -0.423433
    95  C    0.162702
    96  C   -0.174646
    97  C   -0.007944
    98  C    0.151981
    99  C    0.099378
   100  C    0.015490
   101  O   -0.253575
   102  C    0.061226
   103  N   -0.349821
   104  C    0.037519
   105  C   -0.019872
   106  C   -0.035143
   107  C    0.088930
   108  C    0.073585
   109  C    0.034686
   110  C   -0.007588
   111  N   -0.324395
   112  C    0.078624
   113  C   -0.161523
   114  C    0.002665
   115  C    0.096465
   116  C    0.130976
   117  C    0.043135
   118  O   -0.188132
   119  C    0.000627
   120  C    0.211046
   121  O   -0.251122
   122  O   -0.305793
   123  C    0.152164
   124  H   -0.020440
   125  H   -0.015890
   126  H   -0.039502
   127  H   -0.001313
   128  H   -0.005084
   129  H    0.022773
   130  H    0.015195
   131  H    0.014012
   132  H    0.013973
   133  H    0.037746
   134  H    0.020018
   135  H    0.019248
   136  H    0.008112
   137  H    0.026471
   138  H    0.039236
   139  H    0.038473
   140  H    0.035992
   141  H    0.033584
   142  H    0.013991
   143  H    0.013823
   144  H    0.024218
   145  H    0.011764
   146  H    0.006223
   147  H    0.005947
   148  H    0.004114
   149  H    0.010613
   150  H    0.017702
   151  H    0.030037
   152  H    0.045208
   153  H    0.008531
   154  H    0.050660
   155  H    0.035214
   156  H    0.043417
   157  H    0.049072
   158  H    0.053563
 Sum of Mulliken charges =  -0.00000

 Dipole moment (field-independent basis, Debye):
    X=              3.5914    Y=             -1.9775    Z=              7.0398  Tot=              8.1466
 Quadrupole moment (field-independent basis, Debye-Ang):
   XX=           -518.7732   YY=           -534.6670   ZZ=           -464.5449
   XY=             18.9649   XZ=              1.6184   YZ=             32.7659

 Normal termination of Gaussian 16 at Sat Sep  4 04:56:38 2021.
