 Gaussian 16, Revision A.03,
 Gaussian 16:  ES64L-G16RevA.03 25-Dec-2016

 -----------------------------------
 #p cam-b3lyp/Def2SVP td=(nstates=5)
 -----------------------------------

 --------------------------------
 TDDFT excited states in gaussian
 --------------------------------
 Symbolic Z-matrix:
 Charge =  0 Multiplicity = 1

                         Standard orientation:
 ---------------------------------------------------------------------
 Center     Atomic      Atomic             Coordinates (Angstroms)
 Number     Number       Type             X           Y           Z
 ---------------------------------------------------------------------
      1         12           0       -7.913892   -0.646309   -0.439665
      2          6           0       -8.252512    1.929684    2.022409
      3          6           0       -8.661033    1.709834   -2.791991
      4          6           0       -8.067798   -2.984855   -2.576049
      5          6           0       -8.317210   -2.957841    2.137119
      6          7           0       -8.376657    1.512705   -0.281072
      7          6           0       -8.415228    2.392493    0.714748
      8          6           0       -8.569724    3.865721    0.231939
      9          6           0       -9.245600    3.596138   -1.186692
     10          6           0       -8.701460    2.203950   -1.454363
     11          6           0      -10.768333    3.526345   -1.132697
     12          6           0       -7.189579    4.589636    0.080693
     13          6           0       -7.263165    6.112030   -0.068496
     14          1           0       -6.219207    6.926128    0.535443
     15          7           0       -7.825137   -0.587360   -2.412353
     16          6           0       -8.151365    0.460400   -3.206747
     17          6           0       -7.915025    0.008577   -4.594796
     18          6           0       -7.606307   -1.447800   -4.552915
     19          6           0       -7.849603   -1.740949   -3.163581
     20          6           0       -7.944659    0.929147   -5.776075
     21          6           0       -7.172587   -2.423075   -5.601179
     22          8           0       -7.184062   -3.685878   -5.401755
     23          6           0       -6.813268   -1.858994   -6.914855
     24          7           0       -8.375750   -2.676690   -0.291756
     25          6           0       -8.311432   -3.478621   -1.360284
     26          6           0       -8.404711   -4.922726   -0.965568
     27          6           0       -8.302114   -4.953049    0.627639
     28          6           0       -8.246586   -3.427744    0.889613
     29          6           0       -9.677648   -5.656867   -1.409051
     30          6           0       -7.197929   -5.848011    1.244275
     31          6           0       -5.834775   -5.284278    0.910936
     32          7           0       -8.053024   -0.570705    1.725045
     33          6           0       -8.241748   -1.653427    2.596120
     34          6           0       -8.380891   -1.096159    3.954119
     35          6           0       -8.279353    0.282098    3.775388
     36          6           0       -8.115133    0.569236    2.390153
     37          6           0       -8.631714   -1.842218    5.139411
     38          6           0       -8.296062    1.580433    4.429532
     39          8           0       -8.311172    1.961072    5.601018
     40          6           0       -8.401499    2.705493    3.307503
     41          6           0       -7.370092    3.755630    3.618503
     42          8           0       -6.151457    3.498452    3.540049
     43          8           0       -7.970826    4.950658    3.726065
     44          6           0       -6.999386    6.041826    4.005013
     45          1           0       -9.112728    2.304675   -3.588280
     46          1           0       -8.017634   -3.829732   -3.266052
     47          1           0       -8.361017   -3.623322    3.001219
     48          1           0       -9.228068    4.479044    0.847441
     49          1           0       -8.891411    4.293765   -1.945368
     50          1           0      -11.131823    3.544932   -0.105346
     51          1           0      -11.033762    2.584582   -1.613450
     52          1           0      -11.214000    4.311118   -1.744488
     53          1           0       -6.751098    4.329783   -0.882775
     54          1           0       -6.529971    4.340375    0.912626
     55          1           0       -8.248619    6.491906    0.202585
     56          1           0       -7.159793    6.357006   -1.125615
     57          1           0       -8.360493    1.901661   -5.515606
     58          1           0       -8.656410    0.511164   -6.487699
     59          1           0       -6.966213    1.023753   -6.247273
     60          1           0       -7.668706   -1.318467   -7.320572
     61          1           0       -6.443083   -2.693490   -7.509355
     62          1           0       -6.021643   -1.121741   -6.777970
     63          1           0       -7.581258   -5.497436   -1.387540
     64          1           0       -9.222698   -5.309932    1.090061
     65          1           0       -9.483802   -6.543500   -2.013211
     66          1           0      -10.306080   -4.947214   -1.946411
     67          1           0      -10.337792   -5.958827   -0.596372
     68          1           0       -7.242486   -6.850951    0.821105
     69          1           0       -7.274764   -5.941424    2.327613
     70          1           0       -5.642894   -5.683705   -0.084288
     71          1           0       -5.091023   -5.640299    1.624584
     72          1           0       -5.863194   -4.197780    0.826086
     73          1           0       -7.974351   -1.429376    5.904528
     74          1           0       -8.442880   -2.904494    4.986066
     75          1           0       -9.688095   -1.624163    5.295512
     76          1           0       -9.415604    3.101089    3.354581
     77          1           0       -7.330203    6.541012    4.915840
     78          1           0       -6.934871    6.639284    3.095460
     79          1           0       -5.994903    5.730705    4.294072
     80         12           0        7.930033   -0.638291    0.436897
     81          6           0        8.193219    1.958083   -2.026571
     82          6           0        8.752515    1.703735    2.776355
     83          6           0        8.148057   -2.983078    2.563358
     84          6           0        8.258169   -2.941941   -2.157561
     85          7           0        8.389452    1.519096    0.272962
     86          6           0        8.398250    2.410673   -0.706514
     87          6           0        8.560663    3.881091   -0.236349
     88          6           0        9.287923    3.605385    1.168619
     89          6           0        8.753836    2.202257    1.449112
     90          6           0       10.801488    3.526976    1.057642
     91          6           0        7.180689    4.600873   -0.037323
     92          6           0        7.264948    6.120660    0.120527
     93          1           0        6.196120    6.939469   -0.444816
     94          7           0        7.899961   -0.580099    2.420402
     95          6           0        8.244320    0.459295    3.209297
     96          6           0        8.067470   -0.009547    4.592440
     97          6           0        7.748621   -1.462771    4.557985
     98          6           0        7.944608   -1.742331    3.149612
     99          6           0        8.125494    0.910492    5.777171
    100          6           0        7.347699   -2.441945    5.619433
    101          8           0        7.351968   -3.705757    5.405921
    102          6           0        7.039874   -1.883383    6.944096
    103          7           0        8.379786   -2.660748    0.264497
    104          6           0        8.354623   -3.468600    1.339057
    105          6           0        8.438711   -4.920398    0.932115
    106          6           0        8.281327   -4.930314   -0.659334
    107          6           0        8.220188   -3.408724   -0.917059
    108          6           0        9.726428   -5.646603    1.320446
    109          6           0        7.157876   -5.825744   -1.249876
    110          6           0        5.803439   -5.275220   -0.865434
    111          7           0        7.995736   -0.551737   -1.720935
    112          6           0        8.164393   -1.633142   -2.613238
    113          6           0        8.260206   -1.064470   -3.973327
    114          6           0        8.162963    0.320936   -3.774086
    115          6           0        8.037132    0.597459   -2.385847
    116          6           0        8.463430   -1.804636   -5.172060
    117          6           0        8.148817    1.612943   -4.421551
    118          8           0        8.133990    1.999145   -5.589609
    119          6           0        8.294869    2.737803   -3.308106
    120          6           0        7.253574    3.790665   -3.572109
    121          8           0        6.043599    3.523500   -3.466267
    122          8           0        7.857255    4.987135   -3.692096
    123          6           0        6.864481    6.065495   -3.943811
    124          1           0        9.222917    2.303251    3.556225
    125          1           0        8.120348   -3.836681    3.244585
    126          1           0        8.262997   -3.600101   -3.029037
    127          1           0        9.192910    4.492947   -0.868546
    128          1           0        8.949883    4.301646    1.931707
    129          1           0       11.131933    3.552121    0.029862
    130          1           0       11.082447    2.591062    1.522590
    131          1           0       11.264874    4.313716    1.659827
    132          1           0        6.775205    4.331982    0.946560
    133          1           0        6.505452    4.357254   -0.834391
    134          1           0        8.246045    6.511982   -0.174872
    135          1           0        7.188195    6.363960    1.183044
    136          1           0        8.539851    1.889449    5.506329
    137          1           0        8.858042    0.488820    6.473911
    138          1           0        7.164179    1.001442    6.287325
    139          1           0        7.906199   -1.343170    7.318423
    140          1           0        6.688183   -2.726317    7.542143
    141          1           0        6.233888   -1.149081    6.835469
    142          1           0        7.629003   -5.491972    1.368885
    143          1           0        9.191414   -5.296930   -1.156498
    144          1           0        9.550132   -6.548211    1.936967
    145          1           0       10.367863   -4.948730    1.842047
    146          1           0       10.352303   -5.955569    0.484974
    147          1           0        7.214871   -6.832274   -0.828201
    148          1           0        7.207397   -5.925408   -2.329047
    149          1           0        5.648600   -5.680051    0.139167
    150          1           0        5.037781   -5.625777   -1.554580
    151          1           0        5.832528   -4.182762   -0.779729
    152          1           0        7.789177   -1.392118   -5.910789
    153          1           0        8.284599   -2.866830   -5.018617
    154          1           0        9.518930   -1.588742   -5.358025
    155          1           0        9.307462    3.137188   -3.376748
    156          1           0        7.169704    6.572199   -4.864551
    157          1           0        6.841306    6.672053   -3.018981
    158          1           0        5.852607    5.767228   -4.192011
 ---------------------------------------------------------------------

 SCF Done:  E(RCAM-B3LYP) =  -4069.81184463     A.U. after   19 cycles

 Excitation energies and oscillator strengths:

 Excited State   1:      Singlet-A      1.6703 eV  742.31 nm  f=0.0198  <S**2>=0.000
     309 -> 316        0.13854
     310 -> 315        0.10301
     311 -> 313        0.55168
     312 -> 314        0.40832
 This state for optimization and/or second-order correction.
 Total Energy, E(TD-HF/TD-DFT) =  -4069.75046400
 Copying the excited state density for this state as the 1-particle RhoCI density.

 Excited State   2:      Singlet-A      1.6853 eV  735.67 nm  f=0.7379  <S**2>=0.000
     309 -> 316       -0.10481
     310 -> 315        0.14226
     311 -> 313       -0.40781
     312 -> 314        0.55088

 Excited State   3:      Singlet-A      2.1861 eV  567.15 nm  f=0.0602  <S**2>=0.000
     309 -> 313        0.62870
     310 -> 314       -0.13326
     311 -> 316       -0.26707

 Excited State   4:      Singlet-A      2.1932 eV  565.32 nm  f=0.1334  <S**2>=0.000
     309 -> 313        0.13234
     310 -> 314        0.62680
     312 -> 315       -0.27254

 Excited State   5:      Singlet-A      2.8000 eV  442.80 nm  f=0.0000  <S**2>=0.000
     312 -> 313        0.70710

 The electronic state is 1-A.
 Alpha  occ. eigenvalues --  -46.87688 -46.87598 -19.26327 -19.26217 -19.19131
 Alpha  occ. eigenvalues --  -19.18945 -19.18691 -19.18636 -19.18080 -19.18008
 Alpha  occ. eigenvalues --  -14.42437 -14.42344 -14.41343 -14.41300 -14.39292
 Alpha  occ. eigenvalues --  -14.39288 -14.38541 -14.38481 -10.39060 -10.39003
 Alpha  occ. eigenvalues --  -10.35323 -10.35312 -10.34301 -10.34186 -10.31747
 Alpha  occ. eigenvalues --  -10.31625 -10.31304 -10.31254 -10.30961 -10.30801
 Alpha  occ. eigenvalues --  -10.30466 -10.30401 -10.30338 -10.30304 -10.30097
 Alpha  occ. eigenvalues --  -10.30077 -10.29839 -10.29819 -10.29523 -10.29372
 Alpha  occ. eigenvalues --  -10.29339 -10.29144 -10.28665 -10.28650 -10.28605
 Alpha  occ. eigenvalues --  -10.28445 -10.28345 -10.28258 -10.28087 -10.28018
 Alpha  occ. eigenvalues --  -10.27942 -10.27688 -10.27621 -10.27609 -10.27473
 Alpha  occ. eigenvalues --  -10.27461 -10.27426 -10.27401 -10.27399 -10.27383
 Alpha  occ. eigenvalues --  -10.27353 -10.27349 -10.27320 -10.27300 -10.27071
 Alpha  occ. eigenvalues --  -10.27009 -10.26634 -10.26601 -10.26316 -10.26265
 Alpha  occ. eigenvalues --  -10.26144 -10.26080 -10.26078 -10.25980 -10.25914
 Alpha  occ. eigenvalues --  -10.25875 -10.25810 -10.25757 -10.25349 -10.25343
 Alpha  occ. eigenvalues --  -10.24817 -10.24731 -10.24682 -10.24661 -10.24631
 Alpha  occ. eigenvalues --  -10.24573  -3.16430  -3.16348  -1.91312  -1.91230
 Alpha  occ. eigenvalues --   -1.90899  -1.90819  -1.90741  -1.90655  -1.16619
 Alpha  occ. eigenvalues --   -1.16563  -1.08618  -1.08541  -1.07092  -1.06916
 Alpha  occ. eigenvalues --   -1.06888  -1.06568  -1.04475  -1.04435  -1.03654
 Alpha  occ. eigenvalues --   -1.03602  -1.03127  -1.02979  -1.02305  -1.02052
 Alpha  occ. eigenvalues --   -0.91934  -0.91873  -0.89436  -0.89415  -0.89097
 Alpha  occ. eigenvalues --   -0.89088  -0.88184  -0.88163  -0.87771  -0.87741
 Alpha  occ. eigenvalues --   -0.87625  -0.87568  -0.87155  -0.87046  -0.84943
 Alpha  occ. eigenvalues --   -0.84880  -0.83835  -0.83820  -0.82856  -0.82845
 Alpha  occ. eigenvalues --   -0.82593  -0.82545  -0.81555  -0.81498  -0.80497
 Alpha  occ. eigenvalues --   -0.80390  -0.78685  -0.78570  -0.77115  -0.77087
 Alpha  occ. eigenvalues --   -0.76849  -0.76840  -0.75829  -0.75790  -0.74800
 Alpha  occ. eigenvalues --   -0.74750  -0.72671  -0.72642  -0.71573  -0.71527
 Alpha  occ. eigenvalues --   -0.69803  -0.69698  -0.68770  -0.68770  -0.67544
 Alpha  occ. eigenvalues --   -0.67537  -0.67137  -0.67112  -0.65218  -0.65187
 Alpha  occ. eigenvalues --   -0.64756  -0.64716  -0.64603  -0.64522  -0.64166
 Alpha  occ. eigenvalues --   -0.64147  -0.62239  -0.62213  -0.60328  -0.60272
 Alpha  occ. eigenvalues --   -0.59741  -0.59703  -0.58938  -0.58886  -0.58403
 Alpha  occ. eigenvalues --   -0.58372  -0.57513  -0.57496  -0.57207  -0.57178
 Alpha  occ. eigenvalues --   -0.56207  -0.56148  -0.55896  -0.55845  -0.55411
 Alpha  occ. eigenvalues --   -0.55393  -0.55245  -0.55198  -0.54442  -0.54433
 Alpha  occ. eigenvalues --   -0.53858  -0.53795  -0.53193  -0.53168  -0.53116
 Alpha  occ. eigenvalues --   -0.53085  -0.52851  -0.52819  -0.52639  -0.52594
 Alpha  occ. eigenvalues --   -0.52341  -0.52334  -0.51839  -0.51822  -0.51599
 Alpha  occ. eigenvalues --   -0.51512  -0.51151  -0.51099  -0.50444  -0.50395
 Alpha  occ. eigenvalues --   -0.49925  -0.49917  -0.49807  -0.49805  -0.49423
 Alpha  occ. eigenvalues --   -0.49408  -0.49147  -0.49113  -0.49055  -0.49000
 Alpha  occ. eigenvalues --   -0.48511  -0.48501  -0.48362  -0.48334  -0.48325
 Alpha  occ. eigenvalues --   -0.48269  -0.47590  -0.47536  -0.47192  -0.47058
 Alpha  occ. eigenvalues --   -0.46695  -0.46653  -0.46497  -0.46455  -0.46256
 Alpha  occ. eigenvalues --   -0.46213  -0.46067  -0.46036  -0.45780  -0.45735
 Alpha  occ. eigenvalues --   -0.45154  -0.45100  -0.44485  -0.44466  -0.44419
 Alpha  occ. eigenvalues --   -0.44395  -0.44074  -0.44040  -0.44019  -0.43989
 Alpha  occ. eigenvalues --   -0.43916  -0.43875  -0.43513  -0.43407  -0.43333
 Alpha  occ. eigenvalues --   -0.43283  -0.42928  -0.42892  -0.42853  -0.42617
 Alpha  occ. eigenvalues --   -0.42556  -0.42492  -0.41909  -0.41907  -0.41618
 Alpha  occ. eigenvalues --   -0.41605  -0.41433  -0.41402  -0.41041  -0.40936
 Alpha  occ. eigenvalues --   -0.40767  -0.40703  -0.40659  -0.40631  -0.40470
 Alpha  occ. eigenvalues --   -0.40438  -0.40165  -0.40130  -0.39364  -0.39335
 Alpha  occ. eigenvalues --   -0.38367  -0.38294  -0.37648  -0.37599  -0.37217
 Alpha  occ. eigenvalues --   -0.37209  -0.37161  -0.37142  -0.36737  -0.36631
 Alpha  occ. eigenvalues --   -0.36167  -0.36099  -0.34196  -0.34182  -0.33827
 Alpha  occ. eigenvalues --   -0.33689  -0.33117  -0.33083  -0.31222  -0.31197
 Alpha  occ. eigenvalues --   -0.30931  -0.30914  -0.29941  -0.29914  -0.29338
 Alpha  occ. eigenvalues --   -0.29262  -0.29218  -0.29154  -0.23977  -0.23975
 Alpha  occ. eigenvalues --   -0.21057  -0.21021
 Alpha virt. eigenvalues --   -0.08731  -0.08667  -0.01642  -0.01622   0.00038
 Alpha virt. eigenvalues --    0.00055   0.02260   0.02299   0.03253   0.03311
 Alpha virt. eigenvalues --    0.04786   0.04820   0.05177   0.05198   0.06231

 Mulliken charges:
               1
     1  Mg   0.839223
     2  C   -0.002937
     3  C   -0.093933
     4  C   -0.045823
     5  C   -0.063989
     6  N   -0.256801
     7  C   -0.052483
     8  C   -0.014056
     9  C   -0.087060
    10  C    0.046451
    11  C    0.104837
    12  C    0.053407
    13  C   -0.071715
    14  H    0.035854
    15  N   -0.433176
    16  C    0.168632
    17  C   -0.176917
    18  C   -0.003808
    19  C    0.148862
    20  C    0.110140
    21  C    0.012550
    22  O   -0.249669
    23  C    0.062307
    24  N   -0.341177
    25  C    0.041287
    26  C   -0.028156
    27  C   -0.023924
    28  C    0.074823
    29  C    0.076218
    30  C    0.035146
    31  C   -0.004506
    32  N   -0.310416
    33  C    0.080361
    34  C   -0.169848
    35  C    0.008177
    36  C    0.082972
    37  C    0.127349
    38  C    0.045971
    39  O   -0.188960
    40  C   -0.005325
    41  C    0.212758
    42  O   -0.257045
    43  O   -0.304799
    44  C    0.157848
    45  H   -0.017619
    46  H   -0.016836
    47  H   -0.041667
    48  H    0.000686
    49  H   -0.003917
    50  H    0.025325
    51  H    0.016428
    52  H    0.016558
    53  H    0.011693
    54  H    0.044128
    55  H    0.017610
    56  H    0.018149
    57  H    0.005845
    58  H    0.026724
    59  H    0.040290
    60  H    0.037167
    61  H    0.035787
    62  H    0.032253
    63  H    0.016641
    64  H    0.009256
    65  H    0.023147
    66  H    0.012487
    67  H    0.004596
    68  H    0.006207
    69  H    0.004584
    70  H    0.008846
    71  H    0.018209
    72  H    0.029179
    73  H    0.047305
    74  H    0.009059
    75  H    0.045779
    76  H    0.034957
    77  H    0.042591
    78  H    0.046456
    79  H    0.053447
    80  Mg   0.838321
    81  C   -0.016831
    82  C   -0.087640
    83  C   -0.045440
    84  C   -0.064899
    85  N   -0.254600
    86  C   -0.049860
    87  C   -0.015148
    88  C   -0.090565
    89  C    0.045895
    90  C    0.114395
    91  C    0.062474
    92  C   -0.077824
    93  H    0.034643
    94  N   -0.423542
    95  C    0.163165
    96  C   -0.174419
    97  C   -0.007582
    98  C    0.152257
    99  C    0.099329
   100  C    0.015843
   101  O   -0.253184
   102  C    0.061014
   103  N   -0.350087
   104  C    0.037562
   105  C   -0.019823
   106  C   -0.034769
   107  C    0.088890
   108  C    0.073692
   109  C    0.034746
   110  C   -0.007694
   111  N   -0.324053
   112  C    0.078393
   113  C   -0.163261
   114  C    0.002051
   115  C    0.096196
   116  C    0.131518
   117  C    0.042233
   118  O   -0.188390
   119  C    0.000935
   120  C    0.211153
   121  O   -0.250981
   122  O   -0.305626
   123  C    0.152182
   124  H   -0.019645
   125  H   -0.015535
   126  H   -0.040608
   127  H   -0.000880
   128  H   -0.004197
   129  H    0.022318
   130  H    0.014409
   131  H    0.016213
   132  H    0.014398
   133  H    0.037671
   134  H    0.020544
   135  H    0.019805
   136  H    0.008747
   137  H    0.026084
   138  H    0.040510
   139  H    0.038101
   140  H    0.036572
   141  H    0.034612
   142  H    0.014510
   143  H    0.012230
   144  H    0.025116
   145  H    0.011581
   146  H    0.005535
   147  H    0.006144
   148  H    0.003520
   149  H    0.011017
   150  H    0.018024
   151  H    0.030276
   152  H    0.045744
   153  H    0.008481
   154  H    0.046726
   155  H    0.034843
   156  H    0.043567
   157  H    0.049567
   158  H    0.053326
 Sum of Mulliken charges =  -0.00000

 Dipole moment (field-independent basis, Debye):
    X=              0.0696    Y=              3.1210    Z=             -0.2252  Tot=              3.1299
 Quadrupole moment (field-independent basis, Debye-Ang):
   XX=           -459.5892   YY=           -460.4249   ZZ=           -539.1145
   XY=              0.9979   XZ=             59.8886   YZ=              0.3916

 Normal termination of Gaussian 16 at Sat Sep 11 22:16:48 2021.
