 Gaussian 16, Revision A.03,
 Gaussian 16:  ES64L-G16RevA.03 25-Dec-2016

 -----------------------------------
 #p cam-b3lyp/Def2SVP td=(nstates=5)
 -----------------------------------

 --------------------------------
 TDDFT excited states in gaussian
 --------------------------------
 Symbolic Z-matrix:
 Charge =  0 Multiplicity = 1

                         Standard orientation:
 ---------------------------------------------------------------------
 Center     Atomic      Atomic             Coordinates (Angstroms)
 Number     Number       Type             X           Y           Z
 ---------------------------------------------------------------------
      1         12           0       15.672651   -0.893952    0.089885
      2          6           0       15.911780    2.624577   -0.522477
      3          6           0       16.527707   -0.237754    3.327376
      4          6           0       15.912167   -4.022940    0.546703
      5          6           0       15.957380   -1.362699   -3.351752
      6          7           0       16.134329    0.994983    1.147913
      7          6           0       16.132286    2.281534    0.813316
      8          6           0       16.311779    3.236851    2.030906
      9          6           0       17.047658    2.235720    3.030014
     10          6           0       16.511610    0.919943    2.494003
     11          6           0       18.566418    2.241220    2.889166
     12          6           0       14.941565    3.722546    2.612580
     13          6           0       15.025924    4.903200    3.584327
     14          1           0       13.959147    5.892795    3.578234
     15          7           0       15.669550   -1.948793    1.760259
     16          6           0       16.032878   -1.516556    2.991701
     17          6           0       15.855550   -2.671619    3.897828
     18          6           0       15.541117   -3.862595    3.060689
     19          6           0       15.723194   -3.324396    1.736843
     20          6           0       15.938946   -2.567401    5.389784
     21          6           0       15.150379   -5.266234    3.400177
     22          8           0       15.149575   -6.201723    2.528722
     23          6           0       14.849894   -5.540049    4.817137
     24          7           0       16.121825   -2.484867   -1.184818
     25          6           0       16.101517   -3.748029   -0.745510
     26          6           0       16.173463   -4.722994   -1.883142
     27          6           0       16.001902   -3.860538   -3.215992
     28          6           0       15.939477   -2.450642   -2.578366
     29          6           0       17.462288   -5.551675   -1.973861
     30          6           0       14.869486   -4.282325   -4.185605
     31          6           0       13.523669   -4.030786   -3.543263
     32          7           0       15.718155    0.380809   -1.666236
     33          6           0       15.865874   -0.026358   -3.000053
     34          6           0       15.947700    1.197236   -3.818704
     35          6           0       15.857962    2.238052   -2.896482
     36          6           0       15.754693    1.698884   -1.582357
     37          6           0       16.144825    1.246082   -5.226962
     38          6           0       15.850074    3.680354   -2.713285
     39          8           0       15.815550    4.650610   -3.471510
     40          6           0       16.007225    3.988882   -1.158956
     41          6           0       14.966349    5.010862   -0.790930
     42          8           0       13.751518    4.727209   -0.823982
     43          8           0       15.565301    6.074963   -0.234613
     44          6           0       14.585841    7.114371    0.180648
     45          1           0       17.015162   -0.179401    4.302529
     46          1           0       15.889490   -5.109991    0.647921
     47          1           0       15.961821   -1.430945   -4.441145
     48          1           0       16.944622    4.103552    1.839167
     49          1           0       16.728655    2.382733    4.061686
     50          1           0       18.885144    2.838357    2.034905
     51          1           0       18.849698    1.197586    2.751060
     52          1           0       19.040410    2.559980    3.817875
     53          1           0       14.544459    2.959393    3.281883
     54          1           0       14.245845    3.966121    1.808857
     55          1           0       15.999807    5.391094    3.535143
     56          1           0       14.969119    4.513658    4.600806
     57          1           0       16.345912   -1.606441    5.702001
     58          1           0       16.679632   -3.295926    5.718944
     59          1           0       14.982094   -2.773470    5.869681
     60          1           0       15.723647   -5.299784    5.423254
     61          1           0       14.503392   -6.572131    4.857049
     62          1           0       14.055211   -4.869531    5.145517
     63          1           0       15.367399   -5.453188   -1.823942
     64          1           0       16.900573   -3.878114   -3.833047
     65          1           0       17.292227   -6.628539   -1.961702
     66          1           0       18.115434   -5.249647   -1.155650
     67          1           0       18.085758   -5.333764   -2.840589
     68          1           0       14.929434   -5.349343   -4.397321
     69          1           0       14.899080   -3.753041   -5.138093
     70          1           0       13.373904   -4.922031   -2.934917
     71          1           0       12.748698   -3.943636   -4.305519
     72          1           0       13.558863   -3.176629   -2.866755
     73          1           0       15.456146    2.001407   -5.605346
     74          1           0       15.959749    0.275474   -5.686602
     75          1           0       17.194081    1.537122   -5.274011
     76          1           0       17.019477    4.365326   -1.014874
     77          1           0       14.878352    8.044230   -0.307238
     78          1           0       14.562483    7.100374    1.270448
     79          1           0       13.568894    6.995923   -0.195021
     80         12           0      -16.083629   -0.601988   -0.163168
     81          6           0      -14.541124    2.633178   -0.346009
     82          6           0      -16.617923    0.005116    3.150519
     83          6           0      -17.038303   -3.613372    0.132779
     84          6           0      -14.438698   -1.400469   -3.130038
     85          7           0      -15.597506    1.132394    1.120528
     86          6           0      -15.066073    2.330182    0.927581
     87          6           0      -15.171375    3.284599    2.147247
     88          6           0      -15.302131    2.180484    3.305997
     89          6           0      -15.909988    1.041120    2.490510
     90          6           0      -13.960893    1.716410    3.849189
     91          6           0      -16.443227    4.201113    2.080965
     92          6           0      -16.448752    5.366171    3.073126
     93          1           0      -17.050714    6.630437    2.658720
     94          7           0      -17.161797   -1.473785    1.256716
     95          6           0      -17.284060   -1.081391    2.542157
     96          6           0      -18.170286   -2.066596    3.180999
     97          6           0      -18.428779   -3.164214    2.209858
     98          6           0      -17.516315   -2.795380    1.146162
     99          6           0      -18.745873   -1.873610    4.553912
    100          6           0      -19.336446   -4.356466    2.239757
    101          8           0      -19.225199   -5.308915    1.389284
    102          6           0      -20.297983   -4.420709    3.350070
    103          7           0      -15.620117   -2.337409   -1.209974
    104          6           0      -16.215520   -3.505221   -0.910614
    105          6           0      -15.934808   -4.547192   -1.966958
    106          6           0      -15.223399   -3.763047   -3.165547
    107          6           0      -15.131516   -2.358505   -2.529768
    108          6           0      -15.052951   -5.716714   -1.529983
    109          6           0      -15.866025   -3.896553   -4.573340
    110          6           0      -17.215447   -3.215279   -4.591405
    111          7           0      -14.882063    0.461260   -1.610171
    112          6           0      -14.270355   -0.070467   -2.766532
    113          6           0      -13.464579    1.011127   -3.369284
    114          6           0      -13.646487    2.099088   -2.502253
    115          6           0      -14.488816    1.716257   -1.423630
    116          6           0      -12.659357    0.896486   -4.537439
    117          6           0      -13.308927    3.481246   -2.248507
    118          8           0      -12.699679    4.354058   -2.865561
    119          6           0      -13.771144    3.851774   -0.773566
    120          6           0      -14.508682    5.161349   -0.833123
    121          8           0      -15.591476    5.249976   -1.438376
    122          8           0      -13.927989    6.032925    0.011580
    123          6           0      -14.630821    7.343492   -0.003825
    124          1           0      -16.630569   -0.001676    4.240790
    125          1           0      -17.427276   -4.634231    0.127856
    126          1           0      -13.974952   -1.541101   -4.108735
    127          1           0      -14.297196    3.901333    2.318238
    128          1           0      -15.990541    2.502842    4.082865
    129          1           0      -13.135144    2.120349    3.282517
    130          1           0      -13.973849    0.636453    3.781480
    131          1           0      -13.884306    1.950667    4.914828
    132          1           0      -17.310369    3.637350    2.448371
    133          1           0      -16.593445    4.572999    1.086099
    134          1           0      -15.458727    5.537796    3.512851
    135          1           0      -17.076721    5.093675    3.924833
    136          1           0      -18.246522   -1.055909    5.088148
    137          1           0      -18.496842   -2.768931    5.133785
    138          1           0      -19.830949   -1.750595    4.542259
    139          1           0      -19.760083   -4.404785    4.294992
    140          1           0      -20.917316   -5.297222    3.149958
    141          1           0      -20.920035   -3.518979    3.326802
    142          1           0      -16.855443   -4.986023   -2.331597
    143          1           0      -14.189884   -4.106183   -3.320257
    144          1           0      -15.533706   -6.702933   -1.672532
    145          1           0      -14.783114   -5.571656   -0.492345
    146          1           0      -14.080439   -5.768766   -2.016499
    147          1           0      -16.046129   -4.948255   -4.809241
    148          1           0      -15.251638   -3.488668   -5.369040
    149          1           0      -17.881793   -3.976481   -4.174693
    150          1           0      -17.500053   -2.955967   -5.609149
    151          1           0      -17.231350   -2.355433   -3.911654
    152          1           0      -12.836732    1.786505   -5.126430
    153          1           0      -12.897164   -0.005617   -5.097282
    154          1           0      -11.665177    0.848770   -4.085109
    155          1           0      -12.874768    3.914498   -0.155382
    156          1           0      -13.881090    8.105352   -0.238672
    157          1           0      -15.138662    7.421669    0.975844
    158          1           0      -15.357922    7.513080   -0.789325
 ---------------------------------------------------------------------

 SCF Done:  E(RCAM-B3LYP) =  -4069.81175011     A.U. after   19 cycles

 Excitation energies and oscillator strengths:

 Excited State   1:      Singlet-A      1.6754 eV  740.04 nm  f=0.2498  <S**2>=0.000
     310 -> 316       -0.16917
     311 -> 313        0.66874
     312 -> 314       -0.15313
     310 <- 316       -0.10198
 This state for optimization and/or second-order correction.
 Total Energy, E(TD-HF/TD-DFT) =  -4069.75018160
 Copying the excited state density for this state as the 1-particle RhoCI density.

 Excited State   2:      Singlet-A      1.6801 eV  737.97 nm  f=0.5287  <S**2>=0.000
     309 -> 315        0.17116
     311 -> 313        0.15308
     312 -> 314        0.66838
     309 <- 315        0.10248

 Excited State   3:      Singlet-A      2.1861 eV  567.15 nm  f=0.0947  <S**2>=0.000
     310 -> 313        0.64205
     311 -> 316        0.27295

 Excited State   4:      Singlet-A      2.1925 eV  565.49 nm  f=0.1053  <S**2>=0.000
     309 -> 314        0.64028
     312 -> 315       -0.27811

 Excited State   5:      Singlet-A      3.0585 eV  405.38 nm  f=0.0000  <S**2>=0.000
     312 -> 313        0.70710

 The electronic state is 1-A.
 Alpha  occ. eigenvalues --  -46.87771 -46.87659 -19.26345 -19.26255 -19.19156
 Alpha  occ. eigenvalues --  -19.18990 -19.18792 -19.18715 -19.18143 -19.18047
 Alpha  occ. eigenvalues --  -14.42497 -14.42425 -14.41425 -14.41358 -14.39378
 Alpha  occ. eigenvalues --  -14.39351 -14.38598 -14.38561 -10.39086 -10.39050
 Alpha  occ. eigenvalues --  -10.35426 -10.35392 -10.34362 -10.34224 -10.31751
 Alpha  occ. eigenvalues --  -10.31648 -10.31380 -10.31307 -10.31023 -10.30884
 Alpha  occ. eigenvalues --  -10.30544 -10.30482 -10.30396 -10.30359 -10.30183
 Alpha  occ. eigenvalues --  -10.30140 -10.29896 -10.29893 -10.29606 -10.29436
 Alpha  occ. eigenvalues --  -10.29399 -10.29230 -10.28724 -10.28718 -10.28654
 Alpha  occ. eigenvalues --  -10.28512 -10.28404 -10.28340 -10.28140 -10.28092
 Alpha  occ. eigenvalues --  -10.27999 -10.27768 -10.27702 -10.27668 -10.27560
 Alpha  occ. eigenvalues --  -10.27517 -10.27482 -10.27477 -10.27468 -10.27465
 Alpha  occ. eigenvalues --  -10.27459 -10.27425 -10.27378 -10.27375 -10.27131
 Alpha  occ. eigenvalues --  -10.27047 -10.26692 -10.26678 -10.26417 -10.26390
 Alpha  occ. eigenvalues --  -10.26211 -10.26158 -10.26136 -10.26026 -10.25994
 Alpha  occ. eigenvalues --  -10.25933 -10.25845 -10.25816 -10.25413 -10.25398
 Alpha  occ. eigenvalues --  -10.24871 -10.24807 -10.24763 -10.24730 -10.24689
 Alpha  occ. eigenvalues --  -10.24660  -3.16514  -3.16409  -1.91396  -1.91292
 Alpha  occ. eigenvalues --   -1.90982  -1.90880  -1.90825  -1.90717  -1.16639
 Alpha  occ. eigenvalues --   -1.16603  -1.08654  -1.08600  -1.07194  -1.06967
 Alpha  occ. eigenvalues --   -1.06941  -1.06613  -1.04556  -1.04494  -1.03736
 Alpha  occ. eigenvalues --   -1.03662  -1.03209  -1.03038  -1.02386  -1.02110
 Alpha  occ. eigenvalues --   -0.91985  -0.91946  -0.89495  -0.89493  -0.89163
 Alpha  occ. eigenvalues --   -0.89151  -0.88262  -0.88219  -0.87844  -0.87791
 Alpha  occ. eigenvalues --   -0.87683  -0.87648  -0.87250  -0.87120  -0.84999
 Alpha  occ. eigenvalues --   -0.84957  -0.83911  -0.83875  -0.82944  -0.82932
 Alpha  occ. eigenvalues --   -0.82652  -0.82623  -0.81593  -0.81559  -0.80571
 Alpha  occ. eigenvalues --   -0.80441  -0.78773  -0.78635  -0.77193  -0.77143
 Alpha  occ. eigenvalues --   -0.76908  -0.76897  -0.75897  -0.75837  -0.74873
 Alpha  occ. eigenvalues --   -0.74802  -0.72749  -0.72697  -0.71647  -0.71580
 Alpha  occ. eigenvalues --   -0.69882  -0.69757  -0.68848  -0.68826  -0.67616
 Alpha  occ. eigenvalues --   -0.67600  -0.67199  -0.67195  -0.65270  -0.65261
 Alpha  occ. eigenvalues --   -0.64828  -0.64769  -0.64652  -0.64595  -0.64244
 Alpha  occ. eigenvalues --   -0.64203  -0.62275  -0.62270  -0.60418  -0.60339
 Alpha  occ. eigenvalues --   -0.59796  -0.59779  -0.58991  -0.58962  -0.58478
 Alpha  occ. eigenvalues --   -0.58424  -0.57557  -0.57551  -0.57283  -0.57235
 Alpha  occ. eigenvalues --   -0.56285  -0.56203  -0.55951  -0.55884  -0.55496
 Alpha  occ. eigenvalues --   -0.55451  -0.55314  -0.55246  -0.54497  -0.54486
 Alpha  occ. eigenvalues --   -0.53912  -0.53870  -0.53274  -0.53226  -0.53197
 Alpha  occ. eigenvalues --   -0.53140  -0.52900  -0.52888  -0.52732  -0.52668
 Alpha  occ. eigenvalues --   -0.52413  -0.52400  -0.51888  -0.51881  -0.51658
 Alpha  occ. eigenvalues --   -0.51591  -0.51199  -0.51170  -0.50550  -0.50476
 Alpha  occ. eigenvalues --   -0.50007  -0.49980  -0.49895  -0.49867  -0.49490
 Alpha  occ. eigenvalues --   -0.49487  -0.49201  -0.49189  -0.49103  -0.49071
 Alpha  occ. eigenvalues --   -0.48567  -0.48556  -0.48437  -0.48420  -0.48374
 Alpha  occ. eigenvalues --   -0.48338  -0.47670  -0.47594  -0.47272  -0.47118
 Alpha  occ. eigenvalues --   -0.46772  -0.46708  -0.46553  -0.46530  -0.46334
 Alpha  occ. eigenvalues --   -0.46269  -0.46137  -0.46084  -0.45819  -0.45795
 Alpha  occ. eigenvalues --   -0.45208  -0.45177  -0.44551  -0.44512  -0.44483
 Alpha  occ. eigenvalues --   -0.44475  -0.44126  -0.44119  -0.44077  -0.44063
 Alpha  occ. eigenvalues --   -0.43994  -0.43938  -0.43550  -0.43468  -0.43384
 Alpha  occ. eigenvalues --   -0.43361  -0.43002  -0.42928  -0.42899  -0.42672
 Alpha  occ. eigenvalues --   -0.42628  -0.42553  -0.41984  -0.41963  -0.41678
 Alpha  occ. eigenvalues --   -0.41667  -0.41508  -0.41458  -0.41116  -0.40989
 Alpha  occ. eigenvalues --   -0.40844  -0.40800  -0.40722  -0.40698  -0.40546
 Alpha  occ. eigenvalues --   -0.40492  -0.40226  -0.40208  -0.39425  -0.39416
 Alpha  occ. eigenvalues --   -0.38444  -0.38350  -0.37722  -0.37653  -0.37295
 Alpha  occ. eigenvalues --   -0.37265  -0.37238  -0.37199  -0.36767  -0.36685
 Alpha  occ. eigenvalues --   -0.36215  -0.36166  -0.34261  -0.34252  -0.33858
 Alpha  occ. eigenvalues --   -0.33741  -0.33174  -0.33161  -0.31322  -0.31274
 Alpha  occ. eigenvalues --   -0.31010  -0.30972  -0.30002  -0.29951  -0.29424
 Alpha  occ. eigenvalues --   -0.29326  -0.29296  -0.29209  -0.24055  -0.24035
 Alpha  occ. eigenvalues --   -0.21116  -0.21103
 Alpha virt. eigenvalues --   -0.08791  -0.08749  -0.01725  -0.01683  -0.00034
 Alpha virt. eigenvalues --   -0.00028   0.02209   0.02226   0.03149   0.03227
 Alpha virt. eigenvalues --    0.04730   0.04743   0.05127   0.05169   0.06183

 Mulliken charges:
               1
     1  Mg   0.838805
     2  C   -0.002940
     3  C   -0.094132
     4  C   -0.045881
     5  C   -0.063956
     6  N   -0.256797
     7  C   -0.052445
     8  C   -0.014026
     9  C   -0.086993
    10  C    0.046330
    11  C    0.104821
    12  C    0.053477
    13  C   -0.071818
    14  H    0.036183
    15  N   -0.433140
    16  C    0.168418
    17  C   -0.177170
    18  C   -0.004034
    19  C    0.148713
    20  C    0.110191
    21  C    0.012291
    22  O   -0.249650
    23  C    0.062473
    24  N   -0.341125
    25  C    0.041241
    26  C   -0.028178
    27  C   -0.023961
    28  C    0.074819
    29  C    0.076192
    30  C    0.035134
    31  C   -0.004504
    32  N   -0.310486
    33  C    0.080422
    34  C   -0.169691
    35  C    0.008374
    36  C    0.083011
    37  C    0.127303
    38  C    0.046145
    39  O   -0.188385
    40  C   -0.005355
    41  C    0.212878
    42  O   -0.257051
    43  O   -0.304816
    44  C    0.157669
    45  H   -0.017636
    46  H   -0.016863
    47  H   -0.041479
    48  H    0.000936
    49  H   -0.004047
    50  H    0.025470
    51  H    0.016429
    52  H    0.016626
    53  H    0.011204
    54  H    0.044167
    55  H    0.017851
    56  H    0.017923
    57  H    0.005859
    58  H    0.026782
    59  H    0.039532
    60  H    0.037323
    61  H    0.035614
    62  H    0.031507
    63  H    0.016547
    64  H    0.009445
    65  H    0.023185
    66  H    0.012525
    67  H    0.004736
    68  H    0.006341
    69  H    0.004747
    70  H    0.008760
    71  H    0.018188
    72  H    0.029001
    73  H    0.047629
    74  H    0.009123
    75  H    0.045993
    76  H    0.035134
    77  H    0.042959
    78  H    0.046383
    79  H    0.053753
    80  Mg   0.837838
    81  C   -0.016815
    82  C   -0.087804
    83  C   -0.045518
    84  C   -0.064880
    85  N   -0.254569
    86  C   -0.049839
    87  C   -0.015085
    88  C   -0.090506
    89  C    0.045774
    90  C    0.114371
    91  C    0.062521
    92  C   -0.077900
    93  H    0.034923
    94  N   -0.423496
    95  C    0.162910
    96  C   -0.174641
    97  C   -0.007799
    98  C    0.152100
    99  C    0.099373
   100  C    0.015551
   101  O   -0.253192
   102  C    0.061201
   103  N   -0.350051
   104  C    0.037511
   105  C   -0.019834
   106  C   -0.034851
   107  C    0.088942
   108  C    0.073656
   109  C    0.034739
   110  C   -0.007684
   111  N   -0.324119
   112  C    0.078450
   113  C   -0.163097
   114  C    0.002291
   115  C    0.096202
   116  C    0.131483
   117  C    0.042404
   118  O   -0.187764
   119  C    0.000905
   120  C    0.211279
   121  O   -0.251032
   122  O   -0.305620
   123  C    0.152016
   124  H   -0.019684
   125  H   -0.015579
   126  H   -0.040401
   127  H   -0.000623
   128  H   -0.004342
   129  H    0.022492
   130  H    0.014419
   131  H    0.016255
   132  H    0.013912
   133  H    0.037693
   134  H    0.020791
   135  H    0.019572
   136  H    0.008747
   137  H    0.026118
   138  H    0.039786
   139  H    0.038238
   140  H    0.036392
   141  H    0.033900
   142  H    0.014399
   143  H    0.012459
   144  H    0.025134
   145  H    0.011627
   146  H    0.005701
   147  H    0.006271
   148  H    0.003691
   149  H    0.010922
   150  H    0.017956
   151  H    0.030097
   152  H    0.046062
   153  H    0.008535
   154  H    0.047030
   155  H    0.035067
   156  H    0.043964
   157  H    0.049467
   158  H    0.053591
 Sum of Mulliken charges =  -0.00000

 Dipole moment (field-independent basis, Debye):
    X=              1.6196    Y=             -1.8318    Z=              8.3938  Tot=              8.7426
 Quadrupole moment (field-independent basis, Debye-Ang):
   XX=           -445.3368   YY=           -535.7312   ZZ=           -461.9289
   XY=            -10.2079   XZ=             -9.1309   YZ=             57.1443

 Normal termination of Gaussian 16 at Sun Sep 12 18:37:46 2021.
