 Gaussian 16, Revision A.03,
 Gaussian 16:  ES64L-G16RevA.03 25-Dec-2016

 -----------------------------------
 #p cam-b3lyp/Def2SVP td=(nstates=5)
 -----------------------------------

 --------------------------------
 TDDFT excited states in gaussian
 --------------------------------
 Symbolic Z-matrix:
 Charge =  0 Multiplicity = 1

                         Standard orientation:
 ---------------------------------------------------------------------
 Center     Atomic      Atomic             Coordinates (Angstroms)
 Number     Number       Type             X           Y           Z
 ---------------------------------------------------------------------
      1         12           0        4.582498   -0.496020    0.919592
      2          6           0        5.065658    2.493038   -0.989414
      3          6           0        4.846994    1.429829    3.723912
      4          6           0        4.613091   -3.171268    2.622159
      5          6           0        5.482206   -2.286463   -1.931811
      6          7           0        4.912045    1.674765    1.201964
      7          6           0        5.021372    2.720046    0.387957
      8          6           0        5.008480    4.087893    1.133746
      9          6           0        5.507451    3.598077    2.566612
     10          6           0        5.030059    2.157627    2.510722
     11          6           0        7.025070    3.606994    2.719113
     12          6           0        3.573812    4.710654    1.208768
     13          6           0        3.521721    6.183180    1.626271
     14          1           0        2.513285    7.045271    1.028607
     15          7           0        4.229342   -0.796617    2.839949
     16          6           0        4.374348    0.104762    3.840837
     17          6           0        3.987970   -0.599261    5.082507
     18          6           0        3.788796   -2.036668    4.747419
     19          6           0        4.233647   -2.064193    3.377482
     20          6           0        3.797238    0.094383    6.396367
     21          6           0        3.288398   -3.202804    5.539796
     22          8           0        3.413332   -4.407412    5.130060
     23          6           0        2.720146   -2.900599    6.865995
     24          7           0        5.198922   -2.444138    0.492399
     25          6           0        5.049131   -3.427124    1.386986
     26          6           0        5.293337   -4.771153    0.767399
     27          6           0        5.405041   -4.519154   -0.805424
     28          6           0        5.279551   -2.975613   -0.806613
     29          6           0        6.543921   -5.515634    1.255047
     30          6           0        4.456712   -5.336965   -1.717715
     31          6           0        3.025780   -4.903590   -1.490299
     32          7           0        5.001615   -0.026440   -1.157637
     33          6           0        5.378354   -0.925465   -2.165851
     34          6           0        5.657366   -0.127551   -3.373971
     35          6           0        5.438150    1.190223   -2.977409
     36          6           0        5.072446    1.216099   -1.601225
     37          6           0        6.113893   -0.636493   -4.621767
     38          6           0        5.451706    2.584425   -3.389567
     39          8           0        5.595560    3.169720   -4.463917
     40          6           0        5.329659    3.493048   -2.087516
     41          6           0        4.278534    4.535001   -2.357289
     42          8           0        3.080932    4.213911   -2.498770
     43          8           0        4.804285    5.755442   -2.171140
     44          6           0        3.805376    6.834625   -2.394069
     45          1           0        5.147074    1.891367    4.666714
     46          1           0        4.530405   -4.127789    3.142416
     47          1           0        5.685928   -2.783170   -2.882197
     48          1           0        5.698637    4.830552    0.733041
     49          1           0        5.008576    4.131504    3.375502
     50          1           0        7.519295    3.826102    1.772722
     51          1           0        7.288843    2.606925    3.063756
     52          1           0        7.330519    4.288074    3.513851
     53          1           0        3.030555    4.262597    2.040740
     54          1           0        3.049020    4.585868    0.260956
     55          1           0        4.505806    6.649087    1.567823
     56          1           0        3.262558    6.229308    2.684055
     57          1           0        4.175780    1.115410    6.368872
     58          1           0        4.435586   -0.412590    7.119693
     59          1           0        2.760820    0.059095    6.732409
     60          1           0        3.474928   -2.404257    7.476322
     61          1           0        2.332964   -3.844001    7.249312
     62          1           0        1.904645   -2.186738    6.746369
     63          1           0        4.462896   -5.448433    0.962551
     64          1           0        6.401190   -4.745760   -1.186228
     65          1           0        6.333418   -6.504157    1.663967
     66          1           0        7.045129   -4.886860    1.990386
     67          1           0        7.325160   -5.636908    0.505130
     68          1           0        4.513942   -6.396637   -1.471208
     69          1           0        4.682645   -5.230621   -2.778797
     70          1           0        2.731784   -5.483535   -0.616193
     71          1           0        2.409487   -5.158296   -2.353154
     72          1           0        2.967640   -3.849867   -1.216848
     73          1           0        5.536764   -0.122536   -5.390362
     74          1           0        5.980191   -1.716368   -4.681746
     75          1           0        7.164048   -0.347118   -4.585831
     76          1           0        6.311316    3.935416   -1.920831
     77          1           0        4.218683    7.503621   -3.148957
     78          1           0        3.579852    7.255393   -1.414019
     79          1           0        2.871932    6.536117   -2.872519
     80         12           0       -4.227606   -0.800027   -0.837306
     81          6           0       -6.707314    1.434605    0.480467
     82          6           0       -2.712440    1.930045   -2.210464
     83          6           0       -2.287024   -2.778060   -2.382936
     84          6           0       -6.506048   -3.392162   -0.352285
     85          7           0       -4.738890    1.351573   -0.799173
     86          6           0       -5.670232    2.090389   -0.215137
     87          6           0       -5.435196    3.621289   -0.318289
     88          6           0       -4.514720    3.635133   -1.634115
     89          6           0       -3.919275    2.232493   -1.530632
     90          6           0       -5.311629    3.721666   -2.925156
     91          6           0       -4.668234    4.193405    0.925281
     92          6           0       -4.675833    5.719408    1.039351
     93          1           0       -4.735053    6.317615    2.370183
     94          7           0       -2.467850   -0.465924   -1.691831
     95          6           0       -2.005788    0.707984   -2.171129
     96          6           0       -0.670034    0.421826   -2.717062
     97          6           0       -0.449072   -1.049094   -2.669453
     98          6           0       -1.762995   -1.499792   -2.256456
     99          6           0        0.282986    1.500482   -3.143327
    100          6           0        0.743322   -1.908867   -2.961300
    101          8           0        0.642495   -3.180673   -3.084412
    102          6           0        2.015690   -1.209034   -3.191097
    103          7           0       -4.445806   -2.758882   -1.498844
    104          6           0       -3.428887   -3.403907   -2.096956
    105          6           0       -3.724206   -4.878367   -2.235229
    106          6           0       -5.054242   -5.131799   -1.384140
    107          6           0       -5.360926   -3.680010   -0.955601
    108          6           0       -3.929602   -5.384660   -3.662773
    109          6           0       -4.988854   -6.228449   -0.286071
    110          6           0       -4.058212   -5.793448    0.823010
    111          7           0       -6.167991   -1.012314    0.088910
    112          6           0       -6.957100   -2.181363    0.157542
    113          6           0       -8.241870   -1.803426    0.781192
    114          6           0       -8.118961   -0.425146    1.012983
    115          6           0       -6.855253    0.028034    0.546961
    116          6           0       -9.341590   -2.676332    1.015243
    117          6           0       -8.775085    0.751467    1.536230
    118          8           0       -9.826021    0.964100    2.139608
    119          6           0       -7.940439    2.031767    1.099663
    120          6           0       -7.763212    2.905880    2.310878
    121          8           0       -7.087685    2.514939    3.279087
    122          8           0       -8.234818    4.136355    2.039076
    123          6           0       -8.071130    5.043018    3.206550
    124          1           0       -2.285860    2.685270   -2.871182
    125          1           0       -1.612676   -3.523964   -2.809973
    126          1           0       -7.230522   -4.161683   -0.077235
    127          1           0       -6.330572    4.208140   -0.484687
    128          1           0       -3.733471    4.387311   -1.561741
    129          1           0       -6.373941    3.640190   -2.749121
    130          1           0       -4.965937    2.900848   -3.539811
    131          1           0       -5.051788    4.634960   -3.468043
    132          1           0       -3.592447    4.020214    0.793253
    133          1           0       -5.039849    3.761254    1.834010
    134          1           0       -5.420851    6.178457    0.378168
    135          1           0       -3.719977    6.099691    0.670924
    136          1           0       -0.218174    2.473419   -3.218377
    137          1           0        0.586528    1.271347   -4.170565
    138          1           0        1.174090    1.548135   -2.513789
    139          1           0        1.904401   -0.522530   -4.027037
    140          1           0        2.766705   -1.994588   -3.294784
    141          1           0        2.243028   -0.598166   -2.310311
    142          1           0       -2.921480   -5.474287   -1.818553
    143          1           0       -5.890524   -5.454625   -2.021530
    144          1           0       -3.239772   -6.204501   -3.938603
    145          1           0       -3.817445   -4.549024   -4.340759
    146          1           0       -4.936124   -5.732336   -3.889129
    147          1           0       -4.572087   -7.151326   -0.696875
    148          1           0       -5.956907   -6.473143    0.138185
    149          1           0       -3.071183   -6.067620    0.438688
    150          1           0       -4.284953   -6.326141    1.744353
    151          1           0       -4.073513   -4.704176    0.945066
    152          1           0       -9.708659   -2.455217    2.008661
    153          1           0       -9.047740   -3.719779    0.922259
    154          1           0      -10.012265   -2.365411    0.209771
    155          1           0       -8.500643    2.534543    0.310390
    156          1           0       -9.061388    5.446985    3.438655
    157          1           0       -7.287411    5.767194    2.914830
    158          1           0       -7.797960    4.594906    4.154708
 ---------------------------------------------------------------------

 SCF Done:  E(RCAM-B3LYP) =  -4069.81759560     A.U. after   17 cycles

 Excitation energies and oscillator strengths:

 Excited State   1:      Singlet-A      1.6361 eV  757.79 nm  f=0.1950  <S**2>=0.000
     309 -> 315       -0.11854
     310 -> 316       -0.11454
     311 -> 313        0.49097
     312 -> 314       -0.48148
 This state for optimization and/or second-order correction.
 Total Energy, E(TD-HF/TD-DFT) =  -4069.75746935
 Copying the excited state density for this state as the 1-particle RhoCI density.

 Excited State   2:      Singlet-A      1.7032 eV  727.95 nm  f=0.5614  <S**2>=0.000
     309 -> 315       -0.12864
     310 -> 316        0.12808
     311 -> 313        0.47881
     312 -> 314        0.48885

 Excited State   3:      Singlet-A      2.1864 eV  567.07 nm  f=0.0039  <S**2>=0.000
     309 -> 313       -0.40881
     310 -> 314        0.49782
     311 -> 315       -0.17112
     312 -> 316       -0.21034

 Excited State   4:      Singlet-A      2.2001 eV  563.55 nm  f=0.1671  <S**2>=0.000
     309 -> 313        0.49401
     310 -> 314        0.40417
     311 -> 315        0.21926
     312 -> 316       -0.17795

 Excited State   5:      Singlet-A      2.2734 eV  545.37 nm  f=0.0001  <S**2>=0.000
     312 -> 313        0.70603

 The electronic state is 1-A.
 Alpha  occ. eigenvalues --  -46.88040 -46.87326 -19.26908 -19.26189 -19.19822
 Alpha  occ. eigenvalues --  -19.18981 -19.18942 -19.18548 -19.18448 -19.17744
 Alpha  occ. eigenvalues --  -14.42707 -14.42170 -14.41612 -14.41021 -14.39626
 Alpha  occ. eigenvalues --  -14.39005 -14.38944 -14.38264 -10.39768 -10.38902
 Alpha  occ. eigenvalues --  -10.35567 -10.34992 -10.34784 -10.33932 -10.32247
 Alpha  occ. eigenvalues --  -10.31702 -10.31646 -10.31178 -10.30983 -10.30855
 Alpha  occ. eigenvalues --  -10.30747 -10.30650 -10.30290 -10.30093 -10.30087
 Alpha  occ. eigenvalues --  -10.29985 -10.29884 -10.29771 -10.29627 -10.29457
 Alpha  occ. eigenvalues --  -10.29060 -10.29032 -10.28974 -10.28897 -10.28694
 Alpha  occ. eigenvalues --  -10.28515 -10.28442 -10.28393 -10.28055 -10.28029
 Alpha  occ. eigenvalues --  -10.27962 -10.27833 -10.27813 -10.27708 -10.27624
 Alpha  occ. eigenvalues --  -10.27613 -10.27592 -10.27332 -10.27282 -10.27268
 Alpha  occ. eigenvalues --  -10.27253 -10.27160 -10.27142 -10.27076 -10.27013
 Alpha  occ. eigenvalues --  -10.26784 -10.26482 -10.26474 -10.26459 -10.26150
 Alpha  occ. eigenvalues --  -10.26136 -10.26080 -10.25905 -10.25728 -10.25586
 Alpha  occ. eigenvalues --  -10.25566 -10.25559 -10.25509 -10.25372 -10.25204
 Alpha  occ. eigenvalues --  -10.25164 -10.24968 -10.24512 -10.24498 -10.24374
 Alpha  occ. eigenvalues --  -10.23351  -3.16793  -3.16078  -1.91675  -1.91259
 Alpha  occ. eigenvalues --   -1.91104  -1.90961  -1.90549  -1.90385  -1.17269
 Alpha  occ. eigenvalues --   -1.16477  -1.09037  -1.08371  -1.07360  -1.07334
 Alpha  occ. eigenvalues --   -1.06762  -1.06674  -1.04849  -1.04160  -1.03948
 Alpha  occ. eigenvalues --   -1.03486  -1.03331  -1.02699  -1.02645  -1.01767
 Alpha  occ. eigenvalues --   -0.92299  -0.91665  -0.89561  -0.89417  -0.89188
 Alpha  occ. eigenvalues --   -0.88864  -0.88199  -0.88128  -0.87940  -0.87888
 Alpha  occ. eigenvalues --   -0.87464  -0.87453  -0.87337  -0.86471  -0.85245
 Alpha  occ. eigenvalues --   -0.84698  -0.83857  -0.83614  -0.82973  -0.82789
 Alpha  occ. eigenvalues --   -0.82491  -0.82122  -0.81931  -0.81338  -0.80844
 Alpha  occ. eigenvalues --   -0.80114  -0.79000  -0.78097  -0.77393  -0.77105
 Alpha  occ. eigenvalues --   -0.76751  -0.76639  -0.76175  -0.75474  -0.74869
 Alpha  occ. eigenvalues --   -0.74489  -0.72970  -0.72333  -0.71883  -0.71268
 Alpha  occ. eigenvalues --   -0.69543  -0.69482  -0.69082  -0.68495  -0.67884
 Alpha  occ. eigenvalues --   -0.67476  -0.67270  -0.66840  -0.65575  -0.65149
 Alpha  occ. eigenvalues --   -0.64980  -0.64813  -0.64461  -0.64368  -0.64142
 Alpha  occ. eigenvalues --   -0.63912  -0.62634  -0.62030  -0.60584  -0.60082
 Alpha  occ. eigenvalues --   -0.59833  -0.59479  -0.59208  -0.58738  -0.58674
 Alpha  occ. eigenvalues --   -0.58091  -0.58029  -0.57409  -0.57287  -0.56871
 Alpha  occ. eigenvalues --   -0.56612  -0.56348  -0.55828  -0.55755  -0.55581
 Alpha  occ. eigenvalues --   -0.55500  -0.55059  -0.54959  -0.54579  -0.54246
 Alpha  occ. eigenvalues --   -0.54184  -0.53624  -0.53482  -0.53457  -0.53227
 Alpha  occ. eigenvalues --   -0.52952  -0.52900  -0.52784  -0.52617  -0.52336
 Alpha  occ. eigenvalues --   -0.52139  -0.51996  -0.51931  -0.51873  -0.51582
 Alpha  occ. eigenvalues --   -0.51378  -0.51186  -0.50886  -0.50664  -0.50157
 Alpha  occ. eigenvalues --   -0.49922  -0.49837  -0.49699  -0.49537  -0.49507
 Alpha  occ. eigenvalues --   -0.49334  -0.49325  -0.49063  -0.48921  -0.48820
 Alpha  occ. eigenvalues --   -0.48747  -0.48658  -0.48465  -0.48245  -0.48105
 Alpha  occ. eigenvalues --   -0.47914  -0.47839  -0.47478  -0.47176  -0.46952
 Alpha  occ. eigenvalues --   -0.46796  -0.46631  -0.46544  -0.46384  -0.46273
 Alpha  occ. eigenvalues --   -0.46207  -0.46142  -0.45860  -0.45719  -0.45561
 Alpha  occ. eigenvalues --   -0.45164  -0.44915  -0.44870  -0.44649  -0.44417
 Alpha  occ. eigenvalues --   -0.44255  -0.44222  -0.44153  -0.44049  -0.43821
 Alpha  occ. eigenvalues --   -0.43782  -0.43727  -0.43494  -0.43409  -0.43306
 Alpha  occ. eigenvalues --   -0.43249  -0.43132  -0.43054  -0.42693  -0.42567
 Alpha  occ. eigenvalues --   -0.42557  -0.42217  -0.41965  -0.41873  -0.41688
 Alpha  occ. eigenvalues --   -0.41479  -0.41355  -0.41346  -0.41137  -0.41026
 Alpha  occ. eigenvalues --   -0.40955  -0.40670  -0.40525  -0.40420  -0.40380
 Alpha  occ. eigenvalues --   -0.40251  -0.40216  -0.39888  -0.39162  -0.38992
 Alpha  occ. eigenvalues --   -0.38421  -0.38087  -0.38029  -0.37574  -0.37410
 Alpha  occ. eigenvalues --   -0.37308  -0.37179  -0.36966  -0.36859  -0.36573
 Alpha  occ. eigenvalues --   -0.36278  -0.35948  -0.34577  -0.34416  -0.33928
 Alpha  occ. eigenvalues --   -0.33653  -0.33417  -0.32842  -0.31481  -0.31283
 Alpha  occ. eigenvalues --   -0.30889  -0.30645  -0.30421  -0.29735  -0.29662
 Alpha  occ. eigenvalues --   -0.29595  -0.28931  -0.28826  -0.24336  -0.23706
 Alpha  occ. eigenvalues --   -0.21349  -0.20756
 Alpha virt. eigenvalues --   -0.09017  -0.08413  -0.01964  -0.01365  -0.00286
 Alpha virt. eigenvalues --    0.00352   0.01906   0.02514   0.02594   0.03595
 Alpha virt. eigenvalues --    0.04443   0.04466   0.05021   0.05368   0.05834

 Mulliken charges:
               1
     1  Mg   0.832829
     2  C   -0.008461
     3  C   -0.093848
     4  C   -0.044875
     5  C   -0.058654
     6  N   -0.257063
     7  C   -0.054301
     8  C   -0.013809
     9  C   -0.087150
    10  C    0.047340
    11  C    0.104587
    12  C    0.053259
    13  C   -0.071768
    14  H    0.034227
    15  N   -0.432758
    16  C    0.169152
    17  C   -0.176184
    18  C   -0.002786
    19  C    0.149899
    20  C    0.109843
    21  C    0.013458
    22  O   -0.247833
    23  C    0.061920
    24  N   -0.342234
    25  C    0.044759
    26  C   -0.028142
    27  C   -0.022331
    28  C    0.073007
    29  C    0.076332
    30  C    0.032692
    31  C    0.004182
    32  N   -0.310188
    33  C    0.070195
    34  C   -0.170389
    35  C    0.008626
    36  C    0.076938
    37  C    0.128563
    38  C    0.040721
    39  O   -0.188940
    40  C   -0.004389
    41  C    0.216687
    42  O   -0.261845
    43  O   -0.302728
    44  C    0.157645
    45  H   -0.016880
    46  H   -0.015097
    47  H   -0.038774
    48  H    0.000804
    49  H   -0.003365
    50  H    0.025611
    51  H    0.017145
    52  H    0.017437
    53  H    0.012392
    54  H    0.040707
    55  H    0.018687
    56  H    0.019444
    57  H    0.006180
    58  H    0.027752
    59  H    0.041603
    60  H    0.037332
    61  H    0.036914
    62  H    0.032862
    63  H    0.019102
    64  H    0.008057
    65  H    0.023619
    66  H    0.011174
    67  H    0.005070
    68  H    0.003217
    69  H    0.003061
    70  H   -0.001636
    71  H    0.035434
    72  H    0.021632
    73  H    0.044723
    74  H    0.011539
    75  H    0.046536
    76  H    0.036493
    77  H    0.044557
    78  H    0.047835
    79  H    0.051226
    80  Mg   0.835824
    81  C   -0.016861
    82  C   -0.085027
    83  C   -0.046561
    84  C   -0.065274
    85  N   -0.254223
    86  C   -0.051358
    87  C   -0.014947
    88  C   -0.090302
    89  C    0.044582
    90  C    0.114383
    91  C    0.062450
    92  C   -0.076990
    93  H    0.032187
    94  N   -0.423605
    95  C    0.161128
    96  C   -0.174981
    97  C   -0.008260
    98  C    0.153142
    99  C    0.103243
   100  C    0.017304
   101  O   -0.256542
   102  C    0.052502
   103  N   -0.350229
   104  C    0.038341
   105  C   -0.019863
   106  C   -0.034332
   107  C    0.088212
   108  C    0.073992
   109  C    0.035001
   110  C   -0.007308
   111  N   -0.323635
   112  C    0.077066
   113  C   -0.164406
   114  C    0.001737
   115  C    0.095002
   116  C    0.131763
   117  C    0.041392
   118  O   -0.189897
   119  C    0.001108
   120  C    0.211139
   121  O   -0.251966
   122  O   -0.305470
   123  C    0.152448
   124  H   -0.016546
   125  H   -0.017067
   126  H   -0.041678
   127  H   -0.001483
   128  H   -0.003401
   129  H    0.021773
   130  H    0.014978
   131  H    0.016268
   132  H    0.014258
   133  H    0.036676
   134  H    0.020742
   135  H    0.019417
   136  H    0.012380
   137  H    0.026671
   138  H    0.053417
   139  H    0.041554
   140  H    0.034514
   141  H    0.046050
   142  H    0.013500
   143  H    0.011659
   144  H    0.023696
   145  H    0.011871
   146  H    0.005365
   147  H    0.005187
   148  H    0.003139
   149  H    0.010705
   150  H    0.017434
   151  H    0.030371
   152  H    0.044758
   153  H    0.007688
   154  H    0.045987
   155  H    0.034450
   156  H    0.043367
   157  H    0.049120
   158  H    0.052690
 Sum of Mulliken charges =  -0.00000

 Dipole moment (field-independent basis, Debye):
    X=              4.3103    Y=              3.2060    Z=              1.4722  Tot=              5.5700
 Quadrupole moment (field-independent basis, Debye-Ang):
   XX=           -543.5165   YY=           -465.1952   ZZ=           -513.9976
   XY=              8.9330   XZ=             44.5057   YZ=             25.9646

 Normal termination of Gaussian 16 at Thu Sep  9 14:21:39 2021.
