 Gaussian 16, Revision A.03,
 Gaussian 16:  ES64L-G16RevA.03 25-Dec-2016

 -----------------------------------
 #p cam-b3lyp/Def2SVP td=(nstates=5)
 -----------------------------------

 --------------------------------
 TDDFT excited states in gaussian
 --------------------------------
 Symbolic Z-matrix:
 Charge =  0 Multiplicity = 1

                         Standard orientation:
 ---------------------------------------------------------------------
 Center     Atomic      Atomic             Coordinates (Angstroms)
 Number     Number       Type             X           Y           Z
 ---------------------------------------------------------------------
      1         12           0        4.008042    1.055527    0.408900
      2          6           0        4.732178   -2.049556   -1.217845
      3          6           0        4.879494    2.611778   -2.500003
      4          6           0        3.813757    3.817339    1.955274
      5          6           0        4.295071   -0.636208    3.442266
      6          7           0        4.699476    0.271816   -1.542602
      7          6           0        4.877808   -0.941548   -2.055552
      8          6           0        5.160468   -0.929184   -3.587650
      9          6           0        5.734465    0.551844   -3.725784
     10          6           0        5.036397    1.194457   -2.540173
     11          6           0        7.242551    0.642795   -3.516245
     12          6           0        3.857120   -1.119744   -4.434234
     13          6           0        4.080838   -1.445086   -5.913915
     14          1           0        3.157786   -2.352448   -6.578759
     15          7           0        3.829409    2.898983   -0.278567
     16          6           0        4.223278    3.352149   -1.492978
     17          6           0        3.873673    4.788614   -1.525006
     18          6           0        3.417970    5.176524   -0.161204
     19          6           0        3.697270    3.970602    0.575764
     20          6           0        3.940771    5.624301   -2.766326
     21          6           0        2.834625    6.437951    0.392549
     22          8           0        2.724794    6.641865    1.649900
     23          6           0        2.471876    7.478936   -0.586126
     24          7           0        4.263476    1.582092    2.412676
     25          6           0        4.064084    2.838134    2.826904
     26          6           0        4.026271    2.919782    4.324183
     27          6           0        3.999206    1.411798    4.848591
     28          6           0        4.115094    0.685836    3.485573
     29          6           0        5.192941    3.668435    4.983281
     30          6           0        2.839663    1.018070    5.797726
     31          6           0        1.527664    1.051069    5.046283
     32          7           0        4.260077   -1.007612    1.034186
     33          6           0        4.377889   -1.481839    2.348683
     34          6           0        4.640405   -2.930250    2.263486
     35          6           0        4.673756   -3.196723    0.896107
     36          6           0        4.472587   -1.986564    0.172685
     37          6           0        4.870211   -3.801717    3.364471
     38          6           0        4.857059   -4.218039   -0.122308
     39          8           0        4.968907   -5.444754   -0.109939
     40          6           0        5.023573   -3.495952   -1.531808
     41          6           0        4.123132   -4.198070   -2.511372
     42          8           0        2.882022   -4.140319   -2.394422
     43          8           0        4.849130   -4.623341   -3.556654
     44          6           0        4.010948   -5.303087   -4.580153
     45          1           0        5.350927    3.217232   -3.276609
     46          1           0        3.642502    4.729243    2.531068
     47          1           0        4.311861   -1.244785    4.348249
     48          1           0        5.908221   -1.650543   -3.917697
     49          1           0        5.417837    1.026023   -4.654559
     50          1           0        7.655867   -0.307456   -3.178438
     51          1           0        7.385000    1.411504   -2.756451
     52          1           0        7.736730    1.014046   -4.414430
     53          1           0        3.347409   -0.161062   -4.530068
     54          1           0        3.216739   -1.882664   -3.990170
     55          1           0        5.112464   -1.741840   -6.105210
     56          1           0        3.951806   -0.527861   -6.488588
     57          1           0        4.467493    5.108613   -3.568307
     58          1           0        4.569627    6.484461   -2.537470
     59          1           0        2.955529    5.963925   -3.086147
     60          1           0        3.357875    7.763183   -1.154244
     61          1           0        1.988465    8.271834   -0.016497
     62          1           0        1.768654    7.057833   -1.305223
     63          1           0        3.127979    3.432762    4.665283
     64          1           0        4.899333    1.157311    5.408665
     65          1           0        4.878824    4.500615    5.613767
     66          1           0        5.864531    4.006946    4.194821
     67          1           0        5.857192    3.044497    5.580683
     68          1           0        2.759171    1.733746    6.615207
     69          1           0        2.959339    0.026869    6.235275
     70          1           0        1.246892    2.102657    5.092772
     71          1           0        0.786829    0.426682    5.546798
     72          1           0        1.664446    0.796491    3.995109
     73          1           0        4.297470   -4.706654    3.161923
     74          1           0        4.564924   -3.341696    4.304037
     75          1           0        5.949881   -3.933716    3.295588
     76          1           0        6.074325   -3.583116   -1.806477
     77          1           0        4.435955   -6.294696   -4.736080
     78          1           0        3.964305   -4.631977   -5.437965
     79          1           0        2.994973   -5.559809   -4.278115
     80         12           0       -4.883919   -0.121917   -0.189215
     81          6           0       -2.080796   -2.107929    0.848717
     82          6           0       -2.825670    2.593787   -0.037087
     83          6           0       -7.430653    1.710517   -0.662252
     84          6           0       -6.941824   -2.741831    0.833920
     85          7           0       -2.748818    0.088172    0.348794
     86          6           0       -1.768994   -0.744465    0.666594
     87          6           0       -0.361549   -0.091758    0.717963
     88          6           0       -0.810029    1.425577    0.992611
     89          6           0       -2.202640    1.385941    0.366707
     90          6           0       -0.959228    1.751098    2.469463
     91          6           0        0.409415   -0.225635   -0.642081
     92          6           0        1.900178    0.112753   -0.572255
     93          1           0        2.826201   -0.646886   -1.407662
     94          7           0       -5.015173    1.761579   -0.800594
     95          6           0       -4.076616    2.723722   -0.679394
     96          6           0       -4.666000    3.936954   -1.266642
     97          6           0       -6.089778    3.654948   -1.595355
     98          6           0       -6.242831    2.342613   -1.000016
     99          6           0       -3.868639    5.179449   -1.538369
    100          6           0       -7.143335    4.442232   -2.313984
    101          8           0       -8.379128    4.104227   -2.276811
    102          6           0       -6.698875    5.672589   -2.984940
    103          7           0       -6.901806   -0.373250    0.243593
    104          6           0       -7.806681    0.554064   -0.115874
    105          6           0       -9.215042    0.035058    0.050081
    106          6           0       -9.063353   -1.524898    0.368070
    107          6           0       -7.522965   -1.623676    0.421378
    108          6           0      -10.043864    0.699923    1.148895
    109          6           0       -9.835723   -2.509144   -0.552467
    110          6           0       -9.252193   -2.477554   -1.946696
    111          7           0       -4.593991   -2.145221    0.510939
    112          6           0       -5.592130   -3.061239    0.909324
    113          6           0       -4.901339   -4.265323    1.414721
    114          6           0       -3.538292   -3.954773    1.295782
    115          6           0       -3.390126   -2.641538    0.773336
    116          6           0       -5.532738   -5.425886    1.944392
    117          6           0       -2.191157   -4.435234    1.503339
    118          8           0       -1.694207   -5.508520    1.842191
    119          6           0       -1.188125   -3.212871    1.341534
    120          6           0       -0.059938   -3.652767    0.449235
    121          8           0       -0.270152   -3.932267   -0.744208
    122          8           0        1.108085   -3.462585    1.089490
    123          6           0        2.257806   -3.873942    0.240528
    124          1           0       -2.330256    3.536519    0.196823
    125          1           0       -8.343050    2.258185   -0.909422
    126          1           0       -7.512435   -3.639994    1.079622
    127          1           0        0.273121   -0.443314    1.522557
    128          1           0       -0.173092    2.128038    0.461363
    129          1           0       -0.853303    0.872537    3.088378
    130          1           0       -1.949346    2.173883    2.578939
    131          1           0       -0.260281    2.543039    2.753405
    132          1           0        0.069510    0.563132   -1.325493
    133          1           0        0.280467   -1.205845   -1.058245
    134          1           0        2.264399    0.158948    0.461257
    135          1           0        2.043990    1.126947   -0.952697
    136          1           0       -2.892053    5.147773   -1.039681
    137          1           0       -4.394379    6.009173   -1.053577
    138          1           0       -3.775254    5.395177   -2.604858
    139          1           0       -6.244856    6.338294   -2.254763
    140          1           0       -7.575119    6.048228   -3.516887
    141          1           0       -5.914978    5.414413   -3.705683
    142          1           0       -9.781289    0.153620   -0.865565
    143          1           0       -9.429198   -1.772873    1.375293
    144          1           0      -10.989700    1.137748    0.777708
    145          1           0       -9.435120    1.457365    1.624570
    146          1           0      -10.304500    0.053969    1.985563
    147          1           0      -10.879728   -2.200164   -0.645889
    148          1           0       -9.833703   -3.531605   -0.189753
    149          1           0       -9.742763   -1.610962   -2.399958
    150          1           0       -9.492905   -3.392928   -2.483539
    151          1           0       -8.176229   -2.269857   -1.918406
    152          1           0       -5.015205   -6.279593    1.527450
    153          1           0       -6.593522   -5.446410    1.703335
    154          1           0       -5.357421   -5.272933    3.012630
    155          1           0       -0.839400   -2.941064    2.338563
    156          1           0        2.833421   -4.606160    0.815175
    157          1           0        2.772987   -2.935943   -0.039622
    158          1           0        2.040002   -4.435917   -0.660141
 ---------------------------------------------------------------------

 SCF Done:  E(RCAM-B3LYP) =  -4069.75811799     A.U. after   19 cycles

 Excitation energies and oscillator strengths:

 Excited State   1:      Singlet-A      1.6063 eV  771.84 nm  f=0.0561  <S**2>=0.000
     309 -> 315        0.14559
     311 -> 313        0.60542
     312 -> 314       -0.32848
 This state for optimization and/or second-order correction.
 Total Energy, E(TD-HF/TD-DFT) =  -4069.69908609
 Copying the excited state density for this state as the 1-particle RhoCI density.

 Excited State   2:      Singlet-A      1.6955 eV  731.27 nm  f=0.6163  <S**2>=0.000
     310 -> 316        0.15604
     311 -> 313        0.32491
     312 -> 314        0.60207

 Excited State   3:      Singlet-A      2.1560 eV  575.05 nm  f=0.0686  <S**2>=0.000
     309 -> 313        0.61497
     311 -> 315       -0.26921
     312 -> 313        0.19102

 Excited State   4:      Singlet-A      2.1711 eV  571.06 nm  f=0.0366  <S**2>=0.000
     309 -> 313       -0.16580
     310 -> 314       -0.37187
     312 -> 313        0.54528
     312 -> 316        0.15806

 Excited State   5:      Singlet-A      2.1831 eV  567.92 nm  f=0.0870  <S**2>=0.000
     310 -> 314        0.52263
     312 -> 313        0.40495
     312 -> 316       -0.21753

 The electronic state is 1-A.
 Alpha  occ. eigenvalues --  -46.87591 -46.87284 -19.27065 -19.24049 -19.19985
 Alpha  occ. eigenvalues --  -19.19427 -19.19222 -19.18423 -19.17424 -19.17412
 Alpha  occ. eigenvalues --  -14.42562 -14.42140 -14.41781 -14.40974 -14.39507
 Alpha  occ. eigenvalues --  -14.38979 -14.38708 -14.38198 -10.40108 -10.37387
 Alpha  occ. eigenvalues --  -10.35851 -10.35391 -10.35109 -10.33553 -10.32075
 Alpha  occ. eigenvalues --  -10.31764 -10.31491 -10.30890 -10.30889 -10.30780
 Alpha  occ. eigenvalues --  -10.30650 -10.30623 -10.30242 -10.30016 -10.29944
 Alpha  occ. eigenvalues --  -10.29928 -10.29819 -10.29732 -10.29519 -10.29202
 Alpha  occ. eigenvalues --  -10.29090 -10.29027 -10.28847 -10.28814 -10.28668
 Alpha  occ. eigenvalues --  -10.28468 -10.28403 -10.28134 -10.28111 -10.28071
 Alpha  occ. eigenvalues --  -10.28025 -10.27957 -10.27933 -10.27857 -10.27808
 Alpha  occ. eigenvalues --  -10.27789 -10.27741 -10.27588 -10.27298 -10.27239
 Alpha  occ. eigenvalues --  -10.27216 -10.27148 -10.27121 -10.27098 -10.27087
 Alpha  occ. eigenvalues --  -10.27021 -10.26839 -10.26642 -10.26539 -10.26514
 Alpha  occ. eigenvalues --  -10.26427 -10.26213 -10.26141 -10.26123 -10.25897
 Alpha  occ. eigenvalues --  -10.25722 -10.25569 -10.25502 -10.25497 -10.25374
 Alpha  occ. eigenvalues --  -10.25170 -10.25144 -10.25125 -10.24500 -10.24431
 Alpha  occ. eigenvalues --  -10.24304  -3.16412  -3.16035  -1.91303  -1.90917
 Alpha  occ. eigenvalues --   -1.90889  -1.90733  -1.90506  -1.90342  -1.17493
 Alpha  occ. eigenvalues --   -1.14471  -1.09935  -1.07955  -1.07876  -1.07628
 Alpha  occ. eigenvalues --   -1.06682  -1.05158  -1.05096  -1.04129  -1.04109
 Alpha  occ. eigenvalues --   -1.03657  -1.03288  -1.02854  -1.02660  -1.01719
 Alpha  occ. eigenvalues --   -0.92857  -0.91430  -0.89968  -0.89660  -0.89118
 Alpha  occ. eigenvalues --   -0.88910  -0.88673  -0.88334  -0.88089  -0.87890
 Alpha  occ. eigenvalues --   -0.87625  -0.87440  -0.87356  -0.86805  -0.85405
 Alpha  occ. eigenvalues --   -0.84827  -0.84424  -0.83505  -0.83376  -0.83098
 Alpha  occ. eigenvalues --   -0.82648  -0.82416  -0.82213  -0.81215  -0.80728
 Alpha  occ. eigenvalues --   -0.79498  -0.79092  -0.78276  -0.77671  -0.77465
 Alpha  occ. eigenvalues --   -0.77126  -0.76528  -0.76341  -0.75299  -0.75068
 Alpha  occ. eigenvalues --   -0.74162  -0.73196  -0.72345  -0.72125  -0.71126
 Alpha  occ. eigenvalues --   -0.70303  -0.69566  -0.69441  -0.68966  -0.68179
 Alpha  occ. eigenvalues --   -0.67640  -0.67541  -0.67105  -0.65860  -0.65388
 Alpha  occ. eigenvalues --   -0.65118  -0.65006  -0.64719  -0.64390  -0.64011
 Alpha  occ. eigenvalues --   -0.63705  -0.62959  -0.61091  -0.60785  -0.60262
 Alpha  occ. eigenvalues --   -0.60001  -0.59518  -0.59447  -0.58978  -0.58604
 Alpha  occ. eigenvalues --   -0.58513  -0.57906  -0.57822  -0.56952  -0.56858
 Alpha  occ. eigenvalues --   -0.56531  -0.56475  -0.55966  -0.55857  -0.55801
 Alpha  occ. eigenvalues --   -0.55323  -0.55052  -0.54887  -0.54606  -0.54363
 Alpha  occ. eigenvalues --   -0.53867  -0.53743  -0.53709  -0.53592  -0.53431
 Alpha  occ. eigenvalues --   -0.53220  -0.53044  -0.52886  -0.52856  -0.52667
 Alpha  occ. eigenvalues --   -0.52340  -0.52167  -0.52047  -0.51770  -0.51450
 Alpha  occ. eigenvalues --   -0.51390  -0.51348  -0.50932  -0.50794  -0.50425
 Alpha  occ. eigenvalues --   -0.50335  -0.50207  -0.50006  -0.49860  -0.49761
 Alpha  occ. eigenvalues --   -0.49625  -0.49493  -0.49353  -0.49098  -0.49010
 Alpha  occ. eigenvalues --   -0.48967  -0.48844  -0.48608  -0.48302  -0.48180
 Alpha  occ. eigenvalues --   -0.48065  -0.47858  -0.47754  -0.47627  -0.47550
 Alpha  occ. eigenvalues --   -0.47124  -0.46945  -0.46753  -0.46441  -0.46408
 Alpha  occ. eigenvalues --   -0.46189  -0.46048  -0.45887  -0.45712  -0.45566
 Alpha  occ. eigenvalues --   -0.45364  -0.45205  -0.44935  -0.44753  -0.44603
 Alpha  occ. eigenvalues --   -0.44541  -0.44499  -0.44382  -0.44161  -0.44074
 Alpha  occ. eigenvalues --   -0.43879  -0.43836  -0.43746  -0.43436  -0.43399
 Alpha  occ. eigenvalues --   -0.43197  -0.43136  -0.43079  -0.42604  -0.42503
 Alpha  occ. eigenvalues --   -0.42224  -0.42093  -0.41878  -0.41871  -0.41791
 Alpha  occ. eigenvalues --   -0.41444  -0.41320  -0.41238  -0.41079  -0.41015
 Alpha  occ. eigenvalues --   -0.40984  -0.40760  -0.40638  -0.40429  -0.40295
 Alpha  occ. eigenvalues --   -0.40167  -0.40095  -0.39863  -0.39608  -0.39156
 Alpha  occ. eigenvalues --   -0.38809  -0.38203  -0.37973  -0.37858  -0.37462
 Alpha  occ. eigenvalues --   -0.37092  -0.36944  -0.36902  -0.36701  -0.36041
 Alpha  occ. eigenvalues --   -0.35833  -0.34860  -0.34363  -0.34154  -0.33848
 Alpha  occ. eigenvalues --   -0.33063  -0.32878  -0.32166  -0.31724  -0.31407
 Alpha  occ. eigenvalues --   -0.31115  -0.30974  -0.30484  -0.29707  -0.29316
 Alpha  occ. eigenvalues --   -0.29178  -0.28966  -0.28776  -0.24525  -0.23612
 Alpha  occ. eigenvalues --   -0.21405  -0.20749
 Alpha virt. eigenvalues --   -0.09179  -0.08396  -0.02234  -0.01324  -0.00730
 Alpha virt. eigenvalues --    0.00317   0.01111   0.02696   0.03480   0.03850
 Alpha virt. eigenvalues --    0.04032   0.04805   0.05341   0.06098   0.06471

 Mulliken charges:
               1
     1  Mg   0.470865
     2  C   -0.009416
     3  C   -0.090066
     4  C   -0.047262
     5  C   -0.064988
     6  N   -0.245658
     7  C   -0.085211
     8  C   -0.005486
     9  C   -0.081366
    10  C    0.054868
    11  C    0.105348
    12  C    0.045377
    13  C   -0.071306
    14  H    0.040387
    15  N   -0.425057
    16  C    0.169645
    17  C   -0.178098
    18  C   -0.008073
    19  C    0.153112
    20  C    0.111000
    21  C    0.008746
    22  O   -0.249856
    23  C    0.063501
    24  N   -0.322839
    25  C    0.043096
    26  C   -0.026754
    27  C   -0.023939
    28  C    0.077455
    29  C    0.076590
    30  C    0.045161
    31  C   -0.024024
    32  N   -0.280913
    33  C    0.086356
    34  C   -0.160294
    35  C   -0.043411
    36  C    0.068433
    37  C    0.134369
    38  C   -0.016065
    39  O   -0.176772
    40  C    0.022666
    41  C    0.232243
    42  O   -0.256642
    43  O   -0.302279
    44  C    0.152966
    45  H   -0.018419
    46  H   -0.018114
    47  H   -0.041913
    48  H   -0.001735
    49  H   -0.004596
    50  H    0.025408
    51  H    0.017898
    52  H    0.017051
    53  H    0.013003
    54  H    0.048007
    55  H    0.018501
    56  H    0.018948
    57  H    0.006358
    58  H    0.027257
    59  H    0.037965
    60  H    0.038869
    61  H    0.035643
    62  H    0.028926
    63  H    0.014911
    64  H    0.010679
    65  H    0.023508
    66  H    0.013134
    67  H    0.005566
    68  H    0.006884
    69  H    0.005822
    70  H    0.011737
    71  H    0.022423
    72  H    0.031952
    73  H    0.045415
    74  H    0.010768
    75  H    0.047056
    76  H    0.040367
    77  H    0.046127
    78  H    0.048711
    79  H    0.061722
    80  Mg   0.836435
    81  C   -0.014354
    82  C   -0.089397
    83  C   -0.046496
    84  C   -0.066385
    85  N   -0.254080
    86  C   -0.044963
    87  C   -0.033436
    88  C   -0.101373
    89  C    0.045422
    90  C    0.109206
    91  C    0.151253
    92  C   -0.228764
    93  H    0.162025
    94  N   -0.423394
    95  C    0.162019
    96  C   -0.175131
    97  C   -0.008951
    98  C    0.151925
    99  C    0.099440
   100  C    0.014814
   101  O   -0.254195
   102  C    0.061609
   103  N   -0.350430
   104  C    0.037245
   105  C   -0.019490
   106  C   -0.034810
   107  C    0.089545
   108  C    0.074003
   109  C    0.034982
   110  C   -0.007512
   111  N   -0.324148
   112  C    0.079072
   113  C   -0.164115
   114  C    0.003568
   115  C    0.094918
   116  C    0.131526
   117  C    0.040773
   118  O   -0.185325
   119  C    0.007666
   120  C    0.215266
   121  O   -0.249819
   122  O   -0.317754
   123  C    0.209617
   124  H   -0.017840
   125  H   -0.016768
   126  H   -0.041355
   127  H    0.005850
   128  H    0.005587
   129  H    0.027398
   130  H    0.011639
   131  H    0.023544
   132  H    0.005806
   133  H    0.042382
   134  H    0.153292
   135  H    0.137620
   136  H    0.008237
   137  H    0.025758
   138  H    0.036847
   139  H    0.037914
   140  H    0.035284
   141  H    0.032621
   142  H    0.013606
   143  H    0.011833
   144  H    0.024256
   145  H    0.011563
   146  H    0.004963
   147  H    0.005476
   148  H    0.003350
   149  H    0.010439
   150  H    0.017256
   151  H    0.030650
   152  H    0.046472
   153  H    0.007503
   154  H    0.046128
   155  H    0.030677
   156  H    0.047889
   157  H    0.027741
   158  H    0.066126
 Sum of Mulliken charges =  -0.00000

 Dipole moment (field-independent basis, Debye):
    X=              3.8482    Y=              6.2232    Z=             -2.3932  Tot=              7.6983
 Quadrupole moment (field-independent basis, Debye-Ang):
   XX=           -493.0176   YY=           -545.9735   ZZ=           -471.6291
   XY=             28.3587   XZ=            -25.8118   YZ=             -9.1622

 Normal termination of Gaussian 16 at Thu Sep  9 23:19:04 2021.
