 Gaussian 16, Revision A.03,
 Gaussian 16:  ES64L-G16RevA.03 25-Dec-2016

 -----------------------------------
 #p cam-b3lyp/Def2SVP td=(nstates=5)
 -----------------------------------

 --------------------------------
 TDDFT excited states in gaussian
 --------------------------------
 Symbolic Z-matrix:
 Charge =  0 Multiplicity = 1

                         Standard orientation:
 ---------------------------------------------------------------------
 Center     Atomic      Atomic             Coordinates (Angstroms)
 Number     Number       Type             X           Y           Z
 ---------------------------------------------------------------------
      1         12           0       -6.315345    0.698622   -0.060370
      2          6           0       -6.664824   -2.412637    1.674608
      3          6           0       -7.178557    2.249946    2.853618
      4          6           0       -6.456826    3.422011   -1.678935
      5          6           0       -6.597873   -1.096965   -3.033871
      6          7           0       -6.831126   -0.089778    1.942888
      7          6           0       -6.869872   -1.299444    2.492777
      8          6           0       -7.074303   -1.269856    4.037027
      9          6           0       -7.775435    0.155801    4.170863
     10          6           0       -7.201083    0.825911    2.935146
     11          6           0       -9.294142    0.102584    4.039712
     12          6           0       -5.717602   -1.316579    4.817355
     13          6           0       -5.834760   -1.619235    6.314027
     14          1           0       -4.798967   -2.419350    6.949870
     15          7           0       -6.273790    2.569303    0.573409
     16          6           0       -6.645822    3.018566    1.796127
     17          6           0       -6.429784    4.481304    1.775986
     18          6           0       -6.081861    4.870709    0.381207
     19          6           0       -6.285164    3.624044   -0.311521
     20          6           0       -6.510989    5.341962    2.999269
     21          6           0       -5.646902    6.164092   -0.232066
     22          8           0       -5.620441    6.341724   -1.497894
     23          6           0       -5.333047    7.261007    0.701376
     24          7           0       -6.719928    1.143030   -2.059482
     25          6           0       -6.659184    2.399882   -2.512931
     26          6           0       -6.705181    2.442473   -4.011600
     27          6           0       -6.565027    0.929118   -4.501360
     28          6           0       -6.543724    0.234251   -3.117533
     29          6           0       -7.968214    3.062501   -4.625053
     30          6           0       -5.423657    0.616476   -5.501335
     31          6           0       -4.083920    0.790401   -4.821665
     32          7           0       -6.406358   -1.395695   -0.623041
     33          6           0       -6.546266   -1.915512   -1.917989
     34          6           0       -6.668643   -3.378882   -1.785170
     35          6           0       -6.607663   -3.608699   -0.412104
     36          6           0       -6.483134   -2.365339    0.271155
     37          6           0       -6.872233   -4.298346   -2.851740
     38          6           0       -6.643501   -4.613427    0.638179
     39          8           0       -6.641571   -5.845090    0.660413
     40          6           0       -6.804489   -3.870202    2.037296
     41          6           0       -5.794237   -4.459224    2.983738
     42          8           0       -4.571380   -4.291580    2.799669
     43          8           0       -6.423647   -4.919491    4.075773
     44          6           0       -5.475149   -5.490697    5.068863
     45          1           0       -7.664072    2.831388    3.639837
     46          1           0       -6.400348    4.329184   -2.284149
     47          1           0       -6.604123   -1.729784   -3.923226
     48          1           0       -7.734199   -2.046971    4.423102
     49          1           0       -7.457405    0.682889    5.070173
     50          1           0       -9.634156   -0.890598    3.746627
     51          1           0       -9.545669    0.833365    3.270826
     52          1           0       -9.774380    0.452239    4.953983
     53          1           0       -5.294801   -0.313002    4.863556
     54          1           0       -5.032597   -2.029961    4.357813
     55          1           0       -6.823366   -2.003545    6.566760
     56          1           0       -5.762346   -0.678246    6.859460
     57          1           0       -6.946208    4.803061    3.839933
     58          1           0       -7.227721    6.134254    2.784144
     59          1           0       -5.546532    5.779090    3.258256
     60          1           0       -6.211597    7.478951    1.308993
     61          1           0       -4.954811    8.078427    0.088504
     62          1           0       -4.558198    6.926354    1.391713
     63          1           0       -5.876823    3.025614   -4.411846
     64          1           0       -7.464941    0.577755   -5.006704
     65          1           0       -7.765056    3.901834   -5.290599
     66          1           0       -8.627402    3.360260   -3.810129
     67          1           0       -8.601203    2.363891   -5.171575
     68          1           0       -5.451503    1.313222   -6.338423
     69          1           0       -5.472943   -0.393435   -5.908645
     70          1           0       -3.904618    1.861525   -4.907548
     71          1           0       -3.314739    0.222510   -5.346136
     72          1           0       -4.142950    0.554071   -3.759050
     73          1           0       -6.208485   -5.141080   -2.658850
     74          1           0       -6.659031   -3.838971   -3.816686
     75          1           0       -7.930110   -4.526493   -2.722504
     76          1           0       -7.827320   -4.045285    2.369386
     77          1           0       -5.797883   -6.512222    5.270266
     78          1           0       -5.447458   -4.794259    5.907083
     79          1           0       -4.456394   -5.661874    4.719326
     80         12           0        6.892942    0.196223    0.153518
     81          6           0        4.937016   -1.619194   -2.246001
     82          6           0        5.674513    3.059980   -1.242520
     83          6           0        8.940470    1.824705    1.948810
     84          6           0        8.791029   -2.694392    0.586346
     85          7           0        5.492566    0.545739   -1.522502
     86          6           0        4.764630   -0.221258   -2.320098
     87          6           0        3.738862    0.549802   -3.193501
     88          6           0        4.464000    1.982575   -3.207607
     89          6           0        5.234475    1.879540   -1.892912
     90          6           0        5.467327    2.138187   -4.338295
     91          6           0        2.322740    0.629306   -2.522475
     92          6           0        1.197308    1.094870   -3.448980
     93          1           0       -0.131557    0.514653   -3.275966
     94          7           0        6.907041    2.112697    0.668765
     95          6           0        6.343537    3.139658   -0.001384
     96          6           0        6.652856    4.347542    0.779309
     97          6           0        7.584572    3.970825    1.876908
     98          6           0        7.869444    2.595385    1.520412
     99          6           0        6.018917    5.679806    0.502531
    100          6           0        8.138773    4.727616    3.045808
    101          8           0        9.117897    4.274893    3.738036
    102          6           0        7.563236    6.056619    3.298797
    103          7           0        8.743512   -0.283890    0.970357
    104          6           0        9.399717    0.588111    1.755808
    105          6           0       10.567633   -0.073132    2.447988
    106          6           0       10.414132   -1.636923    2.150356
    107          6           0        9.179968   -1.598006    1.222607
    108          6           0       11.954233    0.394930    2.006819
    109          6           0       10.386016   -2.587628    3.378378
    110          6           0        9.125073   -2.358031    4.180056
    111          7           0        6.781455   -1.853253   -0.521220
    112          6           0        7.694465   -2.893860   -0.242595
    113          6           0        7.257563   -4.074844   -1.015141
    114          6           0        6.124965   -3.629094   -1.713021
    115          6           0        5.885555   -2.260758   -1.413280
    116          6           0        7.914181   -5.337361   -1.047260
    117          6           0        5.083730   -4.001973   -2.643325
    118          8           0        4.727416   -5.054085   -3.172324
    119          6           0        4.342407   -2.682044   -3.127704
    120          6           0        2.860252   -2.921051   -3.034804
    121          8           0        2.315896   -3.093641   -1.930049
    122          8           0        2.300671   -2.691158   -4.236631
    123          6           0        0.829491   -2.904407   -4.192442
    124          1           0        5.532272    4.015116   -1.748848
    125          1           0        9.615216    2.308405    2.658907
    126          1           0        9.272565   -3.662016    0.742831
    127          1           0        3.632529    0.176919   -4.205145
    128          1           0        3.740093    2.792099   -3.162869
    129          1           0        5.613849    1.213802   -4.876975
    130          1           0        6.390741    2.454092   -3.870776
    131          1           0        5.167793    2.957610   -4.997956
    132          1           0        2.317507    1.449836   -1.793475
    133          1           0        2.058843   -0.310214   -2.077187
    134          1           0        1.494286    1.067197   -4.504429
    135          1           0        1.001620    2.151943   -3.253244
    136          1           0        5.504485    5.686979   -0.466336
    137          1           0        6.833154    6.402727    0.383095
    138          1           0        5.366938    6.012555    1.313016
    139          1           0        7.698823    6.682181    2.419736
    140          1           0        8.023758    6.402794    4.226142
    141          1           0        6.482635    5.948008    3.444141
    142          1           0       10.523881    0.086831    3.518312
    143          1           0       11.249404   -2.020625    1.546253
    144          1           0       12.570919    0.779605    2.840962
    145          1           0       11.832123    1.151984    1.243609
    146          1           0       12.553488   -0.355515    1.494051
    147          1           0       11.222671   -2.368379    4.046279
    148          1           0       10.452081   -3.637582    3.113382
    149          1           0        9.383342   -1.498169    4.805382
    150          1           0        8.892222   -3.231160    4.786233
    151          1           0        8.295304   -2.055881    3.530555
    152          1           0        7.141870   -6.091820   -0.977739
    153          1           0        8.636151   -5.430694   -0.238667
    154          1           0        8.398721   -5.280357   -2.025643
    155          1           0        4.661747   -2.483936   -4.151591
    156          1           0        0.589182   -3.635893   -4.970172
    157          1           0        0.378802   -1.898872   -4.290129
    158          1           0        0.419295   -3.387753   -3.313479
 ---------------------------------------------------------------------

 SCF Done:  E(RCAM-B3LYP) =  -4069.81133344     A.U. after   19 cycles

 Excitation energies and oscillator strengths:

 Excited State   1:      Singlet-A      1.6645 eV  744.86 nm  f=0.0086  <S**2>=0.000
     309 -> 315       -0.11107
     310 -> 316       -0.12966
     311 -> 313       -0.44564
     312 -> 314        0.52244
 This state for optimization and/or second-order correction.
 Total Energy, E(TD-HF/TD-DFT) =  -4069.75016292
 Copying the excited state density for this state as the 1-particle RhoCI density.

 Excited State   2:      Singlet-A      1.6900 eV  733.63 nm  f=0.7317  <S**2>=0.000
     309 -> 315        0.13512
     310 -> 316       -0.11484
     311 -> 313        0.52113
     312 -> 314        0.44465

 Excited State   3:      Singlet-A      2.1845 eV  567.57 nm  f=0.0720  <S**2>=0.000
     309 -> 313        0.18892
     310 -> 314        0.61468
     312 -> 316        0.25984

 Excited State   4:      Singlet-A      2.1921 eV  565.59 nm  f=0.1245  <S**2>=0.000
     309 -> 313        0.61244
     310 -> 314       -0.18750
     311 -> 315       -0.26580

 Excited State   5:      Singlet-A      2.6605 eV  466.01 nm  f=0.0000  <S**2>=0.000
     312 -> 313        0.70694

 The electronic state is 1-A.
 Alpha  occ. eigenvalues --  -46.87825 -46.87541 -19.26162 -19.26122 -19.18915
 Alpha  occ. eigenvalues --  -19.18893 -19.18892 -19.18629 -19.18138 -19.17900
 Alpha  occ. eigenvalues --  -14.42470 -14.42376 -14.41490 -14.41243 -14.39435
 Alpha  occ. eigenvalues --  -14.39236 -14.38607 -14.38476 -10.38964 -10.38859
 Alpha  occ. eigenvalues --  -10.35529 -10.35310 -10.34355 -10.34074 -10.31534
 Alpha  occ. eigenvalues --  -10.31513 -10.31410 -10.31177 -10.30920 -10.30899
 Alpha  occ. eigenvalues --  -10.30586 -10.30542 -10.30279 -10.30270 -10.30233
 Alpha  occ. eigenvalues --  -10.30040 -10.29964 -10.29779 -10.29662 -10.29329
 Alpha  occ. eigenvalues --  -10.29295 -10.29283 -10.28721 -10.28574 -10.28464
 Alpha  occ. eigenvalues --  -10.28460 -10.28380 -10.28281 -10.28102 -10.28005
 Alpha  occ. eigenvalues --  -10.27881 -10.27812 -10.27750 -10.27621 -10.27605
 Alpha  occ. eigenvalues --  -10.27550 -10.27543 -10.27525 -10.27427 -10.27415
 Alpha  occ. eigenvalues --  -10.27378 -10.27357 -10.27353 -10.27285 -10.27113
 Alpha  occ. eigenvalues --  -10.26887 -10.26641 -10.26514 -10.26513 -10.26360
 Alpha  occ. eigenvalues --  -10.26350 -10.26223 -10.26069 -10.26052 -10.25908
 Alpha  occ. eigenvalues --  -10.25856 -10.25822 -10.25727 -10.25519 -10.25320
 Alpha  occ. eigenvalues --  -10.24922 -10.24844 -10.24828 -10.24748 -10.24643
 Alpha  occ. eigenvalues --  -10.24575  -3.16568  -3.16290  -1.91449  -1.91173
 Alpha  occ. eigenvalues --   -1.91036  -1.90878  -1.90761  -1.90598  -1.16511
 Alpha  occ. eigenvalues --   -1.16414  -1.08586  -1.08498  -1.07298  -1.06884
 Alpha  occ. eigenvalues --   -1.06707  -1.06518  -1.04597  -1.04371  -1.03797
 Alpha  occ. eigenvalues --   -1.03545  -1.03265  -1.02923  -1.02441  -1.01993
 Alpha  occ. eigenvalues --   -0.91973  -0.91852  -0.89597  -0.89385  -0.89172
 Alpha  occ. eigenvalues --   -0.89013  -0.88362  -0.88118  -0.87886  -0.87691
 Alpha  occ. eigenvalues --   -0.87669  -0.87560  -0.87322  -0.87022  -0.84978
 Alpha  occ. eigenvalues --   -0.84863  -0.84025  -0.83771  -0.83044  -0.82845
 Alpha  occ. eigenvalues --   -0.82655  -0.82524  -0.81551  -0.81433  -0.80597
 Alpha  occ. eigenvalues --   -0.80301  -0.78833  -0.78526  -0.77258  -0.77022
 Alpha  occ. eigenvalues --   -0.76926  -0.76757  -0.75907  -0.75696  -0.74950
 Alpha  occ. eigenvalues --   -0.74691  -0.72804  -0.72580  -0.71692  -0.71459
 Alpha  occ. eigenvalues --   -0.70025  -0.69660  -0.68879  -0.68695  -0.67665
 Alpha  occ. eigenvalues --   -0.67477  -0.67212  -0.67063  -0.65278  -0.65128
 Alpha  occ. eigenvalues --   -0.64868  -0.64643  -0.64630  -0.64509  -0.64331
 Alpha  occ. eigenvalues --   -0.64092  -0.62252  -0.62105  -0.60495  -0.60237
 Alpha  occ. eigenvalues --   -0.59802  -0.59664  -0.59011  -0.58868  -0.58522
 Alpha  occ. eigenvalues --   -0.58294  -0.57555  -0.57387  -0.57332  -0.57117
 Alpha  occ. eigenvalues --   -0.56332  -0.56082  -0.55915  -0.55714  -0.55553
 Alpha  occ. eigenvalues --   -0.55377  -0.55325  -0.55118  -0.54525  -0.54341
 Alpha  occ. eigenvalues --   -0.53878  -0.53770  -0.53340  -0.53230  -0.53113
 Alpha  occ. eigenvalues --   -0.53008  -0.52914  -0.52793  -0.52749  -0.52567
 Alpha  occ. eigenvalues --   -0.52547  -0.52300  -0.51925  -0.51755  -0.51608
 Alpha  occ. eigenvalues --   -0.51522  -0.51209  -0.51065  -0.50642  -0.50390
 Alpha  occ. eigenvalues --   -0.50122  -0.49960  -0.49867  -0.49769  -0.49525
 Alpha  occ. eigenvalues --   -0.49371  -0.49220  -0.49085  -0.49066  -0.48969
 Alpha  occ. eigenvalues --   -0.48588  -0.48516  -0.48459  -0.48410  -0.48270
 Alpha  occ. eigenvalues --   -0.48225  -0.47719  -0.47471  -0.47324  -0.47004
 Alpha  occ. eigenvalues --   -0.46835  -0.46587  -0.46540  -0.46417  -0.46394
 Alpha  occ. eigenvalues --   -0.46175  -0.46152  -0.45952  -0.45800  -0.45671
 Alpha  occ. eigenvalues --   -0.45267  -0.45102  -0.44570  -0.44561  -0.44375
 Alpha  occ. eigenvalues --   -0.44350  -0.44208  -0.44087  -0.44015  -0.44002
 Alpha  occ. eigenvalues --   -0.43963  -0.43814  -0.43472  -0.43410  -0.43391
 Alpha  occ. eigenvalues --   -0.43250  -0.43045  -0.42789  -0.42783  -0.42716
 Alpha  occ. eigenvalues --   -0.42587  -0.42451  -0.42063  -0.41842  -0.41714
 Alpha  occ. eigenvalues --   -0.41535  -0.41531  -0.41324  -0.41159  -0.40904
 Alpha  occ. eigenvalues --   -0.40882  -0.40868  -0.40624  -0.40616  -0.40574
 Alpha  occ. eigenvalues --   -0.40381  -0.40202  -0.40079  -0.39573  -0.39329
 Alpha  occ. eigenvalues --   -0.38535  -0.38242  -0.37728  -0.37500  -0.37377
 Alpha  occ. eigenvalues --   -0.37251  -0.37152  -0.37060  -0.36671  -0.36576
 Alpha  occ. eigenvalues --   -0.36170  -0.36070  -0.34309  -0.34129  -0.33673
 Alpha  occ. eigenvalues --   -0.33637  -0.33201  -0.33048  -0.31422  -0.31187
 Alpha  occ. eigenvalues --   -0.31058  -0.30850  -0.29994  -0.29801  -0.29484
 Alpha  occ. eigenvalues --   -0.29336  -0.29216  -0.29086  -0.24105  -0.23914
 Alpha  occ. eigenvalues --   -0.21158  -0.21000
 Alpha virt. eigenvalues --   -0.08803  -0.08674  -0.01789  -0.01570  -0.00094
 Alpha virt. eigenvalues --    0.00080   0.02192   0.02337   0.03025   0.03361
 Alpha virt. eigenvalues --    0.04708   0.04823   0.05199   0.05383   0.06114

 Mulliken charges:
               1
     1  Mg   0.838836
     2  C   -0.002157
     3  C   -0.093788
     4  C   -0.046487
     5  C   -0.064817
     6  N   -0.256712
     7  C   -0.052120
     8  C   -0.014063
     9  C   -0.087021
    10  C    0.046337
    11  C    0.104808
    12  C    0.053398
    13  C   -0.072063
    14  H    0.037216
    15  N   -0.433058
    16  C    0.168239
    17  C   -0.177163
    18  C   -0.004438
    19  C    0.148587
    20  C    0.110152
    21  C    0.011640
    22  O   -0.250441
    23  C    0.062712
    24  N   -0.341067
    25  C    0.041125
    26  C   -0.028093
    27  C   -0.023949
    28  C    0.074703
    29  C    0.076172
    30  C    0.035435
    31  C   -0.005337
    32  N   -0.310634
    33  C    0.080484
    34  C   -0.169852
    35  C    0.009008
    36  C    0.083453
    37  C    0.127110
    38  C    0.047012
    39  O   -0.187200
    40  C   -0.005646
    41  C    0.212819
    42  O   -0.255313
    43  O   -0.305234
    44  C    0.157290
    45  H   -0.017521
    46  H   -0.017460
    47  H   -0.041903
    48  H    0.001198
    49  H   -0.003901
    50  H    0.025582
    51  H    0.016206
    52  H    0.016723
    53  H    0.011125
    54  H    0.045188
    55  H    0.017694
    56  H    0.017706
    57  H    0.006145
    58  H    0.026700
    59  H    0.039141
    60  H    0.037718
    61  H    0.034852
    62  H    0.031022
    63  H    0.015617
    64  H    0.009805
    65  H    0.022866
    66  H    0.012891
    67  H    0.004884
    68  H    0.006367
    69  H    0.004693
    70  H    0.008726
    71  H    0.016133
    72  H    0.029313
    73  H    0.048410
    74  H    0.008395
    75  H    0.046305
    76  H    0.035170
    77  H    0.043012
    78  H    0.046129
    79  H    0.055080
    80  Mg   0.838033
    81  C   -0.016255
    82  C   -0.087743
    83  C   -0.045751
    84  C   -0.065115
    85  N   -0.254518
    86  C   -0.049633
    87  C   -0.015057
    88  C   -0.090527
    89  C    0.045720
    90  C    0.114411
    91  C    0.062469
    92  C   -0.079242
    93  H    0.037012
    94  N   -0.423395
    95  C    0.162729
    96  C   -0.174857
    97  C   -0.008155
    98  C    0.152046
    99  C    0.099447
   100  C    0.015313
   101  O   -0.253555
   102  C    0.061339
   103  N   -0.350122
   104  C    0.037437
   105  C   -0.019718
   106  C   -0.034857
   107  C    0.089081
   108  C    0.073778
   109  C    0.034775
   110  C   -0.007624
   111  N   -0.324252
   112  C    0.078763
   113  C   -0.162933
   114  C    0.002475
   115  C    0.096546
   116  C    0.131373
   117  C    0.042983
   118  O   -0.187147
   119  C    0.000705
   120  C    0.211199
   121  O   -0.248941
   122  O   -0.306398
   123  C    0.151152
   124  H   -0.019792
   125  H   -0.015957
   126  H   -0.040562
   127  H   -0.000841
   128  H   -0.004079
   129  H    0.022275
   130  H    0.014176
   131  H    0.016119
   132  H    0.013823
   133  H    0.038824
   134  H    0.019881
   135  H    0.020118
   136  H    0.008897
   137  H    0.025807
   138  H    0.039167
   139  H    0.038185
   140  H    0.035905
   141  H    0.033507
   142  H    0.014152
   143  H    0.012256
   144  H    0.024823
   145  H    0.011563
   146  H    0.005484
   147  H    0.005955
   148  H    0.003677
   149  H    0.010637
   150  H    0.017913
   151  H    0.030461
   152  H    0.046616
   153  H    0.008359
   154  H    0.046722
   155  H    0.034590
   156  H    0.043112
   157  H    0.048456
   158  H    0.056882
 Sum of Mulliken charges =  -0.00000

 Dipole moment (field-independent basis, Debye):
    X=             -2.0282    Y=              7.1155    Z=              1.3170  Tot=              7.5152
 Quadrupole moment (field-independent basis, Debye-Ang):
   XX=           -478.8789   YY=           -539.8384   ZZ=           -470.8130
   XY=            -20.2390   XZ=            -22.9688   YZ=             -7.5522

 Normal termination of Gaussian 16 at Sat Sep 11 09:25:32 2021.
