 Gaussian 16, Revision A.03,
 Gaussian 16:  ES64L-G16RevA.03 25-Dec-2016

 -----------------------------------
 #p cam-b3lyp/Def2SVP td=(nstates=5)
 -----------------------------------

 --------------------------------
 TDDFT excited states in gaussian
 --------------------------------
 Symbolic Z-matrix:
 Charge =  0 Multiplicity = 1

                         Standard orientation:
 ---------------------------------------------------------------------
 Center     Atomic      Atomic             Coordinates (Angstroms)
 Number     Number       Type             X           Y           Z
 ---------------------------------------------------------------------
      1         12           0       16.033083    0.570758    0.172360
      2          6           0       16.205139   -2.945842   -0.472724
      3          6           0       16.904372    1.060911   -3.090103
      4          6           0       16.331403    3.658822    0.829237
      5          6           0       16.296312   -0.188116    3.563596
      6          7           0       16.470646   -0.842943   -1.474039
      7          6           0       16.443140   -2.165414   -1.606273
      8          6           0       16.616332   -2.642770   -3.079199
      9          6           0       17.378252   -1.371908   -3.667745
     10          6           0       16.860777   -0.313331   -2.709854
     11          6           0       18.895412   -1.455427   -3.534499
     12          6           0       15.242871   -2.869988   -3.795933
     13          6           0       15.314872   -3.642029   -5.116586
     14          1           0       14.230880   -4.551439   -5.456117
     15          7           0       16.062896    2.139035   -1.028669
     16          6           0       16.429186    2.153453   -2.332858
     17          6           0       16.279975    3.554204   -2.782649
     18          6           0       15.979285    4.387056   -1.585136
     19          6           0       16.140468    3.419922   -0.529651
     20          6           0       16.374388    3.971983   -4.218022
     21          6           0       15.616181    5.828669   -1.417681
     22          8           0       15.624280    6.403930   -0.275935
     23          6           0       15.332775    6.582440   -2.652408
     24          7           0       16.499100    1.612157    1.920489
     25          6           0       16.504751    2.949424    1.946354
     26          6           0       16.583985    3.468029    3.351597
     27          6           0       16.385831    2.200562    4.302394
     28          6           0       16.304172    1.100580    3.215360
     29          6           0       17.886324    4.188658    3.726589
     30          6           0       15.252673    2.282057    5.355832
     31          6           0       13.908238    2.294985    4.663428
     32          7           0       16.041067   -1.234305    1.377652
     33          6           0       16.184403   -1.317658    2.770197
     34          6           0       16.237682   -2.750501    3.113986
     35          6           0       16.137648   -3.405180    1.887922
     36          6           0       16.055190   -2.442039    0.842049
     37          6           0       16.421771   -3.288269    4.418345
     38          6           0       16.106030   -4.694126    1.216002
     39          8           0       16.047947   -5.866179    1.590717
     40          6           0       16.271137   -4.447765   -0.348566
     41          6           0       15.215697   -5.258373   -1.050186
     42          8           0       14.005792   -4.980191   -0.923269
     43          8           0       15.800657   -6.075114   -1.939736
     44          6           0       14.806724   -6.886889   -2.691582
     45          1           0       17.399117    1.334711   -4.024021
     46          1           0       16.328679    4.713789    1.111153
     47          1           0       16.292557   -0.501802    4.609082
     48          1           0       17.232191   -3.534334   -3.198588
     49          1           0       17.065625   -1.145979   -4.687031
     50          1           0       19.196232   -2.317726   -2.939631
     51          1           0       19.195762   -0.530081   -3.042546
     52          1           0       19.371726   -1.441674   -4.515169
     53          1           0       14.865004   -1.914585   -4.159913
     54          1           0       14.536080   -3.363466   -3.127912
     55          1           0       16.279583   -4.135568   -5.237664
     56          1           0       15.273678   -2.923280   -5.935062
     57          1           0       16.767105    3.171094   -4.843239
     58          1           0       17.130555    4.754883   -4.272687
     59          1           0       15.425473    4.350186   -4.598618
     60          1           0       16.207370    6.550214   -3.302480
     61          1           0       15.004796    7.570906   -2.332696
     62          1           0       14.529308    6.082903   -3.194489
     63          1           0       15.791400    4.189006    3.547626
     64          1           0       17.279318    1.985683    4.889064
     65          1           0       17.735298    5.206069    4.088212
     66          1           0       18.541099    4.176317    2.855722
     67          1           0       18.498379    3.671751    4.465245
     68          1           0       15.329509    3.208162    5.924490
     69          1           0       15.264761    1.454968    6.065782
     70          1           0       13.779387    3.344575    4.401531
     71          1           0       13.125313    1.964117    5.346631
     72          1           0       13.934267    1.727756    3.732805
     73          1           0       15.716706   -4.114376    4.509993
     74          1           0       16.249802   -2.533746    5.185629
     75          1           0       17.465313   -3.597924    4.363667
     76          1           0       17.277831   -4.770543   -0.612203
     77          1           0       15.078655   -7.933715   -2.555774
     78          1           0       14.793012   -6.495566   -3.708972
     79          1           0       13.788811   -6.886242   -2.300184
     80         12           0      -15.726268    0.834555    0.247871
     81          6           0      -17.379743   -2.345450    0.067099
     82          6           0      -16.725608    1.369121   -2.969288
     83          6           0      -13.906913    3.433894    0.219532
     84          6           0      -13.930304   -0.409778    2.962995
     85          7           0      -16.897589   -0.402684   -1.162629
     86          6           0      -17.526116   -1.566882   -1.099874
     87          6           0      -18.423706   -1.880191   -2.326969
     88          6           0      -17.687215   -0.948372   -3.407790
     89          6           0      -17.091866    0.095579   -2.465245
     90          6           0      -16.546246   -1.647930   -4.127614
     91          6           0      -19.912900   -1.437677   -2.106767
     92          6           0      -20.905873   -1.988603   -3.132563
     93          1           0      -22.252148   -2.332172   -2.683170
     94          7           0      -15.757241    2.410733   -0.957642
     95          6           0      -16.219515    2.457136   -2.224696
     96          6           0      -15.999228    3.837557   -2.683032
     97          6           0      -15.219242    4.558964   -1.640961
     98          6           0      -14.906136    3.466075   -0.742269
     99          6           0      -16.578229    4.373029   -3.960306
    100          6           0      -14.810486    5.992555   -1.486274
    101          8           0      -13.932595    6.353236   -0.624842
    102          6           0      -15.399160    6.948237   -2.435813
    103          7           0      -14.000300    1.358852    1.281541
    104          6           0      -13.440216    2.570804    1.122083
    105          6           0      -12.377355    2.822013    2.164966
    106          6           0      -12.508565    1.619057    3.210553
    107          6           0      -13.613833    0.796510    2.512570
    108          6           0      -10.940821    2.891677    1.647370
    109          6           0      -12.703359    2.002085    4.703208
    110          6           0      -14.053691    2.653614    4.896863
    111          7           0      -15.772978   -0.957443    1.453950
    112          6           0      -14.914286   -1.287104    2.525421
    113          6           0      -15.261861   -2.656747    2.956363
    114          6           0      -16.291299   -3.040614    2.083781
    115          6           0      -16.552158   -1.992415    1.160354
    116          6           0      -14.620224   -3.390459    3.993705
    117          6           0      -17.209369   -4.098263    1.727111
    118          8           0      -17.506677   -5.190089    2.210085
    119          6           0      -17.868526   -3.743760    0.324885
    120          6           0      -19.352911   -3.956584    0.442351
    121          8           0      -20.035565   -3.244416    1.199589
    122          8           0      -19.752124   -4.814423   -0.514266
    123          6           0      -21.219162   -5.048799   -0.445687
    124          1           0      -16.791762    1.540335   -4.044087
    125          1           0      -13.323035    4.351335    0.323718
    126          1           0      -13.483164   -0.831729    3.865596
    127          1           0      -18.404183   -2.913486   -2.652061
    128          1           0      -18.402112   -0.487544   -4.084501
    129          1           0      -16.342237   -2.621914   -3.708238
    130          1           0      -15.686642   -1.000182   -4.015616
    131          1           0      -16.750314   -1.695000   -5.201149
    132          1           0      -20.002173   -0.364032   -2.316683
    133          1           0      -20.241599   -1.685750   -1.116293
    134          1           0      -20.477026   -2.807579   -3.722746
    135          1           0      -21.113463   -1.208025   -3.868510
    136          1           0      -16.964779    3.566754   -4.595842
    137          1           0      -15.747627    4.797203   -4.534806
    138          1           0      -17.324598    5.151963   -3.790448
    139          1           0      -15.145792    6.651409   -3.450776
    140          1           0      -15.056938    7.932392   -2.109925
    141          1           0      -16.490580    6.894174   -2.355277
    142          1           0      -12.555522    3.757348    2.681209
    143          1           0      -11.607271    0.988665    3.221598
    144          1           0      -10.431428    3.840783    1.899943
    145          1           0      -10.956387    2.741872    0.575993
    146          1           0      -10.289222    2.087009    1.983713
    147          1           0      -11.956394    2.740255    5.005369
    148          1           0      -12.615415    1.159129    5.380469
    149          1           0      -13.867984    3.694607    4.615909
    150          1           0      -14.371395    2.575533    5.934651
    151          1           0      -14.790523    2.248763    4.193427
    152          1           0      -15.403209   -3.869187    4.566631
    153          1           0      -14.008327   -2.743236    4.618559
    154          1           0      -14.014261   -4.079427    3.399212
    155          1           0      -17.419072   -4.397998   -0.423136
    156          1           0      -21.366219   -6.129628   -0.356959
    157          1           0      -21.642789   -4.554563   -1.340120
    158          1           0      -21.743314   -4.691212    0.432860
 ---------------------------------------------------------------------

 SCF Done:  E(RCAM-B3LYP) =  -4069.81177087     A.U. after   19 cycles

 Excitation energies and oscillator strengths:

 Excited State   1:      Singlet-A      1.6753 eV  740.08 nm  f=0.2130  <S**2>=0.000
     310 -> 316        0.16865
     311 -> 313        0.66675
     312 -> 314       -0.16163
     310 <- 316        0.10168
 This state for optimization and/or second-order correction.
 Total Energy, E(TD-HF/TD-DFT) =  -4069.75020531
 Copying the excited state density for this state as the 1-particle RhoCI density.

 Excited State   2:      Singlet-A      1.6801 eV  737.95 nm  f=0.5644  <S**2>=0.000
     309 -> 315        0.17067
     311 -> 313        0.16158
     312 -> 314        0.66638
     309 <- 315        0.10218

 Excited State   3:      Singlet-A      2.1861 eV  567.15 nm  f=0.0986  <S**2>=0.000
     310 -> 313        0.64226
     311 -> 316       -0.27302

 Excited State   4:      Singlet-A      2.1925 eV  565.48 nm  f=0.1021  <S**2>=0.000
     309 -> 314        0.64048
     312 -> 315       -0.27821

 Excited State   5:      Singlet-A      3.0637 eV  404.69 nm  f=0.0000  <S**2>=0.000
     312 -> 313        0.70711

 The electronic state is 1-A.
 Alpha  occ. eigenvalues --  -46.87784 -46.87660 -19.26350 -19.26272 -19.19161
 Alpha  occ. eigenvalues --  -19.19007 -19.18803 -19.18715 -19.18157 -19.18051
 Alpha  occ. eigenvalues --  -14.42498 -14.42438 -14.41437 -14.41358 -14.39391
 Alpha  occ. eigenvalues --  -14.39352 -14.38599 -14.38574 -10.39091 -10.39067
 Alpha  occ. eigenvalues --  -10.35436 -10.35392 -10.34377 -10.34228 -10.31757
 Alpha  occ. eigenvalues --  -10.31667 -10.31393 -10.31309 -10.31024 -10.30897
 Alpha  occ. eigenvalues --  -10.30558 -10.30495 -10.30397 -10.30360 -10.30195
 Alpha  occ. eigenvalues --  -10.30140 -10.29908 -10.29893 -10.29618 -10.29436
 Alpha  occ. eigenvalues --  -10.29401 -10.29242 -10.28737 -10.28720 -10.28656
 Alpha  occ. eigenvalues --  -10.28527 -10.28405 -10.28353 -10.28142 -10.28105
 Alpha  occ. eigenvalues --  -10.28001 -10.27781 -10.27715 -10.27669 -10.27572
 Alpha  occ. eigenvalues --  -10.27514 -10.27489 -10.27484 -10.27470 -10.27469
 Alpha  occ. eigenvalues --  -10.27465 -10.27437 -10.27391 -10.27372 -10.27146
 Alpha  occ. eigenvalues --  -10.27050 -10.26694 -10.26693 -10.26417 -10.26398
 Alpha  occ. eigenvalues --  -10.26223 -10.26171 -10.26133 -10.26027 -10.26007
 Alpha  occ. eigenvalues --  -10.25933 -10.25848 -10.25831 -10.25423 -10.25392
 Alpha  occ. eigenvalues --  -10.24872 -10.24820 -10.24775 -10.24727 -10.24689
 Alpha  occ. eigenvalues --  -10.24674  -3.16527  -3.16410  -1.91409  -1.91292
 Alpha  occ. eigenvalues --   -1.90995  -1.90881  -1.90837  -1.90718  -1.16644
 Alpha  occ. eigenvalues --   -1.16620  -1.08658  -1.08615  -1.07204  -1.06967
 Alpha  occ. eigenvalues --   -1.06946  -1.06630  -1.04569  -1.04495  -1.03748
 Alpha  occ. eigenvalues --   -1.03663  -1.03222  -1.03038  -1.02399  -1.02111
 Alpha  occ. eigenvalues --   -0.91987  -0.91960  -0.89507  -0.89493  -0.89176
 Alpha  occ. eigenvalues --   -0.89152  -0.88275  -0.88218  -0.87858  -0.87792
 Alpha  occ. eigenvalues --   -0.87684  -0.87661  -0.87262  -0.87121  -0.85000
 Alpha  occ. eigenvalues --   -0.84970  -0.83924  -0.83873  -0.82955  -0.82932
 Alpha  occ. eigenvalues --   -0.82653  -0.82636  -0.81596  -0.81573  -0.80584
 Alpha  occ. eigenvalues --   -0.80443  -0.78785  -0.78636  -0.77206  -0.77144
 Alpha  occ. eigenvalues --   -0.76922  -0.76898  -0.75911  -0.75839  -0.74886
 Alpha  occ. eigenvalues --   -0.74801  -0.72762  -0.72698  -0.71660  -0.71580
 Alpha  occ. eigenvalues --   -0.69895  -0.69754  -0.68861  -0.68828  -0.67629
 Alpha  occ. eigenvalues --   -0.67601  -0.67208  -0.67201  -0.65274  -0.65272
 Alpha  occ. eigenvalues --   -0.64841  -0.64770  -0.64654  -0.64608  -0.64257
 Alpha  occ. eigenvalues --   -0.64202  -0.62285  -0.62278  -0.60430  -0.60339
 Alpha  occ. eigenvalues --   -0.59797  -0.59792  -0.58992  -0.58975  -0.58491
 Alpha  occ. eigenvalues --   -0.58425  -0.57572  -0.57554  -0.57296  -0.57235
 Alpha  occ. eigenvalues --   -0.56298  -0.56204  -0.55966  -0.55887  -0.55508
 Alpha  occ. eigenvalues --   -0.55452  -0.55327  -0.55246  -0.54511  -0.54486
 Alpha  occ. eigenvalues --   -0.53913  -0.53883  -0.53287  -0.53227  -0.53210
 Alpha  occ. eigenvalues --   -0.53142  -0.52902  -0.52902  -0.52744  -0.52669
 Alpha  occ. eigenvalues --   -0.52426  -0.52398  -0.51902  -0.51883  -0.51660
 Alpha  occ. eigenvalues --   -0.51604  -0.51201  -0.51184  -0.50560  -0.50476
 Alpha  occ. eigenvalues --   -0.50019  -0.49980  -0.49906  -0.49865  -0.49502
 Alpha  occ. eigenvalues --   -0.49488  -0.49203  -0.49202  -0.49105  -0.49084
 Alpha  occ. eigenvalues --   -0.48581  -0.48558  -0.48449  -0.48433  -0.48374
 Alpha  occ. eigenvalues --   -0.48339  -0.47683  -0.47595  -0.47285  -0.47118
 Alpha  occ. eigenvalues --   -0.46785  -0.46708  -0.46555  -0.46543  -0.46347
 Alpha  occ. eigenvalues --   -0.46270  -0.46150  -0.46084  -0.45822  -0.45810
 Alpha  occ. eigenvalues --   -0.45207  -0.45189  -0.44565  -0.44514  -0.44495
 Alpha  occ. eigenvalues --   -0.44476  -0.44132  -0.44128  -0.44077  -0.44076
 Alpha  occ. eigenvalues --   -0.44007  -0.43940  -0.43553  -0.43482  -0.43386
 Alpha  occ. eigenvalues --   -0.43373  -0.43015  -0.42930  -0.42901  -0.42687
 Alpha  occ. eigenvalues --   -0.42642  -0.42552  -0.41997  -0.41963  -0.41692
 Alpha  occ. eigenvalues --   -0.41669  -0.41522  -0.41459  -0.41129  -0.40989
 Alpha  occ. eigenvalues --   -0.40857  -0.40811  -0.40723  -0.40699  -0.40559
 Alpha  occ. eigenvalues --   -0.40491  -0.40228  -0.40222  -0.39428  -0.39422
 Alpha  occ. eigenvalues --   -0.38457  -0.38348  -0.37736  -0.37655  -0.37308
 Alpha  occ. eigenvalues --   -0.37264  -0.37251  -0.37200  -0.36771  -0.36701
 Alpha  occ. eigenvalues --   -0.36216  -0.36180  -0.34274  -0.34253  -0.33862
 Alpha  occ. eigenvalues --   -0.33758  -0.33175  -0.33174  -0.31332  -0.31274
 Alpha  occ. eigenvalues --   -0.31023  -0.30973  -0.30017  -0.29955  -0.29437
 Alpha  occ. eigenvalues --   -0.29327  -0.29309  -0.29211  -0.24068  -0.24036
 Alpha  occ. eigenvalues --   -0.21117  -0.21115
 Alpha virt. eigenvalues --   -0.08792  -0.08762  -0.01737  -0.01683  -0.00046
 Alpha virt. eigenvalues --   -0.00029   0.02208   0.02213   0.03134   0.03225
 Alpha virt. eigenvalues --    0.04729   0.04730   0.05110   0.05165   0.06181

 Mulliken charges:
               1
     1  Mg   0.838700
     2  C   -0.002956
     3  C   -0.094117
     4  C   -0.045831
     5  C   -0.063956
     6  N   -0.256775
     7  C   -0.052461
     8  C   -0.014012
     9  C   -0.087007
    10  C    0.046325
    11  C    0.104816
    12  C    0.053464
    13  C   -0.071799
    14  H    0.036134
    15  N   -0.433125
    16  C    0.168426
    17  C   -0.177149
    18  C   -0.004001
    19  C    0.148687
    20  C    0.110177
    21  C    0.012287
    22  O   -0.249620
    23  C    0.062476
    24  N   -0.341109
    25  C    0.041225
    26  C   -0.028192
    27  C   -0.023954
    28  C    0.074846
    29  C    0.076169
    30  C    0.035109
    31  C   -0.004500
    32  N   -0.310470
    33  C    0.080395
    34  C   -0.169710
    35  C    0.008354
    36  C    0.082985
    37  C    0.127310
    38  C    0.046123
    39  O   -0.188437
    40  C   -0.005344
    41  C    0.212888
    42  O   -0.257100
    43  O   -0.304805
    44  C    0.157693
    45  H   -0.017611
    46  H   -0.016836
    47  H   -0.041490
    48  H    0.000936
    49  H   -0.004037
    50  H    0.025471
    51  H    0.016446
    52  H    0.016648
    53  H    0.011211
    54  H    0.044129
    55  H    0.017862
    56  H    0.017945
    57  H    0.005868
    58  H    0.026818
    59  H    0.039560
    60  H    0.037336
    61  H    0.035658
    62  H    0.031512
    63  H    0.016563
    64  H    0.009455
    65  H    0.023214
    66  H    0.012540
    67  H    0.004749
    68  H    0.006368
    69  H    0.004732
    70  H    0.008786
    71  H    0.018149
    72  H    0.028987
    73  H    0.047576
    74  H    0.009113
    75  H    0.046003
    76  H    0.035144
    77  H    0.042946
    78  H    0.046396
    79  H    0.053696
    80  Mg   0.837860
    81  C   -0.016806
    82  C   -0.087794
    83  C   -0.045520
    84  C   -0.064865
    85  N   -0.254562
    86  C   -0.049858
    87  C   -0.015090
    88  C   -0.090500
    89  C    0.045745
    90  C    0.114378
    91  C    0.062512
    92  C   -0.077887
    93  H    0.034903
    94  N   -0.423490
    95  C    0.162913
    96  C   -0.174636
    97  C   -0.007805
    98  C    0.152134
    99  C    0.099375
   100  C    0.015575
   101  O   -0.253173
   102  C    0.061203
   103  N   -0.350073
   104  C    0.037535
   105  C   -0.019844
   106  C   -0.034851
   107  C    0.088953
   108  C    0.073633
   109  C    0.034727
   110  C   -0.007685
   111  N   -0.324133
   112  C    0.078454
   113  C   -0.163096
   114  C    0.002247
   115  C    0.096191
   116  C    0.131485
   117  C    0.042403
   118  O   -0.187852
   119  C    0.000908
   120  C    0.211260
   121  O   -0.251021
   122  O   -0.305634
   123  C    0.152024
   124  H   -0.019684
   125  H   -0.015553
   126  H   -0.040392
   127  H   -0.000650
   128  H   -0.004336
   129  H    0.022471
   130  H    0.014432
   131  H    0.016264
   132  H    0.013919
   133  H    0.037688
   134  H    0.020782
   135  H    0.019582
   136  H    0.008748
   137  H    0.026127
   138  H    0.039786
   139  H    0.038234
   140  H    0.036399
   141  H    0.033891
   142  H    0.014411
   143  H    0.012502
   144  H    0.025175
   145  H    0.011626
   146  H    0.005763
   147  H    0.006319
   148  H    0.003697
   149  H    0.010931
   150  H    0.017953
   151  H    0.030066
   152  H    0.046020
   153  H    0.008561
   154  H    0.047000
   155  H    0.035034
   156  H    0.043921
   157  H    0.049484
   158  H    0.053586
 Sum of Mulliken charges =  -0.00000

 Dipole moment (field-independent basis, Debye):
    X=              2.3498    Y=              3.6950    Z=             -7.6979  Tot=              8.8562
 Quadrupole moment (field-independent basis, Debye-Ang):
   XX=           -450.6789   YY=           -563.3478   ZZ=           -447.6891
   XY=             -2.1026   XZ=             34.7822   YZ=             15.9259

 Normal termination of Gaussian 16 at Sun Sep 12 20:35:54 2021.
