 Gaussian 16, Revision A.03,
 Gaussian 16:  ES64L-G16RevA.03 25-Dec-2016

 -----------------------------------
 #p cam-b3lyp/Def2SVP td=(nstates=5)
 -----------------------------------

 --------------------------------
 TDDFT excited states in gaussian
 --------------------------------
 Symbolic Z-matrix:
 Charge =  0 Multiplicity = 1

                         Standard orientation:
 ---------------------------------------------------------------------
 Center     Atomic      Atomic             Coordinates (Angstroms)
 Number     Number       Type             X           Y           Z
 ---------------------------------------------------------------------
      1         12           0       15.775372   -0.785621    0.222845
      2          6           0       16.122987    2.411211   -1.349301
      3          6           0       16.738525    0.708129    3.135595
      4          6           0       15.915649   -3.671654    1.529656
      5          6           0       15.952142   -2.203441   -2.955865
      6          7           0       16.331648    1.302058    0.705339
      7          6           0       16.366432    2.443940    0.025584
      8          6           0       16.611874    3.691618    0.925823
      9          6           0       17.337916    2.977848    2.152768
     10          6           0       16.741501    1.588360    2.013001
     11          6           0       18.851657    2.881025    1.992406
     12          6           0       15.275633    4.376169    1.370325
     13          6           0       15.427531    5.775758    1.973178
     14          1           0       14.396772    6.768050    1.708147
     15          7           0       15.779009   -1.333810    2.120824
     16          6           0       16.189901   -0.591926    3.177263
     17          6           0       15.995708   -1.441397    4.371989
     18          6           0       15.617156   -2.803956    3.904843
     19          6           0       15.783143   -2.662760    2.480803
     20          6           0       16.122188   -0.930345    5.774336
     21          6           0       15.185948   -4.040568    4.628019
     22          8           0       15.128880   -5.180463    4.051863
     23          6           0       14.913517   -3.897246    6.069644
     24          7           0       16.133904   -2.685240   -0.564895
     25          6           0       16.080391   -3.774659    0.209241
     26          6           0       16.087559   -5.029406   -0.612646
     27          6           0       15.911530   -4.564845   -2.130193
     28          6           0       15.916088   -3.031982   -1.909784
     29          6           0       17.343300   -5.903365   -0.488865
     30          6           0       14.739601   -5.192070   -2.926177
     31          6           0       13.421026   -4.716405   -2.358551
     32          7           0       15.819636   -0.051946   -1.819410
     33          6           0       15.917472   -0.819400   -2.989076
     34          6           0       16.021004    0.124105   -4.117415
     35          6           0       15.992701    1.382945   -3.520451
     36          6           0       15.905153    1.234849   -2.106699
     37          6           0       16.182418   -0.228425   -5.486393
     38          6           0       16.040873    2.818400   -3.746293
     39          8           0       16.020773    3.540378   -4.744209
     40          6           0       16.249939    3.539807   -2.342124
     41          6           0       15.256102    4.666042   -2.257325
     42          8           0       14.031517    4.434997   -2.191169
     43          8           0       15.906961    5.817021   -2.028910
     44          6           0       14.976348    6.970559   -1.904562
     45          1           0       17.253369    1.014834    4.048179
     46          1           0       15.857077   -4.685879    1.930100
     47          1           0       15.925338   -2.571774   -3.983029
     48          1           0       17.269795    4.443917    0.490381
     49          1           0       17.051735    3.418784    3.107440
     50          1           0       19.168673    3.203579    1.000750
     51          1           0       19.093954    1.829295    2.146187
     52          1           0       19.361067    3.425307    2.788040
     53          1           0       14.869527    3.846150    2.231845
     54          1           0       14.567983    4.415498    0.541464
     55          1           0       16.416480    6.189965    1.774882
     56          1           0       15.383840    5.686648    3.058696
     57          1           0       16.571130    0.061791    5.800070
     58          1           0       16.844989   -1.568804    6.281916
     59          1           0       15.171652   -0.955120    6.307440
     60          1           0       15.810977   -3.534494    6.571169
     61          1           0       14.531769   -4.862321    6.400928
     62          1           0       14.152105   -3.129544    6.210481
     63          1           0       15.257928   -5.680332   -0.339823
     64          1           0       16.792373   -4.790402   -2.731786
     65          1           0       17.135496   -6.926444   -0.174492
     66          1           0       18.028172   -5.413266    0.202542
     67          1           0       17.950969   -5.960868   -1.391555
     68          1           0       14.756007   -6.277433   -2.833099
     69          1           0       14.762762   -4.949939   -3.988762
     70          1           0       13.255858   -5.396550   -1.523714
     71          1           0       12.629745   -4.812397   -3.102776
     72          1           0       13.504405   -3.710151   -1.947470
     73          1           0       15.511222    0.419924   -6.049517
     74          1           0       15.950906   -1.279977   -5.654448
     75          1           0       17.239734   -0.005679   -5.628957
     76          1           0       17.278374    3.899152   -2.324373
     77          1           0       15.288680    7.715311   -2.636701
     78          1           0       14.981344    7.260858   -0.853797
     79          1           0       13.946256    6.794679   -2.216515
     80         12           0      -15.945644    0.734364    0.382491
     81          6           0      -15.907738   -2.650736   -0.808611
     82          6           0      -15.038164    1.693407   -2.762553
     83          6           0      -15.531496    3.672912    1.505351
     84          6           0      -15.722423   -0.547445    3.615571
     85          7           0      -15.554440   -0.421982   -1.461983
     86          6           0      -15.631283   -1.697450   -1.810739
     87          6           0      -15.478063   -1.958298   -3.333247
     88          6           0      -14.656080   -0.634761   -3.722450
     89          6           0      -15.134208    0.287886   -2.603176
     90          6           0      -13.151078   -0.801443   -3.593893
     91          6           0      -16.861056   -2.013669   -4.072347
     92          6           0      -16.806932   -2.569024   -5.497272
     93          1           0      -17.930652   -3.369730   -5.975372
     94          7           0      -15.851263    2.472194   -0.571256
     95          6           0      -15.484961    2.677697   -1.853778
     96          6           0      -15.561256    4.131413   -2.065978
     97          6           0      -15.843341    4.782262   -0.757722
     98          6           0      -15.729868    3.644510    0.132621
     99          6           0      -15.452353    4.762375   -3.423722
    100          6           0      -16.150189    6.197178   -0.370352
    101          8           0      -16.126257    6.580848    0.852374
    102          6           0      -16.387866    7.141588   -1.471755
    103          7           0      -15.454728    1.468392    2.264652
    104          6           0      -15.390386    2.791456    2.495526
    105          6           0      -15.294160    3.083134    3.974057
    106          6           0      -15.551945    1.684545    4.705538
    107          6           0      -15.669296    0.769111    3.467148
    108          6           0      -13.965738    3.669557    4.451341
    109          6           0      -16.686684    1.643274    5.765408
    110          6           0      -18.027992    1.827704    5.092909
    111          7           0      -16.019355   -1.226476    1.286770
    112          6           0      -15.879319   -1.539908    2.656529
    113          6           0      -15.885024   -3.012924    2.768880
    114          6           0      -16.005809   -3.458086    1.443841
    115          6           0      -16.050480   -2.341648    0.565734
    116          6           0      -15.738919   -3.755852    3.974210
    117          6           0      -16.094993   -4.618779    0.587368
    118          8           0      -16.194086   -5.830777    0.774354
    119          6           0      -15.908178   -4.150144   -0.919905
    120          6           0      -16.991449   -4.791261   -1.743314
    121          8           0      -18.184815   -4.493086   -1.560078
    122          8           0      -16.428272   -5.482289   -2.751126
    123          6           0      -17.463026   -6.127381   -3.602567
    124          1           0      -14.535130    2.081909   -3.648511
    125          1           0      -15.493453    4.667475    1.955773
    126          1           0      -15.755626   -1.023267    4.597996
    127          1           0      -14.903523   -2.840976   -3.587338
    128          1           0      -14.963186   -0.249697   -4.691356
    129          1           0      -12.887315   -1.748583   -3.147239
    130          1           0      -12.816660    0.017189   -2.970158
    131          1           0      -12.671231   -0.655290   -4.565868
    132          1           0      -17.196054   -0.989743   -4.282363
    133          1           0      -17.578903   -2.564962   -3.496673
    134          1           0      -15.857199   -3.076286   -5.706156
    135          1           0      -16.822450   -1.730251   -6.197435
    136          1           0      -15.081898    4.049034   -4.170250
    137          1           0      -14.666218    5.522594   -3.360910
    138          1           0      -16.381406    5.240174   -3.741904
    139          1           0      -15.514034    7.169603   -2.118361
    140          1           0      -16.678615    8.079594   -0.994793
    141          1           0      -17.218153    6.766989   -2.080794
    142          1           0      -16.059200    3.786071    4.280154
    143          1           0      -14.665928    1.346922    5.263061
    144          1           0      -14.078774    4.638603    4.973122
    145          1           0      -13.311060    3.772262    3.596134
    146          1           0      -13.386252    3.024676    5.109773
    147          1           0      -16.576595    2.470852    6.470504
    148          1           0      -16.703167    0.726373    6.345066
    149          1           0      -18.108044    2.914569    4.995914
    150          1           0      -18.826366    1.427016    5.714266
    151          1           0      -18.022245    1.405999    4.081094
    152          1           0      -16.469322   -4.553206    3.938953
    153          1           0      -15.879661   -3.125153    4.849531
    154          1           0      -14.703402   -4.091356    3.872226
    155          1           0      -14.912836   -4.461777   -1.238891
    156          1           0      -17.230294   -7.196287   -3.633609
    157          1           0      -17.443371   -5.579479   -4.563380
    158          1           0      -18.480422   -6.143193   -3.229595
 ---------------------------------------------------------------------

 SCF Done:  E(RCAM-B3LYP) =  -4069.81178268     A.U. after   19 cycles

 Excitation energies and oscillator strengths:

 Excited State   1:      Singlet-A      1.6755 eV  740.00 nm  f=0.3005  <S**2>=0.000
     310 -> 316        0.17093
     311 -> 314        0.11913
     312 -> 313        0.67563
     310 <- 316        0.10303
 This state for optimization and/or second-order correction.
 Total Energy, E(TD-HF/TD-DFT) =  -4069.75021040
 Copying the excited state density for this state as the 1-particle RhoCI density.

 Excited State   2:      Singlet-A      1.6800 eV  738.00 nm  f=0.4762  <S**2>=0.000
     309 -> 315        0.17292
     311 -> 314        0.67527
     312 -> 313       -0.11910
     309 <- 315        0.10355

 Excited State   3:      Singlet-A      2.1861 eV  567.14 nm  f=0.0992  <S**2>=0.000
     310 -> 313        0.64232
     312 -> 316       -0.27304

 Excited State   4:      Singlet-A      2.1926 eV  565.47 nm  f=0.1014  <S**2>=0.000
     309 -> 314        0.64055
     311 -> 315       -0.27825

 Excited State   5:      Singlet-A      3.0660 eV  404.38 nm  f=0.0000  <S**2>=0.000
     311 -> 313        0.70711

 The electronic state is 1-A.
 Alpha  occ. eigenvalues --  -46.87796 -46.87660 -19.26348 -19.26288 -19.19160
 Alpha  occ. eigenvalues --  -19.19023 -19.18812 -19.18713 -19.18171 -19.18051
 Alpha  occ. eigenvalues --  -14.42496 -14.42450 -14.41449 -14.41359 -14.39402
 Alpha  occ. eigenvalues --  -14.39351 -14.38600 -14.38587 -10.39089 -10.39083
 Alpha  occ. eigenvalues --  -10.35445 -10.35390 -10.34391 -10.34228 -10.31754
 Alpha  occ. eigenvalues --  -10.31684 -10.31405 -10.31307 -10.31021 -10.30908
 Alpha  occ. eigenvalues --  -10.30570 -10.30507 -10.30398 -10.30360 -10.30206
 Alpha  occ. eigenvalues --  -10.30141 -10.29921 -10.29896 -10.29630 -10.29436
 Alpha  occ. eigenvalues --  -10.29400 -10.29254 -10.28749 -10.28715 -10.28648
 Alpha  occ. eigenvalues --  -10.28538 -10.28404 -10.28365 -10.28136 -10.28116
 Alpha  occ. eigenvalues --  -10.28001 -10.27793 -10.27727 -10.27667 -10.27584
 Alpha  occ. eigenvalues --  -10.27521 -10.27501 -10.27483 -10.27478 -10.27466
 Alpha  occ. eigenvalues --  -10.27461 -10.27449 -10.27404 -10.27379 -10.27160
 Alpha  occ. eigenvalues --  -10.27049 -10.26705 -10.26689 -10.26412 -10.26405
 Alpha  occ. eigenvalues --  -10.26234 -10.26184 -10.26143 -10.26019 -10.26018
 Alpha  occ. eigenvalues --  -10.25935 -10.25854 -10.25847 -10.25434 -10.25401
 Alpha  occ. eigenvalues --  -10.24873 -10.24833 -10.24787 -10.24736 -10.24690
 Alpha  occ. eigenvalues --  -10.24688  -3.16539  -3.16410  -1.91421  -1.91292
 Alpha  occ. eigenvalues --   -1.91007  -1.90881  -1.90849  -1.90718  -1.16642
 Alpha  occ. eigenvalues --   -1.16636  -1.08659  -1.08629  -1.07213  -1.06965
 Alpha  occ. eigenvalues --   -1.06944  -1.06646  -1.04581  -1.04494  -1.03760
 Alpha  occ. eigenvalues --   -1.03663  -1.03234  -1.03039  -1.02411  -1.02111
 Alpha  occ. eigenvalues --   -0.91987  -0.91973  -0.89520  -0.89496  -0.89188
 Alpha  occ. eigenvalues --   -0.89147  -0.88287  -0.88222  -0.87871  -0.87795
 Alpha  occ. eigenvalues --   -0.87683  -0.87673  -0.87272  -0.87118  -0.84997
 Alpha  occ. eigenvalues --   -0.84982  -0.83937  -0.83879  -0.82965  -0.82931
 Alpha  occ. eigenvalues --   -0.82650  -0.82648  -0.81595  -0.81587  -0.80597
 Alpha  occ. eigenvalues --   -0.80442  -0.78796  -0.78635  -0.77218  -0.77143
 Alpha  occ. eigenvalues --   -0.76935  -0.76897  -0.75924  -0.75836  -0.74898
 Alpha  occ. eigenvalues --   -0.74804  -0.72774  -0.72699  -0.71672  -0.71580
 Alpha  occ. eigenvalues --   -0.69907  -0.69761  -0.68873  -0.68825  -0.67641
 Alpha  occ. eigenvalues --   -0.67601  -0.67219  -0.67197  -0.65287  -0.65269
 Alpha  occ. eigenvalues --   -0.64854  -0.64770  -0.64653  -0.64621  -0.64269
 Alpha  occ. eigenvalues --   -0.64205  -0.62300  -0.62278  -0.60441  -0.60339
 Alpha  occ. eigenvalues --   -0.59804  -0.59794  -0.58993  -0.58988  -0.58504
 Alpha  occ. eigenvalues --   -0.58425  -0.57586  -0.57554  -0.57309  -0.57237
 Alpha  occ. eigenvalues --   -0.56310  -0.56204  -0.55980  -0.55885  -0.55519
 Alpha  occ. eigenvalues --   -0.55451  -0.55340  -0.55249  -0.54525  -0.54489
 Alpha  occ. eigenvalues --   -0.53909  -0.53895  -0.53298  -0.53227  -0.53221
 Alpha  occ. eigenvalues --   -0.53140  -0.52915  -0.52901  -0.52754  -0.52665
 Alpha  occ. eigenvalues --   -0.52439  -0.52405  -0.51917  -0.51887  -0.51656
 Alpha  occ. eigenvalues --   -0.51616  -0.51201  -0.51197  -0.50569  -0.50473
 Alpha  occ. eigenvalues --   -0.50031  -0.49978  -0.49917  -0.49868  -0.49514
 Alpha  occ. eigenvalues --   -0.49486  -0.49215  -0.49201  -0.49102  -0.49096
 Alpha  occ. eigenvalues --   -0.48594  -0.48557  -0.48461  -0.48445  -0.48378
 Alpha  occ. eigenvalues --   -0.48337  -0.47694  -0.47593  -0.47296  -0.47117
 Alpha  occ. eigenvalues --   -0.46797  -0.46709  -0.46555  -0.46551  -0.46359
 Alpha  occ. eigenvalues --   -0.46271  -0.46163  -0.46086  -0.45824  -0.45822
 Alpha  occ. eigenvalues --   -0.45210  -0.45201  -0.44579  -0.44513  -0.44506
 Alpha  occ. eigenvalues --   -0.44474  -0.44144  -0.44126  -0.44088  -0.44078
 Alpha  occ. eigenvalues --   -0.44019  -0.43937  -0.43553  -0.43496  -0.43385
 Alpha  occ. eigenvalues --   -0.43385  -0.43027  -0.42929  -0.42901  -0.42701
 Alpha  occ. eigenvalues --   -0.42656  -0.42555  -0.42010  -0.41965  -0.41704
 Alpha  occ. eigenvalues --   -0.41669  -0.41533  -0.41457  -0.41141  -0.40988
 Alpha  occ. eigenvalues --   -0.40869  -0.40821  -0.40720  -0.40697  -0.40571
 Alpha  occ. eigenvalues --   -0.40495  -0.40233  -0.40223  -0.39441  -0.39429
 Alpha  occ. eigenvalues --   -0.38469  -0.38352  -0.37748  -0.37651  -0.37320
 Alpha  occ. eigenvalues --   -0.37267  -0.37263  -0.37197  -0.36771  -0.36715
 Alpha  occ. eigenvalues --   -0.36218  -0.36193  -0.34286  -0.34253  -0.33861
 Alpha  occ. eigenvalues --   -0.33773  -0.33186  -0.33175  -0.31342  -0.31272
 Alpha  occ. eigenvalues --   -0.31035  -0.30972  -0.30031  -0.29956  -0.29449
 Alpha  occ. eigenvalues --   -0.29327  -0.29322  -0.29212  -0.24080  -0.24036
 Alpha  occ. eigenvalues --   -0.21127  -0.21117
 Alpha virt. eigenvalues --   -0.08791  -0.08774  -0.01749  -0.01684  -0.00057
 Alpha virt. eigenvalues --   -0.00027   0.02199   0.02207   0.03122   0.03227
 Alpha virt. eigenvalues --    0.04718   0.04732   0.05095   0.05166   0.06178

 Mulliken charges:
               1
     1  Mg   0.838757
     2  C   -0.002968
     3  C   -0.094115
     4  C   -0.045872
     5  C   -0.063974
     6  N   -0.256792
     7  C   -0.052468
     8  C   -0.014032
     9  C   -0.086985
    10  C    0.046340
    11  C    0.104800
    12  C    0.053458
    13  C   -0.071813
    14  H    0.036117
    15  N   -0.433158
    16  C    0.168434
    17  C   -0.177125
    18  C   -0.003978
    19  C    0.148723
    20  C    0.110170
    21  C    0.012301
    22  O   -0.249595
    23  C    0.062468
    24  N   -0.341146
    25  C    0.041251
    26  C   -0.028187
    27  C   -0.023952
    28  C    0.074843
    29  C    0.076166
    30  C    0.035124
    31  C   -0.004500
    32  N   -0.310460
    33  C    0.080397
    34  C   -0.169749
    35  C    0.008327
    36  C    0.082981
    37  C    0.127323
    38  C    0.046092
    39  O   -0.188510
    40  C   -0.005319
    41  C    0.212870
    42  O   -0.257131
    43  O   -0.304791
    44  C    0.157710
    45  H   -0.017576
    46  H   -0.016811
    47  H   -0.041521
    48  H    0.000928
    49  H   -0.004011
    50  H    0.025464
    51  H    0.016454
    52  H    0.016678
    53  H    0.011226
    54  H    0.044101
    55  H    0.017869
    56  H    0.017983
    57  H    0.005888
    58  H    0.026854
    59  H    0.039601
    60  H    0.037356
    61  H    0.035701
    62  H    0.031525
    63  H    0.016572
    64  H    0.009448
    65  H    0.023237
    66  H    0.012554
    67  H    0.004747
    68  H    0.006377
    69  H    0.004694
    70  H    0.008813
    71  H    0.018106
    72  H    0.028980
    73  H    0.047510
    74  H    0.009088
    75  H    0.045996
    76  H    0.035144
    77  H    0.042916
    78  H    0.046425
    79  H    0.053652
    80  Mg   0.837878
    81  C   -0.016839
    82  C   -0.087757
    83  C   -0.045521
    84  C   -0.064888
    85  N   -0.254581
    86  C   -0.049825
    87  C   -0.015104
    88  C   -0.090499
    89  C    0.045752
    90  C    0.114348
    91  C    0.062515
    92  C   -0.077913
    93  H    0.034901
    94  N   -0.423503
    95  C    0.162930
    96  C   -0.174581
    97  C   -0.007788
    98  C    0.152140
    99  C    0.099332
   100  C    0.015583
   101  O   -0.253193
   102  C    0.061183
   103  N   -0.350077
   104  C    0.037531
   105  C   -0.019833
   106  C   -0.034787
   107  C    0.088889
   108  C    0.073650
   109  C    0.034748
   110  C   -0.007676
   111  N   -0.324115
   112  C    0.078448
   113  C   -0.163158
   114  C    0.002231
   115  C    0.096196
   116  C    0.131490
   117  C    0.042377
   118  O   -0.187883
   119  C    0.000929
   120  C    0.211246
   121  O   -0.251029
   122  O   -0.305613
   123  C    0.152021
   124  H   -0.019565
   125  H   -0.015572
   126  H   -0.040500
   127  H   -0.000616
   128  H   -0.004276
   129  H    0.022473
   130  H    0.014446
   131  H    0.016390
   132  H    0.013920
   133  H    0.037654
   134  H    0.020826
   135  H    0.019630
   136  H    0.008825
   137  H    0.026223
   138  H    0.039824
   139  H    0.038310
   140  H    0.036405
   141  H    0.033906
   142  H    0.014387
   143  H    0.012395
   144  H    0.025124
   145  H    0.011684
   146  H    0.005657
   147  H    0.006233
   148  H    0.003621
   149  H    0.010934
   150  H    0.017910
   151  H    0.030125
   152  H    0.045985
   153  H    0.008479
   154  H    0.046938
   155  H    0.035057
   156  H    0.043916
   157  H    0.049525
   158  H    0.053568
 Sum of Mulliken charges =  -0.00000

 Dipole moment (field-independent basis, Debye):
    X=              4.1400    Y=              2.6696    Z=              1.0292  Tot=              5.0324
 Quadrupole moment (field-independent basis, Debye-Ang):
   XX=           -518.4545   YY=           -536.0392   ZZ=           -462.7601
   XY=            -36.4642   XZ=            114.9889   YZ=             33.5969

 Normal termination of Gaussian 16 at Sat Sep  4 17:08:43 2021.
