 Gaussian 16, Revision A.03,
 Gaussian 16:  ES64L-G16RevA.03 25-Dec-2016

 -----------------------------------
 #p cam-b3lyp/Def2SVP td=(nstates=5)
 -----------------------------------

 --------------------------------
 TDDFT excited states in gaussian
 --------------------------------
 Symbolic Z-matrix:
 Charge =  0 Multiplicity = 1

                         Standard orientation:
 ---------------------------------------------------------------------
 Center     Atomic      Atomic             Coordinates (Angstroms)
 Number     Number       Type             X           Y           Z
 ---------------------------------------------------------------------
      1         12           0      -15.786550    0.645683    0.422637
      2          6           0      -16.067949   -2.034813   -1.932775
      3          6           0      -16.592162   -1.606281    2.856299
      4          6           0      -15.989889    3.074725    2.451191
      5          6           0      -16.125692    2.843114   -2.261006
      6          7           0      -16.247203   -1.518269    0.346777
      7          6           0      -16.262520   -2.440459   -0.610565
      8          6           0      -16.429862   -3.891372   -0.068143
      9          6           0      -17.139492   -3.560598    1.320746
     10          6           0      -16.600771   -2.157998    1.540789
     11          6           0      -18.660421   -3.493508    1.227078
     12          6           0      -15.054380   -4.607774    0.147605
     13          6           0      -15.132839   -6.122271    0.360903
     14          1           0      -14.075328   -6.961615   -0.181794
     15          7           0      -15.745402    0.672430    2.397591
     16          6           0      -16.091569   -0.339924    3.228609
     17          6           0      -15.888356    0.171767    4.601037
     18          6           0      -15.577475    1.625013    4.503448
     19          6           0      -15.786976    1.857534    3.097240
     20          6           0      -15.947229   -0.696669    5.820095
     21          6           0      -15.168306    2.644952    5.518553
     22          8           0      -15.173894    3.897907    5.264297
     23          6           0      -14.841224    2.138491    6.863751
     24          7           0      -16.242976    2.667641    0.175664
     25          6           0      -16.203738    3.515209    1.209624
     26          6           0      -16.286246    4.940801    0.750476
     27          6           0      -16.145266    4.901964   -0.839609
     28          6           0      -16.084745    3.366736   -1.033728
     29          6           0      -17.568873    5.693255    1.130864
     30          6           0      -15.025782    5.769530   -1.467703
     31          6           0      -13.671537    5.221060   -1.077448
     32          7           0      -15.873550    0.476165   -1.739478
     33          6           0      -16.040307    1.520021   -2.661015
     34          6           0      -16.147165    0.904308   -3.996510
     35          6           0      -16.051139   -0.464872   -3.755740
     36          6           0      -15.920588   -0.691582   -2.355793
     37          6           0      -16.368719    1.598168   -5.218764
     38          6           0      -16.053191   -1.790380   -4.353136
     39          8           0      -16.040395   -2.221511   -5.507023
     40          6           0      -16.186592   -2.865699   -3.186209
     41          6           0      -15.148888   -3.928146   -3.426387
     42          8           0      -13.932278   -3.667570   -3.329811
     43          8           0      -15.747876   -5.126832   -3.496439
     44          6           0      -14.770929   -6.228892   -3.704269
     45          1           0      -17.063420   -2.166086    3.666531
     46          1           0      -15.955644    3.948765    3.104888
     47          1           0      -16.148098    3.470454   -3.153976
     48          1           0      -17.073708   -4.530959   -0.672141
     49          1           0      -16.804281   -4.224569    2.117300
     50          1           0      -18.999069   -3.556739    0.193037
     51          1           0      -18.936552   -2.531817    1.659970
     52          1           0      -19.121369   -4.251073    1.861427
     53          1           0      -14.639018   -4.306262    1.109180
     54          1           0      -14.374706   -4.394729   -0.678217
     55          1           0      -16.111799   -6.513746    0.082885
     56          1           0      -15.055176   -6.321113    1.429842
     57          1           0      -16.357496   -1.679651    5.592126
     58          1           0      -16.675562   -0.248329    6.495544
     59          1           0      -14.980502   -0.770544    6.318406
     60          1           0      -15.706651    1.615919    7.271801
     61          1           0      -14.484759    2.998076    7.430228
     62          1           0      -14.047161    1.396145    6.778114
     63          1           0      -15.472710    5.533445    1.166839
     64          1           0      -17.054136    5.238261   -1.339142
     65          1           0      -17.388883    6.605313    1.700476
     66          1           0      -18.210675    5.007473    1.683208
     67          1           0      -18.208986    5.959529    0.290168
     68          1           0      -15.079665    6.789883   -1.089653
     69          1           0      -15.076412    5.815818   -2.555611
     70          1           0      -13.503350    5.663345   -0.096158
     71          1           0      -12.910502    5.545913   -1.787735
     72          1           0      -13.702919    4.139263   -0.946236
     73          1           0      -15.693465    1.152632   -5.949174
     74          1           0      -16.182728    2.666135   -5.107155
     75          1           0      -17.421218    1.373340   -5.390678
     76          1           0      -17.199606   -3.263161   -3.240510
     77          1           0      -15.080130   -6.767206   -4.600287
     78          1           0      -14.728858   -6.786296   -2.768355
     79          1           0      -13.759507   -5.930417   -3.982258
     80         12           0       15.956301    0.575810   -0.549784
     81          6           0       15.806990   -2.358728    1.510624
     82          6           0       15.168724    2.386660    2.231427
     83          6           0       15.637149    3.120319   -2.418220
     84          6           0       15.598822   -1.516145   -3.314146
     85          7           0       15.563511   -0.022336    1.543109
     86          6           0       15.595765   -1.159216    2.221949
     87          6           0       15.469991   -0.993600    3.760229
     88          6           0       14.713970    0.422919    3.788561
     89          6           0       15.201997    0.987143    2.455836
     90          6           0       13.200581    0.298660    3.729132
     91          6           0       16.867556   -0.913068    4.468991
     92          6           0       16.826020   -1.061679    5.991466
     93          1           0       17.926977   -1.756189    6.653301
     94          7           0       15.958459    2.508518   -0.099007
     95          6           0       15.633314    3.068248    1.085160
     96          6           0       15.775514    4.520250    0.896388
     97          6           0       16.051642    4.781388   -0.542459
     98          6           0       15.868497    3.452770   -1.091376
     99          6           0       15.727089    5.497427    2.034894
    100          6           0       16.407474    6.024017   -1.301036
    101          8           0       16.368942    6.065486   -2.581522
    102          6           0       16.711887    7.217554   -0.498348
    103          7           0       15.449435    0.798953   -2.553690
    104          6           0       15.434610    2.012722   -3.132021
    105          6           0       15.313619    1.900301   -4.633065
    106          6           0       15.494387    0.346030   -4.963453
    107          6           0       15.604434   -0.207179   -3.525656
    108          6           0       13.999295    2.398496   -5.233681
    109          6           0       16.599496   -0.031907   -5.987442
    110          6           0       17.963767    0.263367   -5.406946
    111          7           0       15.925413   -1.557176   -0.892524
    112          6           0       15.738134   -2.220427   -2.125046
    113          6           0       15.679534   -3.667991   -1.835976
    114          6           0       15.814811   -3.745655   -0.441652
    115          6           0       15.928022   -2.437609    0.102123
    116          6           0       15.472395   -4.699940   -2.794262
    117          6           0       15.876897   -4.636182    0.694935
    118          8           0       15.920602   -5.857094    0.840532
    119          6           0       15.747631   -3.771299    2.022217
    120          6           0       16.823496   -4.217548    2.974005
    121          8           0       18.023306   -4.035976    2.701776
    122          8           0       16.257393   -4.584915    4.138015
    123          6           0       17.285330   -5.025163    5.118501
    124          1           0       14.704705    3.022234    2.986154
    125          1           0       15.629380    3.957798   -3.119678
    126          1           0       15.587503   -2.239607   -4.132148
    127          1           0       14.865656   -1.747469    4.250371
    128          1           0       15.061068    1.039453    4.613649
    129          1           0       12.886407   -0.720226    3.557944
    130          1           0       12.885094    0.934205    2.912067
    131          1           0       12.751769    0.723124    4.631760
    132          1           0       17.250158    0.112711    4.390703
    133          1           0       17.547111   -1.631922    4.054156
    134          1           0       15.861474   -1.448930    6.341656
    135          1           0       16.894075   -0.067228    6.439181
    136          1           0       15.346009    5.029280    2.950877
    137          1           0       14.972046    6.248790    1.779495
    138          1           0       16.682954    5.999018    2.200411
    139          1           0       15.856464    7.459386    0.127930
    140          1           0       17.029485    7.978049   -1.214351
    141          1           0       17.540819    6.981941    0.178392
    142          1           0       16.099422    2.458324   -5.127245
    143          1           0       14.581362   -0.087078   -5.397780
    144          1           0       14.139560    3.185143   -5.998914
    145          1           0       13.371105    2.757971   -4.429515
    146          1           0       13.377081    1.628272   -5.686241
    147          1           0       16.506420    0.579840   -6.888140
    148          1           0       16.563171   -1.070625   -6.298453
    149          1           0       18.091521    1.331283   -5.607746
    150          1           0       18.728910   -0.326658   -5.907429
    151          1           0       17.965783    0.129992   -4.318903
    152          1           0       16.169527   -5.491831   -2.554652
    153          1           0       15.617356   -4.335144   -3.808989
    154          1           0       14.426650   -4.946664   -2.592223
    155          1           0       14.748457   -3.938599    2.426227
    156          1           0       17.009040   -6.034205    5.439707
    157          1           0       17.312653   -4.238804    5.896088
    158          1           0       18.291519   -5.188425    4.750537
 ---------------------------------------------------------------------

 SCF Done:  E(RCAM-B3LYP) =  -4069.81177574     A.U. after   19 cycles

 Excitation energies and oscillator strengths:

 Excited State   1:      Singlet-A      1.6755 eV  739.96 nm  f=0.3811  <S**2>=0.000
     310 -> 316        0.17332
     312 -> 313        0.68487
     310 <- 316        0.10447
 This state for optimization and/or second-order correction.
 Total Energy, E(TD-HF/TD-DFT) =  -4069.75020068
 Copying the excited state density for this state as the 1-particle RhoCI density.

 Excited State   2:      Singlet-A      1.6799 eV  738.06 nm  f=0.3951  <S**2>=0.000
     309 -> 315        0.17522
     311 -> 314        0.68452
     309 <- 315        0.10493

 Excited State   3:      Singlet-A      2.1861 eV  567.14 nm  f=0.1022  <S**2>=0.000
     310 -> 313        0.64247
     312 -> 316       -0.27313

 Excited State   4:      Singlet-A      2.1925 eV  565.49 nm  f=0.0988  <S**2>=0.000
     309 -> 314        0.64071
     311 -> 315       -0.27826

 Excited State   5:      Singlet-A      3.0656 eV  404.43 nm  f=0.0000  <S**2>=0.000
     311 -> 313        0.70711

 The electronic state is 1-A.
 Alpha  occ. eigenvalues --  -46.87796 -46.87661 -19.26355 -19.26278 -19.19165
 Alpha  occ. eigenvalues --  -19.19015 -19.18817 -19.18713 -19.18167 -19.18053
 Alpha  occ. eigenvalues --  -14.42498 -14.42449 -14.41449 -14.41359 -14.39402
 Alpha  occ. eigenvalues --  -14.39352 -14.38600 -14.38586 -10.39095 -10.39075
 Alpha  occ. eigenvalues --  -10.35450 -10.35391 -10.34387 -10.34231 -10.31763
 Alpha  occ. eigenvalues --  -10.31671 -10.31403 -10.31310 -10.31024 -10.30907
 Alpha  occ. eigenvalues --  -10.30569 -10.30507 -10.30398 -10.30362 -10.30207
 Alpha  occ. eigenvalues --  -10.30140 -10.29921 -10.29894 -10.29630 -10.29437
 Alpha  occ. eigenvalues --  -10.29401 -10.29254 -10.28745 -10.28722 -10.28659
 Alpha  occ. eigenvalues --  -10.28531 -10.28406 -10.28364 -10.28142 -10.28113
 Alpha  occ. eigenvalues --  -10.28001 -10.27792 -10.27726 -10.27670 -10.27584
 Alpha  occ. eigenvalues --  -10.27515 -10.27503 -10.27485 -10.27481 -10.27468
 Alpha  occ. eigenvalues --  -10.27465 -10.27451 -10.27402 -10.27373 -10.27155
 Alpha  occ. eigenvalues --  -10.27053 -10.26699 -10.26696 -10.26413 -10.26413
 Alpha  occ. eigenvalues --  -10.26231 -10.26187 -10.26135 -10.26027 -10.26019
 Alpha  occ. eigenvalues --  -10.25934 -10.25851 -10.25843 -10.25438 -10.25392
 Alpha  occ. eigenvalues --  -10.24874 -10.24832 -10.24788 -10.24729 -10.24691
 Alpha  occ. eigenvalues --  -10.24690  -3.16539  -3.16411  -1.91420  -1.91293
 Alpha  occ. eigenvalues --   -1.91007  -1.90881  -1.90849  -1.90718  -1.16649
 Alpha  occ. eigenvalues --   -1.16627  -1.08661  -1.08625  -1.07218  -1.06965
 Alpha  occ. eigenvalues --   -1.06950  -1.06637  -1.04580  -1.04496  -1.03760
 Alpha  occ. eigenvalues --   -1.03664  -1.03233  -1.03039  -1.02411  -1.02111
 Alpha  occ. eigenvalues --   -0.91988  -0.91970  -0.89520  -0.89494  -0.89185
 Alpha  occ. eigenvalues --   -0.89153  -0.88288  -0.88219  -0.87869  -0.87794
 Alpha  occ. eigenvalues --   -0.87685  -0.87671  -0.87274  -0.87120  -0.85001
 Alpha  occ. eigenvalues --   -0.84979  -0.83937  -0.83875  -0.82969  -0.82931
 Alpha  occ. eigenvalues --   -0.82654  -0.82647  -0.81599  -0.81582  -0.80595
 Alpha  occ. eigenvalues --   -0.80444  -0.78797  -0.78636  -0.77217  -0.77145
 Alpha  occ. eigenvalues --   -0.76931  -0.76900  -0.75920  -0.75841  -0.74898
 Alpha  occ. eigenvalues --   -0.74802  -0.72774  -0.72699  -0.71671  -0.71581
 Alpha  occ. eigenvalues --   -0.69909  -0.69756  -0.68871  -0.68829  -0.67640
 Alpha  occ. eigenvalues --   -0.67602  -0.67217  -0.67202  -0.65284  -0.65274
 Alpha  occ. eigenvalues --   -0.64852  -0.64771  -0.64655  -0.64619  -0.64270
 Alpha  occ. eigenvalues --   -0.64203  -0.62294  -0.62281  -0.60442  -0.60339
 Alpha  occ. eigenvalues --   -0.59802  -0.59798  -0.58993  -0.58986  -0.58503
 Alpha  occ. eigenvalues --   -0.58426  -0.57582  -0.57557  -0.57308  -0.57236
 Alpha  occ. eigenvalues --   -0.56309  -0.56205  -0.55974  -0.55890  -0.55520
 Alpha  occ. eigenvalues --   -0.55453  -0.55339  -0.55248  -0.54522  -0.54489
 Alpha  occ. eigenvalues --   -0.53915  -0.53892  -0.53298  -0.53228  -0.53220
 Alpha  occ. eigenvalues --   -0.53143  -0.52913  -0.52904  -0.52755  -0.52668
 Alpha  occ. eigenvalues --   -0.52440  -0.52400  -0.51914  -0.51886  -0.51660
 Alpha  occ. eigenvalues --   -0.51614  -0.51202  -0.51194  -0.50573  -0.50475
 Alpha  occ. eigenvalues --   -0.50032  -0.49980  -0.49918  -0.49866  -0.49513
 Alpha  occ. eigenvalues --   -0.49488  -0.49213  -0.49204  -0.49106  -0.49093
 Alpha  occ. eigenvalues --   -0.48590  -0.48560  -0.48462  -0.48445  -0.48375
 Alpha  occ. eigenvalues --   -0.48339  -0.47694  -0.47595  -0.47296  -0.47118
 Alpha  occ. eigenvalues --   -0.46796  -0.46710  -0.46556  -0.46552  -0.46358
 Alpha  occ. eigenvalues --   -0.46271  -0.46161  -0.46086  -0.45824  -0.45819
 Alpha  occ. eigenvalues --   -0.45207  -0.45202  -0.44576  -0.44516  -0.44506
 Alpha  occ. eigenvalues --   -0.44477  -0.44144  -0.44129  -0.44086  -0.44078
 Alpha  occ. eigenvalues --   -0.44018  -0.43940  -0.43556  -0.43492  -0.43387
 Alpha  occ. eigenvalues --   -0.43384  -0.43026  -0.42933  -0.42903  -0.42696
 Alpha  occ. eigenvalues --   -0.42654  -0.42553  -0.42009  -0.41965  -0.41703
 Alpha  occ. eigenvalues --   -0.41670  -0.41531  -0.41460  -0.41140  -0.40990
 Alpha  occ. eigenvalues --   -0.40867  -0.40824  -0.40723  -0.40699  -0.40571
 Alpha  occ. eigenvalues --   -0.40493  -0.40230  -0.40229  -0.39443  -0.39424
 Alpha  occ. eigenvalues --   -0.38469  -0.38349  -0.37744  -0.37656  -0.37320
 Alpha  occ. eigenvalues --   -0.37266  -0.37261  -0.37201  -0.36774  -0.36710
 Alpha  occ. eigenvalues --   -0.36218  -0.36190  -0.34285  -0.34254  -0.33866
 Alpha  occ. eigenvalues --   -0.33766  -0.33185  -0.33176  -0.31346  -0.31272
 Alpha  occ. eigenvalues --   -0.31035  -0.30973  -0.30027  -0.29958  -0.29449
 Alpha  occ. eigenvalues --   -0.29328  -0.29321  -0.29212  -0.24080  -0.24037
 Alpha  occ. eigenvalues --   -0.21127  -0.21117
 Alpha virt. eigenvalues --   -0.08792  -0.08774  -0.01749  -0.01684  -0.00058
 Alpha virt. eigenvalues --   -0.00029   0.02201   0.02206   0.03122   0.03225
 Alpha virt. eigenvalues --    0.04720   0.04728   0.05103   0.05161   0.06179

 Mulliken charges:
               1
     1  Mg   0.838771
     2  C   -0.002948
     3  C   -0.094097
     4  C   -0.045893
     5  C   -0.063984
     6  N   -0.256781
     7  C   -0.052465
     8  C   -0.014017
     9  C   -0.087020
    10  C    0.046324
    11  C    0.104817
    12  C    0.053482
    13  C   -0.071843
    14  H    0.036204
    15  N   -0.433152
    16  C    0.168407
    17  C   -0.177148
    18  C   -0.004025
    19  C    0.148722
    20  C    0.110168
    21  C    0.012265
    22  O   -0.249664
    23  C    0.062490
    24  N   -0.341136
    25  C    0.041236
    26  C   -0.028157
    27  C   -0.023973
    28  C    0.074843
    29  C    0.076172
    30  C    0.035135
    31  C   -0.004497
    32  N   -0.310473
    33  C    0.080426
    34  C   -0.169718
    35  C    0.008366
    36  C    0.082983
    37  C    0.127313
    38  C    0.046117
    39  O   -0.188408
    40  C   -0.005339
    41  C    0.212878
    42  O   -0.257093
    43  O   -0.304794
    44  C    0.157672
    45  H   -0.017588
    46  H   -0.016870
    47  H   -0.041503
    48  H    0.000960
    49  H   -0.004008
    50  H    0.025478
    51  H    0.016431
    52  H    0.016678
    53  H    0.011204
    54  H    0.044130
    55  H    0.017878
    56  H    0.017964
    57  H    0.005900
    58  H    0.026816
    59  H    0.039548
    60  H    0.037356
    61  H    0.035599
    62  H    0.031499
    63  H    0.016518
    64  H    0.009457
    65  H    0.023180
    66  H    0.012556
    67  H    0.004750
    68  H    0.006336
    69  H    0.004732
    70  H    0.008748
    71  H    0.018124
    72  H    0.029006
    73  H    0.047580
    74  H    0.009095
    75  H    0.046014
    76  H    0.035166
    77  H    0.042969
    78  H    0.046425
    79  H    0.053710
    80  Mg   0.837840
    81  C   -0.016823
    82  C   -0.087785
    83  C   -0.045497
    84  C   -0.064822
    85  N   -0.254569
    86  C   -0.049829
    87  C   -0.015125
    88  C   -0.090512
    89  C    0.045768
    90  C    0.114371
    91  C    0.062538
    92  C   -0.077884
    93  H    0.034872
    94  N   -0.423501
    95  C    0.162932
    96  C   -0.174603
    97  C   -0.007778
    98  C    0.152137
    99  C    0.099350
   100  C    0.015579
   101  O   -0.253147
   102  C    0.061192
   103  N   -0.350051
   104  C    0.037541
   105  C   -0.019857
   106  C   -0.034791
   107  C    0.088883
   108  C    0.073626
   109  C    0.034712
   110  C   -0.007675
   111  N   -0.324128
   112  C    0.078438
   113  C   -0.163134
   114  C    0.002235
   115  C    0.096197
   116  C    0.131494
   117  C    0.042384
   118  O   -0.187904
   119  C    0.000906
   120  C    0.211252
   121  O   -0.251023
   122  O   -0.305629
   123  C    0.152039
   124  H   -0.019648
   125  H   -0.015527
   126  H   -0.040432
   127  H   -0.000664
   128  H   -0.004330
   129  H    0.022460
   130  H    0.014470
   131  H    0.016282
   132  H    0.013925
   133  H    0.037671
   134  H    0.020772
   135  H    0.019595
   136  H    0.008762
   137  H    0.026189
   138  H    0.039803
   139  H    0.038275
   140  H    0.036427
   141  H    0.033884
   142  H    0.014409
   143  H    0.012475
   144  H    0.025186
   145  H    0.011669
   146  H    0.005746
   147  H    0.006310
   148  H    0.003663
   149  H    0.010941
   150  H    0.017933
   151  H    0.030071
   152  H    0.045986
   153  H    0.008536
   154  H    0.046970
   155  H    0.035018
   156  H    0.043883
   157  H    0.049486
   158  H    0.053580
 Sum of Mulliken charges =  -0.00000

 Dipole moment (field-independent basis, Debye):
    X=             -3.8034    Y=              1.8985    Z=              6.3034  Tot=              7.6028
 Quadrupole moment (field-independent basis, Debye-Ang):
   XX=           -517.3725   YY=           -511.7605   ZZ=           -487.0771
   XY=             79.1068   XZ=            -24.4910   YZ=            -11.3586

 Normal termination of Gaussian 16 at Sat Sep  4 19:09:07 2021.
