 Gaussian 16, Revision A.03,
 Gaussian 16:  ES64L-G16RevA.03 25-Dec-2016

 -----------------------------------
 #p cam-b3lyp/Def2SVP td=(nstates=5)
 -----------------------------------

 --------------------------------
 TDDFT excited states in gaussian
 --------------------------------
 Symbolic Z-matrix:
 Charge =  0 Multiplicity = 1

                         Standard orientation:
 ---------------------------------------------------------------------
 Center     Atomic      Atomic             Coordinates (Angstroms)
 Number     Number       Type             X           Y           Z
 ---------------------------------------------------------------------
      1         12           0        4.168389   -1.496159    0.171400
      2          6           0        5.296622    1.383388   -1.630686
      3          6           0        5.685471   -0.179927    2.929853
      4          6           0        3.578208   -4.229857    1.666458
      5          6           0        3.748796   -3.075414   -2.906839
      6          7           0        5.312807    0.372789    0.484434
      7          6           0        5.622927    1.420173   -0.273182
      8          6           0        6.260800    2.594632    0.527529
      9          6           0        6.832574    1.772290    1.768024
     10          6           0        5.865174    0.601929    1.750259
     11          6           0        8.246639    1.244069    1.549150
     12          6           0        5.197988    3.651102    0.981435
     13          6           0        5.770404    4.981431    1.479349
     14          1           0        5.042869    6.208321    1.191632
     15          7           0        4.134856   -1.920036    2.100663
     16          6           0        4.799866   -1.268319    3.084691
     17          6           0        4.449865   -1.962905    4.342360
     18          6           0        3.678811   -3.186540    3.986992
     19          6           0        3.790397   -3.174818    2.550751
     20          6           0        4.799048   -1.433468    5.699385
     21          6           0        2.964990   -4.210547    4.811614
     22          8           0        2.557466   -5.317414    4.318315
     23          6           0        2.831751   -3.918765    6.250417
     24          7           0        3.934556   -3.459360   -0.498523
     25          6           0        3.626863   -4.446124    0.350363
     26          6           0        3.233910   -5.694361   -0.382734
     27          6           0        3.102112   -5.281484   -1.919587
     28          6           0        3.547129   -3.802552   -1.805626
     29          6           0        4.201440   -6.878948   -0.253711
     30          6           0        1.755534   -5.594745   -2.618883
     31          6           0        0.658945   -4.736715   -2.028648
     32          7           0        4.290728   -0.915884   -1.916508
     33          6           0        4.099271   -1.741643   -3.033710
     34          6           0        4.392635   -0.927840   -4.227749
     35          6           0        4.752755    0.318158   -3.718194
     36          6           0        4.713797    0.277156   -2.295137
     37          6           0        4.365596   -1.384806   -5.574926
     38          6           0        5.185209    1.667441   -4.044193
     39          8           0        5.306294    2.310930   -5.087627
     40          6           0        5.672283    2.375190   -2.703417
     41          6           0        5.038801    3.738823   -2.653288
     42          8           0        3.804753    3.866367   -2.518290
     43          8           0        5.997318    4.670138   -2.533115
     44          6           0        5.434454    6.044229   -2.448191
     45          1           0        6.320055    0.017867    3.795948
     46          1           0        3.263831   -5.163301    2.137934
     47          1           0        3.557805   -3.476029   -3.904077
     48          1           0        7.074485    3.106288    0.013185
     49          1           0        6.739402    2.326799    2.701598
     50          1           0        8.579893    1.410226    0.524819
     51          1           0        8.195130    0.176572    1.764304
     52          1           0        8.935096    1.664671    2.282566
     53          1           0        4.713589    3.304321    1.894212
     54          1           0        4.480155    3.843654    0.183334
     55          1           0        6.821597    5.088663    1.210271
     56          1           0        5.769901    4.966879    2.569298
     57          1           0        5.507409   -0.608296    5.637249
     58          1           0        5.344830   -2.221516    6.217857
     59          1           0        3.913626   -1.160452    6.273687
     60          1           0        3.823599   -3.797319    6.686350
     61          1           0        2.217109   -4.717727    6.663607
     62          1           0        2.324530   -2.961092    6.370990
     63          1           0        2.273985   -6.069256   -0.029996
     64          1           0        3.846793   -5.778334   -2.541892
     65          1           0        3.736316   -7.783431    0.139067
     66          1           0        5.036609   -6.565341    0.371937
     67          1           0        4.712773   -7.154014   -1.175825
     68          1           0        1.474446   -6.634034   -2.452111
     69          1           0        1.780405   -5.426588   -3.695617
     70          1           0        0.362004   -5.296678   -1.142590
     71          1           0       -0.171594   -4.645647   -2.729449
     72          1           0        1.044373   -3.774178   -1.691818
     73          1           0        3.868643   -0.604830   -6.151678
     74          1           0        3.840390   -2.335872   -5.659987
     75          1           0        5.432354   -1.477251   -5.778246
     76          1           0        6.759207    2.430375   -2.755104
     77          1           0        5.896713    6.630116   -3.242727
     78          1           0        5.584235    6.377515   -1.421112
     79          1           0        4.379129    6.149402   -2.702288
     80         12           0       -4.327668    1.455979    0.571735
     81          6           0       -5.255350   -1.623683   -1.020173
     82          6           0       -3.179352    2.505728   -2.463711
     83          6           0       -3.094035    3.991586    2.026482
     84          6           0       -4.484529   -0.231997    3.616712
     85          7           0       -4.279780    0.477366   -1.411258
     86          6           0       -4.716813   -0.669772   -1.908693
     87          6           0       -4.642005   -0.769974   -3.455921
     88          6           0       -3.475941    0.304462   -3.710385
     89          6           0       -3.672688    1.176574   -2.472084
     90          6           0       -2.081271   -0.296462   -3.654674
     91          6           0       -5.982153   -0.338058   -4.148368
     92          6           0       -6.086509   -0.702466   -5.630949
     93          1           0       -7.391243   -1.085417   -6.163408
     94          7           0       -3.739863    3.201318   -0.167750
     95          6           0       -3.328146    3.454008   -1.427879
     96          6           0       -2.986150    4.884446   -1.460164
     97          6           0       -3.072844    5.418880   -0.073949
     98          6           0       -3.290117    4.193152    0.668008
     99          6           0       -2.699607    5.624022   -2.734662
    100          6           0       -2.963822    6.802429    0.491824
    101          8           0       -2.833323    7.006877    1.750391
    102          6           0       -2.920431    7.905999   -0.478602
    103          7           0       -3.650661    1.778456    2.510812
    104          6           0       -3.211850    2.989185    2.897479
    105          6           0       -3.038712    3.053571    4.396234
    106          6           0       -3.685977    1.704967    4.961823
    107          6           0       -4.057723    1.023354    3.626674
    108          6           0       -1.598935    3.174901    4.894962
    109          6           0       -4.786977    1.854063    6.047293
    110          6           0       -6.018848    2.493809    5.448461
    111          7           0       -4.959225   -0.501040    1.234511
    112          6           0       -4.916580   -1.010738    2.550746
    113          6           0       -5.342515   -2.423757    2.484458
    114          6           0       -5.583231   -2.646384    1.120279
    115          6           0       -5.306115   -1.461965    0.385540
    116          6           0       -5.416359   -3.322869    3.585472
    117          6           0       -5.998547   -3.617135    0.133434
    118          8           0       -6.439634   -4.764898    0.175921
    119          6           0       -5.683426   -3.035197   -1.311710
    120          6           0       -6.903301   -3.234508   -2.168842
    121          8           0       -7.962273   -2.635980   -1.910057
    122          8           0       -6.559129   -3.924480   -3.271500
    123          6           0       -7.733598   -4.137793   -4.158591
    124          1           0       -2.584992    2.843885   -3.312990
    125          1           0       -2.774502    4.869857    2.592183
    126          1           0       -4.653660   -0.798380    4.535007
    127          1           0       -4.342820   -1.740041   -3.834372
    128          1           0       -3.658898    0.879246   -4.614549
    129          1           0       -2.099417   -1.327794   -3.335039
    130          1           0       -1.528144    0.308825   -2.948469
    131          1           0       -1.578152   -0.171357   -4.617768
    132          1           0       -6.010742    0.756736   -4.221513
    133          1           0       -6.828356   -0.731181   -3.619191
    134          1           0       -5.320672   -1.427557   -5.932090
    135          1           0       -5.860961    0.187352   -6.223718
    136          1           0       -2.546931    4.934592   -3.574186
    137          1           0       -1.729349    6.116253   -2.607516
    138          1           0       -3.453206    6.381423   -2.960699
    139          1           0       -2.073915    7.766323   -1.146718
    140          1           0       -2.932186    8.820304    0.117881
    141          1           0       -3.822128    7.861505   -1.099551
    142          1           0       -3.571855    3.900170    4.811100
    143          1           0       -2.934005    1.062972    5.443716
    144          1           0       -1.431587    4.062746    5.533562
    145          1           0       -0.940834    3.194503    4.036449
    146          1           0       -1.228583    2.314929    5.450371
    147          1           0       -4.446446    2.521183    6.842993
    148          1           0       -5.065310    0.914149    6.512157
    149          1           0       -5.785314    3.562037    5.486277
    150          1           0       -6.899343    2.260954    6.043910
    151          1           0       -6.132084    2.218294    4.393516
    152          1           0       -6.343842   -3.869664    3.479256
    153          1           0       -5.372660   -2.793277    4.534894
    154          1           0       -4.519449   -3.922379    3.408199
    155          1           0       -4.817875   -3.573372   -1.699999
    156          1           0       -7.815493   -5.216118   -4.326508
    157          1           0       -7.556935   -3.501755   -5.046284
    158          1           0       -8.713794   -3.911484   -3.755530
 ---------------------------------------------------------------------

 SCF Done:  E(RCAM-B3LYP) =  -4069.81235255     A.U. after   19 cycles

 Excitation energies and oscillator strengths:

 Excited State   1:      Singlet-A      1.6586 eV  747.50 nm  f=0.1567  <S**2>=0.000
     309 -> 315        0.11480
     310 -> 316        0.12408
     311 -> 313        0.46319
     312 -> 314        0.50703
 This state for optimization and/or second-order correction.
 Total Energy, E(TD-HF/TD-DFT) =  -4069.75139853
 Copying the excited state density for this state as the 1-particle RhoCI density.

 Excited State   2:      Singlet-A      1.6913 eV  733.06 nm  f=0.5202  <S**2>=0.000
     309 -> 315        0.13161
     310 -> 316       -0.11969
     311 -> 313        0.50552
     312 -> 314       -0.46204

 Excited State   3:      Singlet-A      2.1858 eV  567.23 nm  f=0.0610  <S**2>=0.000
     309 -> 313        0.26827
     310 -> 314        0.58449
     311 -> 315       -0.11229
     312 -> 316       -0.24686

 Excited State   4:      Singlet-A      2.1933 eV  565.28 nm  f=0.1299  <S**2>=0.000
     309 -> 313        0.58221
     310 -> 314       -0.26591
     311 -> 315       -0.25335
     312 -> 316        0.11621

 Excited State   5:      Singlet-A      2.3390 eV  530.08 nm  f=0.0000  <S**2>=0.000
     312 -> 313        0.70708

 The electronic state is 1-A.
 Alpha  occ. eigenvalues --  -46.87917 -46.87434 -19.26487 -19.26210 -19.19242
 Alpha  occ. eigenvalues --  -19.19004 -19.18916 -19.18510 -19.18349 -19.17842
 Alpha  occ. eigenvalues --  -14.42566 -14.42258 -14.41564 -14.41149 -14.39522
 Alpha  occ. eigenvalues --  -14.39116 -14.38724 -14.38376 -10.39291 -10.38932
 Alpha  occ. eigenvalues --  -10.35548 -10.35186 -10.34569 -10.34024 -10.31884
 Alpha  occ. eigenvalues --  -10.31638 -10.31536 -10.31054 -10.31019 -10.30771
 Alpha  occ. eigenvalues --  -10.30711 -10.30638 -10.30309 -10.30189 -10.30117
 Alpha  occ. eigenvalues --  -10.30041 -10.29930 -10.29768 -10.29719 -10.29375
 Alpha  occ. eigenvalues --  -10.29188 -10.29172 -10.28843 -10.28583 -10.28496
 Alpha  occ. eigenvalues --  -10.28475 -10.28464 -10.28215 -10.28162 -10.27935
 Alpha  occ. eigenvalues --  -10.27846 -10.27844 -10.27756 -10.27715 -10.27596
 Alpha  occ. eigenvalues --  -10.27587 -10.27531 -10.27521 -10.27414 -10.27382
 Alpha  occ. eigenvalues --  -10.27325 -10.27285 -10.27260 -10.27224 -10.27079
 Alpha  occ. eigenvalues --  -10.26861 -10.26775 -10.26510 -10.26478 -10.26328
 Alpha  occ. eigenvalues --  -10.26266 -10.26204 -10.26144 -10.26061 -10.26046
 Alpha  occ. eigenvalues --  -10.25725 -10.25647 -10.25634 -10.25488 -10.25386
 Alpha  occ. eigenvalues --  -10.24983 -10.24900 -10.24787 -10.24645 -10.24636
 Alpha  occ. eigenvalues --  -10.24486  -3.16660  -3.16184  -1.91541  -1.91128
 Alpha  occ. eigenvalues --   -1.91066  -1.90970  -1.90655  -1.90492  -1.16838
 Alpha  occ. eigenvalues --   -1.16499  -1.08815  -1.08458  -1.07313  -1.06860
 Alpha  occ. eigenvalues --   -1.06788  -1.06765  -1.04700  -1.04253  -1.03876
 Alpha  occ. eigenvalues --   -1.03438  -1.03361  -1.02823  -1.02536  -1.01889
 Alpha  occ. eigenvalues --   -0.92113  -0.91767  -0.89629  -0.89325  -0.89286
 Alpha  occ. eigenvalues --   -0.88887  -0.88385  -0.88079  -0.88029  -0.87785
 Alpha  occ. eigenvalues --   -0.87566  -0.87444  -0.87394  -0.86854  -0.85084
 Alpha  occ. eigenvalues --   -0.84762  -0.84040  -0.83754  -0.83074  -0.82762
 Alpha  occ. eigenvalues --   -0.82719  -0.82421  -0.81741  -0.81410  -0.80731
 Alpha  occ. eigenvalues --   -0.80235  -0.78927  -0.78378  -0.77333  -0.77050
 Alpha  occ. eigenvalues --   -0.76922  -0.76704  -0.76053  -0.75597  -0.75001
 Alpha  occ. eigenvalues --   -0.74659  -0.72905  -0.72472  -0.71787  -0.71372
 Alpha  occ. eigenvalues --   -0.70002  -0.69634  -0.68983  -0.68593  -0.67768
 Alpha  occ. eigenvalues --   -0.67391  -0.67314  -0.66977  -0.65399  -0.65044
 Alpha  occ. eigenvalues --   -0.64990  -0.64741  -0.64563  -0.64451  -0.64377
 Alpha  occ. eigenvalues --   -0.64040  -0.62461  -0.62105  -0.60556  -0.60116
 Alpha  occ. eigenvalues --   -0.59916  -0.59545  -0.59112  -0.58784  -0.58635
 Alpha  occ. eigenvalues --   -0.58220  -0.57755  -0.57432  -0.57362  -0.57050
 Alpha  occ. eigenvalues --   -0.56450  -0.56138  -0.55971  -0.55698  -0.55645
 Alpha  occ. eigenvalues --   -0.55468  -0.55234  -0.55103  -0.54666  -0.54348
 Alpha  occ. eigenvalues --   -0.53996  -0.53661  -0.53425  -0.53343  -0.53060
 Alpha  occ. eigenvalues --   -0.53024  -0.52923  -0.52865  -0.52690  -0.52540
 Alpha  occ. eigenvalues --   -0.52408  -0.52279  -0.52095  -0.51729  -0.51666
 Alpha  occ. eigenvalues --   -0.51420  -0.51331  -0.51002  -0.50682  -0.50224
 Alpha  occ. eigenvalues --   -0.50129  -0.50027  -0.49765  -0.49668  -0.49631
 Alpha  occ. eigenvalues --   -0.49357  -0.49255  -0.49213  -0.48961  -0.48868
 Alpha  occ. eigenvalues --   -0.48737  -0.48580  -0.48559  -0.48341  -0.48231
 Alpha  occ. eigenvalues --   -0.48114  -0.47810  -0.47415  -0.47369  -0.46916
 Alpha  occ. eigenvalues --   -0.46890  -0.46660  -0.46503  -0.46490  -0.46318
 Alpha  occ. eigenvalues --   -0.46298  -0.46050  -0.45983  -0.45912  -0.45631
 Alpha  occ. eigenvalues --   -0.45300  -0.45069  -0.44733  -0.44610  -0.44319
 Alpha  occ. eigenvalues --   -0.44269  -0.44239  -0.44198  -0.44147  -0.43912
 Alpha  occ. eigenvalues --   -0.43880  -0.43709  -0.43657  -0.43487  -0.43380
 Alpha  occ. eigenvalues --   -0.43174  -0.43155  -0.42878  -0.42765  -0.42761
 Alpha  occ. eigenvalues --   -0.42708  -0.42382  -0.42124  -0.41834  -0.41794
 Alpha  occ. eigenvalues --   -0.41632  -0.41465  -0.41251  -0.41246  -0.40966
 Alpha  occ. eigenvalues --   -0.40918  -0.40769  -0.40671  -0.40513  -0.40488
 Alpha  occ. eigenvalues --   -0.40323  -0.40310  -0.40012  -0.39530  -0.39307
 Alpha  occ. eigenvalues --   -0.38558  -0.38205  -0.37840  -0.37438  -0.37424
 Alpha  occ. eigenvalues --   -0.37374  -0.37086  -0.36961  -0.36888  -0.36622
 Alpha  occ. eigenvalues --   -0.36327  -0.36046  -0.34414  -0.34035  -0.33978
 Alpha  occ. eigenvalues --   -0.33692  -0.33319  -0.32949  -0.31444  -0.31158
 Alpha  occ. eigenvalues --   -0.31072  -0.30752  -0.30211  -0.29753  -0.29581
 Alpha  occ. eigenvalues --   -0.29468  -0.29081  -0.28977  -0.24205  -0.23808
 Alpha  occ. eigenvalues --   -0.21253  -0.20884
 Alpha virt. eigenvalues --   -0.08903  -0.08553  -0.01865  -0.01467  -0.00178
 Alpha virt. eigenvalues --    0.00215   0.02046   0.02405   0.02835   0.03492
 Alpha virt. eigenvalues --    0.04614   0.04898   0.04968   0.05331   0.06096

 Mulliken charges:
               1
     1  Mg   0.838948
     2  C   -0.003135
     3  C   -0.093975
     4  C   -0.045447
     5  C   -0.064333
     6  N   -0.256931
     7  C   -0.052222
     8  C   -0.014201
     9  C   -0.087095
    10  C    0.046724
    11  C    0.104737
    12  C    0.053422
    13  C   -0.072273
    14  H    0.037149
    15  N   -0.433252
    16  C    0.168820
    17  C   -0.177044
    18  C   -0.003671
    19  C    0.149129
    20  C    0.110146
    21  C    0.012523
    22  O   -0.248563
    23  C    0.062474
    24  N   -0.341206
    25  C    0.041462
    26  C   -0.028548
    27  C   -0.023982
    28  C    0.074846
    29  C    0.075957
    30  C    0.035001
    31  C   -0.005561
    32  N   -0.310101
    33  C    0.079806
    34  C   -0.171339
    35  C    0.007707
    36  C    0.082306
    37  C    0.127718
    38  C    0.044826
    39  O   -0.189686
    40  C   -0.004890
    41  C    0.212840
    42  O   -0.258784
    43  O   -0.304270
    44  C    0.158262
    45  H   -0.017230
    46  H   -0.016040
    47  H   -0.041942
    48  H    0.000812
    49  H   -0.003587
    50  H    0.025463
    51  H    0.016494
    52  H    0.017020
    53  H    0.011858
    54  H    0.043772
    55  H    0.017583
    56  H    0.018564
    57  H    0.006242
    58  H    0.027304
    59  H    0.039342
    60  H    0.037582
    61  H    0.036189
    62  H    0.030736
    63  H    0.017730
    64  H    0.009594
    65  H    0.024145
    66  H    0.012469
    67  H    0.004884
    68  H    0.007936
    69  H    0.003775
    70  H    0.011571
    71  H    0.016838
    72  H    0.028273
    73  H    0.045515
    74  H    0.008775
    75  H    0.046507
    76  H    0.035504
    77  H    0.042874
    78  H    0.047495
    79  H    0.051775
    80  Mg   0.837549
    81  C   -0.016629
    82  C   -0.085900
    83  C   -0.045459
    84  C   -0.065228
    85  N   -0.254543
    86  C   -0.050073
    87  C   -0.014943
    88  C   -0.090456
    89  C    0.044590
    90  C    0.113031
    91  C    0.062564
    92  C   -0.077537
    93  H    0.033932
    94  N   -0.423999
    95  C    0.162268
    96  C   -0.170617
    97  C   -0.008115
    98  C    0.153201
    99  C    0.098300
   100  C    0.015795
   101  O   -0.254530
   102  C    0.061035
   103  N   -0.350022
   104  C    0.037504
   105  C   -0.019591
   106  C   -0.034427
   107  C    0.088536
   108  C    0.074318
   109  C    0.034979
   110  C   -0.007507
   111  N   -0.323955
   112  C    0.077879
   113  C   -0.163303
   114  C    0.002131
   115  C    0.095801
   116  C    0.131370
   117  C    0.042141
   118  O   -0.188893
   119  C    0.000912
   120  C    0.211286
   121  O   -0.251120
   122  O   -0.305909
   123  C    0.152135
   124  H   -0.014475
   125  H   -0.016616
   126  H   -0.041460
   127  H   -0.001930
   128  H   -0.003854
   129  H    0.020523
   130  H    0.018850
   131  H    0.018159
   132  H    0.014031
   133  H    0.037164
   134  H    0.020282
   135  H    0.020089
   136  H    0.011081
   137  H    0.030228
   138  H    0.038460
   139  H    0.039456
   140  H    0.035113
   141  H    0.033748
   142  H    0.013947
   143  H    0.010775
   144  H    0.023830
   145  H    0.012196
   146  H    0.003143
   147  H    0.004997
   148  H    0.003293
   149  H    0.010586
   150  H    0.017529
   151  H    0.030853
   152  H    0.045281
   153  H    0.007569
   154  H    0.047979
   155  H    0.034306
   156  H    0.043243
   157  H    0.049556
   158  H    0.053453
 Sum of Mulliken charges =  -0.00000

 Dipole moment (field-independent basis, Debye):
    X=              5.2181    Y=              2.0625    Z=              1.0988  Tot=              5.7175
 Quadrupole moment (field-independent basis, Debye-Ang):
   XX=           -523.6146   YY=           -524.5092   ZZ=           -471.8369
   XY=            -13.6383   XZ=             40.3878   YZ=             17.2291

 Normal termination of Gaussian 16 at Fri Sep  3 19:10:32 2021.
