 Gaussian 16, Revision A.03,
 Gaussian 16:  ES64L-G16RevA.03 25-Dec-2016

 -----------------------------------
 #p cam-b3lyp/Def2SVP td=(nstates=5)
 -----------------------------------

 --------------------------------
 TDDFT excited states in gaussian
 --------------------------------
 Symbolic Z-matrix:
 Charge =  0 Multiplicity = 1

                         Standard orientation:
 ---------------------------------------------------------------------
 Center     Atomic      Atomic             Coordinates (Angstroms)
 Number     Number       Type             X           Y           Z
 ---------------------------------------------------------------------
      1         12           0       -6.596466    0.955828    0.376269
      2          6           0       -7.142942   -1.645253   -2.021220
      3          6           0       -7.808525   -1.178458    2.746669
      4          6           0       -6.550244    3.376894    2.423933
      5          6           0       -6.513942    3.195835   -2.292293
      6          7           0       -7.347160   -1.123208    0.254976
      7          6           0       -7.448206   -2.028413   -0.713303
      8          6           0       -7.837007   -3.445665   -0.195999
      9          6           0       -8.553350   -3.028741    1.165994
     10          6           0       -7.836495   -1.715431    1.425340
     11          6           0      -10.045087   -2.751575    1.009782
     12          6           0       -6.583898   -4.346574    0.068221
     13          6           0       -6.879357   -5.837015    0.259647
     14          1           0       -5.925220   -6.810995   -0.248619
     15          7           0       -6.636973    0.964244    2.351399
     16          6           0       -7.154715    0.004231    3.154894
     17          6           0       -6.942139    0.474318    4.540719
     18          6           0       -6.430105    1.871259    4.473845
     19          6           0       -6.544921    2.139313    3.063050
     20          6           0       -7.172449   -0.385285    5.745621
     21          6           0       -5.928346    2.818497    5.517450
     22          8           0       -5.750327    4.061778    5.278421
     23          6           0       -5.732297    2.263274    6.868869
     24          7           0       -6.758933    3.022965    0.135051
     25          6           0       -6.647790    3.850479    1.179968
     26          6           0       -6.513293    5.276652    0.735130
     27          6           0       -6.310777    5.228685   -0.848044
     28          6           0       -6.454049    3.701067   -1.058105
     29          6           0       -7.695180    6.196696    1.070794
     30          6           0       -5.056485    5.937185   -1.418306
     31          6           0       -3.808758    5.204435   -0.978589
     32          7           0       -6.612953    0.813524   -1.789493
     33          6           0       -6.594534    1.876169   -2.704435
     34          6           0       -6.727683    1.289515   -4.050606
     35          6           0       -6.831644   -0.081285   -3.822691
     36          6           0       -6.793881   -0.332636   -2.421374
     37          6           0       -6.798777    2.014985   -5.272520
     38          6           0       -6.990604   -1.390023   -4.435711
     39          8           0       -6.987729   -1.811540   -5.593212
     40          6           0       -7.320923   -2.443898   -3.288513
     41          6           0       -6.430129   -3.637999   -3.498083
     42          8           0       -5.194509   -3.548620   -3.347681
     43          8           0       -7.184976   -4.741969   -3.607618
     44          6           0       -6.361151   -5.967110   -3.787885
     45          1           0       -8.386807   -1.672857    3.529677
     46          1           0       -6.424046    4.233702    3.089058
     47          1           0       -6.411294    3.825843   -3.177734
     48          1           0       -8.536260   -3.986363   -0.834056
     49          1           0       -8.347369   -3.737641    1.967713
     50          1           0      -10.344444   -2.760924   -0.038178
     51          1           0      -10.204447   -1.763691    1.442429
     52          1           0      -10.632850   -3.442154    1.615101
     53          1           0       -6.172687   -4.111379    1.049878
     54          1           0       -5.846485   -4.224301   -0.725880
     55          1           0       -7.890048   -6.087729   -0.063703
     56          1           0       -6.875858   -6.051382    1.328400
     57          1           0       -7.704045   -1.300709    5.488811
     58          1           0       -7.860431    0.155135    6.395495
     59          1           0       -6.247445   -0.595141    6.282891
     60          1           0       -6.678201    1.862732    7.234084
     61          1           0       -5.285494    3.061795    7.460124
     62          1           0       -5.045137    1.418890    6.807420
     63          1           0       -5.644526    5.748589    1.192236
     64          1           0       -7.142324    5.690455   -1.380934
     65          1           0       -7.415911    7.071549    1.658456
     66          1           0       -8.448490    5.602712    1.587512
     67          1           0       -8.255764    6.554125    0.207424
     68          1           0       -4.985485    6.952806   -1.030466
     69          1           0       -5.053436    5.996850   -2.506737
     70          1           0       -3.623587    5.613076    0.014163
     71          1           0       -2.980399    5.425477   -1.652512
     72          1           0       -3.994491    4.136546   -0.861952
     73          1           0       -6.160570    1.485019   -5.979483
     74          1           0       -6.472399    3.046292   -5.140283
     75          1           0       -7.863840    1.938810   -5.490908
     76          1           0       -8.375755   -2.697241   -3.389850
     77          1           0       -6.702755   -6.451909   -4.702494
     78          1           0       -6.436551   -6.530841   -2.857871
     79          1           0       -5.307246   -5.809498   -4.019793
     80         12           0        6.496656   -0.889460    0.522971
     81          6           0        7.467601    1.416703   -2.049563
     82          6           0        8.018717    1.191994    2.755785
     83          6           0        6.053207   -3.110748    2.744837
     84          6           0        6.080127   -3.284459   -1.974267
     85          7           0        7.569451    1.027514    0.265002
     86          6           0        7.822390    1.838472   -0.751225
     87          6           0        8.420757    3.211857   -0.344627
     88          6           0        9.060929    2.787232    1.065593
     89          6           0        8.141786    1.616716    1.408731
     90          6           0       10.481428    2.260371    0.947437
     91          6           0        7.318970    4.314733   -0.166492
     92          6           0        7.851277    5.746427   -0.073451
     93          1           0        7.061295    6.822562   -0.665326
     94          7           0        6.523094   -0.749239    2.502419
     95          6           0        7.174074    0.171111    3.244358
     96          6           0        6.893187   -0.171211    4.647244
     97          6           0        6.158805   -1.465260    4.676327
     98          6           0        6.236497   -1.843886    3.279660
     99          6           0        7.242995    0.735040    5.791695
    100          6           0        5.507005   -2.240684    5.780898
    101          8           0        5.133780   -3.456383    5.620842
    102          6           0        5.403290   -1.565864    7.082961
    103          7           0        6.325717   -2.959491    0.432874
    104          6           0        6.083689   -3.682052    1.540680
    105          6           0        5.727488   -5.108186    1.194742
    106          6           0        5.543752   -5.131895   -0.393731
    107          6           0        5.929755   -3.671342   -0.714958
    108          6           0        6.750512   -6.167450    1.604341
    109          6           0        4.194886   -5.676757   -0.938124
    110          6           0        3.071051   -4.735898   -0.567778
    111          7           0        6.543652   -0.908749   -1.636996
    112          6           0        6.368325   -2.024914   -2.484056
    113          6           0        6.601734   -1.562449   -3.867559
    114          6           0        6.921779   -0.203732   -3.726233
    115          6           0        6.909832    0.150464   -2.350053
    116          6           0        6.554319   -2.374851   -5.035411
    117          6           0        7.277414    1.008895   -4.427483
    118          8           0        7.354932    1.337254   -5.610659
    119          6           0        7.770423    2.081876   -3.363506
    120          6           0        7.081633    3.384773   -3.664388
    121          8           0        5.848986    3.491784   -3.538918
    122          8           0        8.009303    4.343590   -3.838945
    123          6           0        7.374626    5.656946   -4.128945
    124          1           0        8.660029    1.654849    3.506370
    125          1           0        5.787695   -3.891251    3.461628
    126          1           0        5.873691   -3.947379   -2.817231
    127          1           0        9.193265    3.584648   -1.006468
    128          1           0        8.958256    3.580963    1.800993
    129          1           0       10.784817    2.147335   -0.082771
    130          1           0       10.482321    1.301717    1.449462
    131          1           0       11.167919    2.897215    1.512665
    132          1           0        6.871083    4.215637    0.830665
    133          1           0        6.586758    4.251515   -0.947836
    134          1           0        8.898334    5.818396   -0.391952
    135          1           0        7.870158    6.041964    0.978368
    136          1           0        7.922702    1.536479    5.476926
    137          1           0        7.831547    0.142464    6.500449
    138          1           0        6.361360    1.125745    6.304273
    139          1           0        6.397509   -1.292241    7.428099
    140          1           0        4.829878   -2.243522    7.718456
    141          1           0        4.848169   -0.630700    6.949095
    142          1           0        4.793617   -5.397494    1.660879
    143          1           0        6.295292   -5.770055   -0.881347
    144          1           0        6.327672   -6.952297    2.259545
    145          1           0        7.579294   -5.671182    2.091548
    146          1           0        7.241119   -6.679446    0.778274
    147          1           0        3.960159   -6.638211   -0.474791
    148          1           0        4.192092   -5.827773   -2.012450
    149          1           0        2.822827   -5.038096    0.454057
    150          1           0        2.222966   -4.870319   -1.236152
    151          1           0        3.423097   -3.698517   -0.528412
    152          1           0        6.017949   -1.809864   -5.786130
    153          1           0        6.072774   -3.329908   -4.836065
    154          1           0        7.622743   -2.488148   -5.237680
    155          1           0        8.854290    2.160889   -3.456015
    156          1           0        7.798176    6.015097   -5.072348
    157          1           0        7.549319    6.278076   -3.230376
    158          1           0        6.315239    5.662123   -4.357270
 ---------------------------------------------------------------------

 SCF Done:  E(RCAM-B3LYP) =  -4069.81171771     A.U. after   19 cycles

 Excitation energies and oscillator strengths:

 Excited State   1:      Singlet-A      1.6654 eV  744.48 nm  f=0.0093  <S**2>=0.000
     309 -> 315       -0.10996
     310 -> 316        0.13130
     311 -> 313        0.52760
     312 -> 314       -0.43941
 This state for optimization and/or second-order correction.
 Total Energy, E(TD-HF/TD-DFT) =  -4069.75051626
 Copying the excited state density for this state as the 1-particle RhoCI density.

 Excited State   2:      Singlet-A      1.6887 eV  734.20 nm  f=0.7363  <S**2>=0.000
     309 -> 315        0.13660
     310 -> 316        0.11314
     311 -> 313        0.43855
     312 -> 314        0.52643

 Excited State   3:      Singlet-A      2.1847 eV  567.52 nm  f=0.0468  <S**2>=0.000
     309 -> 314        0.18442
     310 -> 313        0.61596
     311 -> 316       -0.26073

 Excited State   4:      Singlet-A      2.1927 eV  565.45 nm  f=0.1439  <S**2>=0.000
     309 -> 314        0.61376
     310 -> 313       -0.18301
     312 -> 315       -0.26691

 Excited State   5:      Singlet-A      2.7095 eV  457.59 nm  f=0.0000  <S**2>=0.000
     312 -> 313        0.70710

 The electronic state is 1-A.
 Alpha  occ. eigenvalues --  -46.87664 -46.87560 -19.26263 -19.26180 -19.19066
 Alpha  occ. eigenvalues --  -19.18906 -19.18710 -19.18650 -19.18041 -19.17951
 Alpha  occ. eigenvalues --  -14.42402 -14.42322 -14.41318 -14.41258 -14.39274
 Alpha  occ. eigenvalues --  -14.39256 -14.38496 -14.38452 -10.38996 -10.38965
 Alpha  occ. eigenvalues --  -10.35346 -10.35331 -10.34262 -10.34129 -10.31680
 Alpha  occ. eigenvalues --  -10.31590 -10.31275 -10.31209 -10.30936 -10.30788
 Alpha  occ. eigenvalues --  -10.30436 -10.30376 -10.30297 -10.30257 -10.30077
 Alpha  occ. eigenvalues --  -10.30044 -10.29790 -10.29787 -10.29501 -10.29342
 Alpha  occ. eigenvalues --  -10.29303 -10.29126 -10.28637 -10.28636 -10.28583
 Alpha  occ. eigenvalues --  -10.28441 -10.28310 -10.28238 -10.28058 -10.28002
 Alpha  occ. eigenvalues --  -10.27903 -10.27663 -10.27599 -10.27574 -10.27458
 Alpha  occ. eigenvalues --  -10.27404 -10.27393 -10.27388 -10.27374 -10.27367
 Alpha  occ. eigenvalues --  -10.27361 -10.27320 -10.27277 -10.27277 -10.27038
 Alpha  occ. eigenvalues --  -10.26957 -10.26611 -10.26594 -10.26378 -10.26325
 Alpha  occ. eigenvalues --  -10.26128 -10.26017 -10.25988 -10.25952 -10.25883
 Alpha  occ. eigenvalues --  -10.25826 -10.25719 -10.25689 -10.25323 -10.25322
 Alpha  occ. eigenvalues --  -10.24772 -10.24701 -10.24660 -10.24594 -10.24536
 Alpha  occ. eigenvalues --  -10.24490  -3.16407  -3.16309  -1.91288  -1.91191
 Alpha  occ. eigenvalues --   -1.90875  -1.90780  -1.90717  -1.90617  -1.16555
 Alpha  occ. eigenvalues --   -1.16526  -1.08558  -1.08499  -1.07113  -1.06905
 Alpha  occ. eigenvalues --   -1.06851  -1.06529  -1.04454  -1.04400  -1.03630
 Alpha  occ. eigenvalues --   -1.03566  -1.03102  -1.02938  -1.02280  -1.02012
 Alpha  occ. eigenvalues --   -0.91890  -0.91845  -0.89383  -0.89379  -0.89071
 Alpha  occ. eigenvalues --   -0.89065  -0.88151  -0.88111  -0.87732  -0.87685
 Alpha  occ. eigenvalues --   -0.87588  -0.87547  -0.87156  -0.87040  -0.84913
 Alpha  occ. eigenvalues --   -0.84865  -0.83796  -0.83760  -0.82855  -0.82854
 Alpha  occ. eigenvalues --   -0.82568  -0.82532  -0.81502  -0.81468  -0.80476
 Alpha  occ. eigenvalues --   -0.80352  -0.78672  -0.78544  -0.77089  -0.77049
 Alpha  occ. eigenvalues --   -0.76814  -0.76802  -0.75805  -0.75749  -0.74771
 Alpha  occ. eigenvalues --   -0.74704  -0.72642  -0.72597  -0.71549  -0.71489
 Alpha  occ. eigenvalues --   -0.69756  -0.69628  -0.68754  -0.68739  -0.67518
 Alpha  occ. eigenvalues --   -0.67509  -0.67121  -0.67107  -0.65182  -0.65166
 Alpha  occ. eigenvalues --   -0.64727  -0.64670  -0.64560  -0.64496  -0.64133
 Alpha  occ. eigenvalues --   -0.64093  -0.62184  -0.62180  -0.60320  -0.60253
 Alpha  occ. eigenvalues --   -0.59707  -0.59683  -0.58895  -0.58859  -0.58377
 Alpha  occ. eigenvalues --   -0.58328  -0.57462  -0.57458  -0.57182  -0.57140
 Alpha  occ. eigenvalues --   -0.56184  -0.56108  -0.55868  -0.55799  -0.55403
 Alpha  occ. eigenvalues --   -0.55370  -0.55208  -0.55142  -0.54396  -0.54381
 Alpha  occ. eigenvalues --   -0.53828  -0.53779  -0.53176  -0.53135  -0.53105
 Alpha  occ. eigenvalues --   -0.53054  -0.52809  -0.52793  -0.52645  -0.52599
 Alpha  occ. eigenvalues --   -0.52282  -0.52261  -0.51772  -0.51767  -0.51578
 Alpha  occ. eigenvalues --   -0.51502  -0.51098  -0.51066  -0.50462  -0.50403
 Alpha  occ. eigenvalues --   -0.49896  -0.49894  -0.49803  -0.49762  -0.49409
 Alpha  occ. eigenvalues --   -0.49401  -0.49115  -0.49093  -0.49013  -0.48979
 Alpha  occ. eigenvalues --   -0.48472  -0.48467  -0.48342  -0.48326  -0.48279
 Alpha  occ. eigenvalues --   -0.48264  -0.47574  -0.47505  -0.47177  -0.47032
 Alpha  occ. eigenvalues --   -0.46665  -0.46607  -0.46469  -0.46440  -0.46229
 Alpha  occ. eigenvalues --   -0.46170  -0.46033  -0.45985  -0.45721  -0.45695
 Alpha  occ. eigenvalues --   -0.45108  -0.45072  -0.44454  -0.44426  -0.44386
 Alpha  occ. eigenvalues --   -0.44379  -0.44039  -0.44013  -0.43971  -0.43968
 Alpha  occ. eigenvalues --   -0.43900  -0.43859  -0.43455  -0.43373  -0.43295
 Alpha  occ. eigenvalues --   -0.43262  -0.42901  -0.42838  -0.42804  -0.42583
 Alpha  occ. eigenvalues --   -0.42515  -0.42442  -0.41870  -0.41848  -0.41578
 Alpha  occ. eigenvalues --   -0.41572  -0.41415  -0.41364  -0.41019  -0.40899
 Alpha  occ. eigenvalues --   -0.40747  -0.40713  -0.40651  -0.40607  -0.40436
 Alpha  occ. eigenvalues --   -0.40383  -0.40150  -0.40124  -0.39289  -0.39284
 Alpha  occ. eigenvalues --   -0.38337  -0.38248  -0.37634  -0.37569  -0.37187
 Alpha  occ. eigenvalues --   -0.37162  -0.37143  -0.37108  -0.36677  -0.36595
 Alpha  occ. eigenvalues --   -0.36117  -0.36068  -0.34155  -0.34154  -0.33766
 Alpha  occ. eigenvalues --   -0.33653  -0.33076  -0.33057  -0.31240  -0.31209
 Alpha  occ. eigenvalues --   -0.30909  -0.30878  -0.29900  -0.29855  -0.29323
 Alpha  occ. eigenvalues --   -0.29236  -0.29189  -0.29109  -0.23950  -0.23937
 Alpha  occ. eigenvalues --   -0.21019  -0.20997
 Alpha virt. eigenvalues --   -0.08696  -0.08646  -0.01622  -0.01588   0.00052
 Alpha virt. eigenvalues --    0.00060   0.02308   0.02331   0.03280   0.03357
 Alpha virt. eigenvalues --    0.04821   0.04840   0.05214   0.05259   0.06262

 Mulliken charges:
               1
     1  Mg   0.839246
     2  C   -0.002960
     3  C   -0.094129
     4  C   -0.045900
     5  C   -0.063696
     6  N   -0.256756
     7  C   -0.052433
     8  C   -0.014050
     9  C   -0.086988
    10  C    0.046290
    11  C    0.104869
    12  C    0.053453
    13  C   -0.071606
    14  H    0.035662
    15  N   -0.433071
    16  C    0.168407
    17  C   -0.177256
    18  C   -0.004162
    19  C    0.148712
    20  C    0.110224
    21  C    0.012161
    22  O   -0.250005
    23  C    0.062509
    24  N   -0.341223
    25  C    0.041294
    26  C   -0.028059
    27  C   -0.024048
    28  C    0.075045
    29  C    0.076299
    30  C    0.035068
    31  C   -0.004592
    32  N   -0.310586
    33  C    0.080714
    34  C   -0.169123
    35  C    0.008382
    36  C    0.083293
    37  C    0.127180
    38  C    0.046351
    39  O   -0.188356
    40  C   -0.005460
    41  C    0.212871
    42  O   -0.256897
    43  O   -0.304835
    44  C    0.157812
    45  H   -0.017858
    46  H   -0.017130
    47  H   -0.041172
    48  H    0.000768
    49  H   -0.004111
    50  H    0.025368
    51  H    0.016393
    52  H    0.016434
    53  H    0.011463
    54  H    0.044147
    55  H    0.017733
    56  H    0.018005
    57  H    0.005810
    58  H    0.026468
    59  H    0.039540
    60  H    0.037264
    61  H    0.035047
    62  H    0.031596
    63  H    0.016447
    64  H    0.009268
    65  H    0.022862
    66  H    0.012345
    67  H    0.004622
    68  H    0.005951
    69  H    0.005091
    70  H    0.008205
    71  H    0.019667
    72  H    0.029229
    73  H    0.048179
    74  H    0.009523
    75  H    0.045716
    76  H    0.034959
    77  H    0.042802
    78  H    0.046239
    79  H    0.053479
    80  Mg   0.838329
    81  C   -0.016829
    82  C   -0.087888
    83  C   -0.045572
    84  C   -0.064557
    85  N   -0.254542
    86  C   -0.049768
    87  C   -0.015137
    88  C   -0.090470
    89  C    0.045708
    90  C    0.114441
    91  C    0.062543
    92  C   -0.077757
    93  H    0.034685
    94  N   -0.423370
    95  C    0.162846
    96  C   -0.174791
    97  C   -0.008067
    98  C    0.152089
    99  C    0.099422
   100  C    0.015355
   101  O   -0.253695
   102  C    0.061291
   103  N   -0.350142
   104  C    0.037568
   105  C   -0.019665
   106  C   -0.034906
   107  C    0.089199
   108  C    0.073816
   109  C    0.034643
   110  C   -0.007857
   111  N   -0.324264
   112  C    0.078884
   113  C   -0.162402
   114  C    0.002266
   115  C    0.096583
   116  C    0.131351
   117  C    0.042696
   118  O   -0.187675
   119  C    0.000783
   120  C    0.211228
   121  O   -0.250684
   122  O   -0.305725
   123  C    0.152093
   124  H   -0.019957
   125  H   -0.015966
   126  H   -0.039970
   127  H   -0.000778
   128  H   -0.004454
   129  H    0.022363
   130  H    0.014348
   131  H    0.016041
   132  H    0.014045
   133  H    0.037814
   134  H    0.020644
   135  H    0.019530
   136  H    0.008674
   137  H    0.025759
   138  H    0.039602
   139  H    0.038202
   140  H    0.035638
   141  H    0.033886
   142  H    0.014216
   143  H    0.012181
   144  H    0.024651
   145  H    0.011407
   146  H    0.005536
   147  H    0.005642
   148  H    0.004181
   149  H    0.010019
   150  H    0.020420
   151  H    0.030300
   152  H    0.046768
   153  H    0.009095
   154  H    0.046608
   155  H    0.034816
   156  H    0.043781
   157  H    0.049318
   158  H    0.053587
 Sum of Mulliken charges =  -0.00000

 Dipole moment (field-independent basis, Debye):
    X=              0.0696    Y=             -0.0292    Z=              7.2307  Tot=              7.2311
 Quadrupole moment (field-independent basis, Debye-Ang):
   XX=           -452.4515   YY=           -466.2041   ZZ=           -539.8614
   XY=             29.9968   XZ=              2.7300   YZ=             -2.9396

 Normal termination of Gaussian 16 at Sat Sep 11 06:28:09 2021.
