 Gaussian 16, Revision A.03,
 Gaussian 16:  ES64L-G16RevA.03 25-Dec-2016

 -----------------------------------
 #p cam-b3lyp/Def2SVP td=(nstates=5)
 -----------------------------------

 --------------------------------
 TDDFT excited states in gaussian
 --------------------------------
 Symbolic Z-matrix:
 Charge =  0 Multiplicity = 1

                         Standard orientation:
 ---------------------------------------------------------------------
 Center     Atomic      Atomic             Coordinates (Angstroms)
 Number     Number       Type             X           Y           Z
 ---------------------------------------------------------------------
      1         12           0        3.542512    1.588186    0.471567
      2          6           0        5.042361   -1.131619   -1.307570
      3          6           0        3.714134    3.382767   -2.425516
      4          6           0        2.643719    4.139722    2.126395
      5          6           0        4.523119    0.007577    3.418726
      6          7           0        4.301134    1.079608   -1.544986
      7          6           0        4.795867   -0.016488   -2.111541
      8          6           0        4.957563    0.105669   -3.656308
      9          6           0        5.056042    1.692602   -3.774392
     10          6           0        4.280973    2.077582   -2.526601
     11          6           0        6.479980    2.225459   -3.652063
     12          6           0        3.714984   -0.450366   -4.429972
     13          6           0        3.924178   -0.668969   -5.931240
     14          1           0        3.268674   -1.798810   -6.572429
     15          7           0        2.779314    3.305971   -0.136377
     16          6           0        2.937848    3.876564   -1.354809
     17          6           0        2.176860    5.143795   -1.313545
     18          6           0        1.720260    5.354921    0.088253
     19          6           0        2.393754    4.274750    0.762801
     20          6           0        1.908892    5.982489   -2.525377
     21          6           0        0.828211    6.375440    0.721436
     22          8           0        0.748423    6.515897    1.989694
     23          6           0        0.107712    7.277436   -0.195257
     24          7           0        3.765690    2.132764    2.474381
     25          6           0        3.231547    3.264992    2.945268
     26          6           0        3.272881    3.306149    4.444113
     27          6           0        3.729627    1.849978    4.913900
     28          6           0        3.962751    1.214899    3.520846
     29          6           0        4.207119    4.357254    5.059246
     30          6           0        2.806060    1.112347    5.915571
     31          6           0        1.495431    0.765471    5.245477
     32          7           0        4.436532   -0.316314    1.005095
     33          6           0        4.778483   -0.756157    2.292061
     34          6           0        5.452095   -2.058759    2.138622
     35          6           0        5.470104   -2.279849    0.762890
     36          6           0        4.870706   -1.172571    0.097346
     37          6           0        6.003997   -2.840690    3.191438
     38          6           0        5.878367   -3.182572   -0.301191
     39          8           0        6.349352   -4.320176   -0.340232
     40          6           0        5.727371   -2.419792   -1.690865
     41          6           0        5.011228   -3.341654   -2.639874
     42          8           0        3.819695   -3.658557   -2.447029
     43          8           0        5.758003   -3.513273   -3.741425
     44          6           0        5.091559   -4.394473   -4.737163
     45          1           0        3.931117    4.114371   -3.206294
     46          1           0        2.249342    4.949155    2.744233
     47          1           0        4.780944   -0.583649    4.299312
     48          1           0        5.861334   -0.354218   -4.056464
     49          1           0        4.550864    2.066557   -4.664715
     50          1           0        7.178291    1.436045   -3.374380
     51          1           0        6.439377    2.988626   -2.874618
     52          1           0        6.779803    2.742398   -4.564015
     53          1           0        2.938756    0.314236   -4.460214
     54          1           0        3.361169   -1.376958   -3.976576
     55          1           0        4.981942   -0.641354   -6.194453
     56          1           0        3.490414    0.177716   -6.463379
     57          1           0        2.509128    5.661024   -3.375625
     58          1           0        2.268548    6.986991   -2.303269
     59          1           0        0.847942    6.018317   -2.773234
     60          1           0        0.828979    7.822539   -0.804508
     61          1           0       -0.549187    7.880330    0.430724
     62          1           0       -0.486175    6.678131   -0.885968
     63          1           0        2.288210    3.522095    4.856686
     64          1           0        4.700553    1.865934    5.409604
     65          1           0        3.703983    5.047074    5.737263
     66          1           0        4.693099    4.893972    4.244968
     67          1           0        5.065373    3.949657    5.592802
     68          1           0        2.572703    1.757450    6.761935
     69          1           0        3.243536    0.194606    6.308784
     70          1           0        0.919419    1.684574    5.346932
     71          1           0        1.008686   -0.059821    5.766230
     72          1           0        1.629895    0.581187    4.179435
     73          1           0        5.712855   -3.871645    2.990593
     74          1           0        5.640543   -2.508676    4.163689
     75          1           0        7.067000   -2.643598    3.053473
     76          1           0        6.735580   -2.185028   -2.030752
     77          1           0        5.779778   -5.211467   -4.954211
     78          1           0        4.790028   -3.753288   -5.565635
     79          1           0        4.220265   -4.947529   -4.384580
     80         12           0       -3.673799   -1.734315    0.387049
     81          6           0       -4.657827    0.948495   -1.783951
     82          6           0       -3.773611    0.507136    2.956190
     83          6           0       -2.377357   -3.956144    2.244506
     84          6           0       -2.560824   -3.432928   -2.445217
     85          7           0       -4.166955    0.420872    0.452048
     86          6           0       -4.586375    1.320214   -0.425224
     87          6           0       -5.026391    2.671471    0.199328
     88          6           0       -4.172492    2.598070    1.557394
     89          6           0       -4.055350    1.081110    1.690769
     90          6           0       -2.773290    3.174969    1.420447
     91          6           0       -6.567200    2.721293    0.491594
     92          6           0       -7.116312    4.113270    0.811965
     93          1           0       -8.459365    4.454649    0.351400
     94          7           0       -3.613542   -1.879245    2.365415
     95          6           0       -3.690636   -0.869950    3.257979
     96          6           0       -3.577336   -1.496248    4.584279
     97          6           0       -3.261830   -2.938445    4.396582
     98          6           0       -3.046767   -2.976960    2.963976
     99          6           0       -3.841979   -0.752087    5.860834
    100          6           0       -3.156850   -4.089578    5.350564
    101          8           0       -2.637447   -5.208153    5.001502
    102          6           0       -3.594514   -3.838625    6.731486
    103          7           0       -2.431351   -3.353620   -0.008584
    104          6           0       -2.056363   -4.193188    0.972461
    105          6           0       -1.396995   -5.429732    0.409828
    106          6           0       -1.625324   -5.356713   -1.171352
    107          6           0       -2.330485   -3.985614   -1.262146
    108          6           0        0.095945   -5.578917    0.701828
    109          6           0       -2.303735   -6.582636   -1.841826
    110          6           0       -3.740291   -6.692046   -1.383863
    111          7           0       -3.771990   -1.427565   -1.749383
    112          6           0       -3.217906   -2.249125   -2.755419
    113          6           0       -3.445083   -1.569012   -4.047034
    114          6           0       -4.100369   -0.378559   -3.697883
    115          6           0       -4.251652   -0.311358   -2.286472
    116          6           0       -3.019368   -2.039593   -5.321180
    117          6           0       -4.689039    0.841493   -4.201510
    118          8           0       -4.929549    1.292492   -5.320657
    119          6           0       -4.963375    1.814160   -2.974702
    120          6           0       -6.362169    2.350239   -3.110733
    121          8           0       -7.342062    1.589855   -3.019922
    122          8           0       -6.320881    3.695099   -3.107759
    123          6           0       -7.685625    4.273457   -3.229374
    124          1           0       -3.553282    1.173464    3.790660
    125          1           0       -2.007755   -4.801417    2.829634
    126          1           0       -2.330831   -3.943534   -3.382799
    127          1           0       -4.744022    3.548617   -0.370470
    128          1           0       -4.726713    3.012852    2.395341
    129          1           0       -2.542028    3.432535    0.397550
    130          1           0       -2.101569    2.405556    1.777991
    131          1           0       -2.647490    4.023823    2.098648
    132          1           0       -6.767243    2.216315    1.445385
    133          1           0       -7.122856    2.291417   -0.319008
    134          1           0       -6.406509    4.906964    0.548920
    135          1           0       -7.227583    4.201513    1.895415
    136          1           0       -3.890103    0.330860    5.692587
    137          1           0       -2.962296   -0.888979    6.499017
    138          1           0       -4.723063   -1.122321    6.389325
    139          1           0       -3.013214   -3.021315    7.151667
    140          1           0       -3.527902   -4.802934    7.238972
    141          1           0       -4.638157   -3.505363    6.712630
    142          1           0       -1.868146   -6.327062    0.791847
    143          1           0       -0.674903   -5.257972   -1.716140
    144          1           0        0.347182   -6.524036    1.219231
    145          1           0        0.415773   -4.727767    1.288171
    146          1           0        0.745465   -5.516318   -0.169608
    147          1           0       -1.808113   -7.506044   -1.532263
    148          1           0       -2.278063   -6.551183   -2.925956
    149          1           0       -3.655094   -7.216074   -0.427186
    150          1           0       -4.327215   -7.266526   -2.097674
    151          1           0       -4.165107   -5.702130   -1.180784
    152          1           0       -3.844730   -1.882495   -6.002788
    153          1           0       -2.729499   -3.087534   -5.281454
    154          1           0       -2.162692   -1.383054   -5.495322
    155          1           0       -4.215589    2.607266   -3.011858
    156          1           0       -7.672235    4.944913   -4.093472
    157          1           0       -7.907705    4.724811   -2.244133
    158          1           0       -8.492823    3.601409   -3.496254
 ---------------------------------------------------------------------

 SCF Done:  E(RCAM-B3LYP) =  -4069.81303829     A.U. after   19 cycles

 Excitation energies and oscillator strengths:

 Excited State   1:      Singlet-A      1.6565 eV  748.47 nm  f=0.1904  <S**2>=0.000
     309 -> 315        0.10508
     310 -> 316        0.13242
     311 -> 313       -0.42905
     312 -> 314        0.53637
 This state for optimization and/or second-order correction.
 Total Energy, E(TD-HF/TD-DFT) =  -4069.75216314
 Copying the excited state density for this state as the 1-particle RhoCI density.

 Excited State   2:      Singlet-A      1.6832 eV  736.58 nm  f=0.4621  <S**2>=0.000
     309 -> 315       -0.13717
     310 -> 316        0.10926
     311 -> 313        0.53458
     312 -> 314        0.42773

 Excited State   3:      Singlet-A      2.1803 eV  568.66 nm  f=0.0736  <S**2>=0.000
     309 -> 313        0.26992
     310 -> 314        0.58524
     311 -> 315        0.11209
     312 -> 316       -0.24292

 Excited State   4:      Singlet-A      2.1931 eV  565.33 nm  f=0.1186  <S**2>=0.000
     309 -> 313        0.58115
     310 -> 314       -0.26720
     311 -> 315        0.25291
     312 -> 316        0.11738

 Excited State   5:      Singlet-A      2.2233 eV  557.66 nm  f=0.0000  <S**2>=0.000
     312 -> 313        0.70699

 The electronic state is 1-A.
 Alpha  occ. eigenvalues --  -46.87950 -46.87387 -19.26503 -19.26295 -19.19278
 Alpha  occ. eigenvalues --  -19.19071 -19.19062 -19.18508 -19.18339 -19.17909
 Alpha  occ. eigenvalues --  -14.42594 -14.42226 -14.41614 -14.41035 -14.39563
 Alpha  occ. eigenvalues --  -14.39092 -14.38739 -14.38345 -10.39321 -10.38997
 Alpha  occ. eigenvalues --  -10.35692 -10.35190 -10.34560 -10.34089 -10.31891
 Alpha  occ. eigenvalues --  -10.31729 -10.31536 -10.31058 -10.31057 -10.30779
 Alpha  occ. eigenvalues --  -10.30713 -10.30682 -10.30380 -10.30137 -10.30123
 Alpha  occ. eigenvalues --  -10.30099 -10.29795 -10.29778 -10.29547 -10.29412
 Alpha  occ. eigenvalues --  -10.29174 -10.29162 -10.28862 -10.28611 -10.28524
 Alpha  occ. eigenvalues --  -10.28514 -10.28509 -10.28216 -10.28171 -10.27947
 Alpha  occ. eigenvalues --  -10.27862 -10.27862 -10.27774 -10.27754 -10.27708
 Alpha  occ. eigenvalues --  -10.27672 -10.27577 -10.27564 -10.27395 -10.27336
 Alpha  occ. eigenvalues --  -10.27293 -10.27242 -10.27235 -10.26952 -10.26924
 Alpha  occ. eigenvalues --  -10.26802 -10.26799 -10.26647 -10.26517 -10.26427
 Alpha  occ. eigenvalues --  -10.26324 -10.26266 -10.26175 -10.25953 -10.25694
 Alpha  occ. eigenvalues --  -10.25693 -10.25650 -10.25640 -10.25610 -10.24989
 Alpha  occ. eigenvalues --  -10.24980 -10.24969 -10.24658 -10.24500 -10.24382
 Alpha  occ. eigenvalues --  -10.24366  -3.16692  -3.16138  -1.91573  -1.91160
 Alpha  occ. eigenvalues --   -1.91020  -1.91002  -1.90607  -1.90446  -1.16856
 Alpha  occ. eigenvalues --   -1.16579  -1.08801  -1.08531  -1.07467  -1.06886
 Alpha  occ. eigenvalues --   -1.06858  -1.06761  -1.04727  -1.04237  -1.03924
 Alpha  occ. eigenvalues --   -1.03395  -1.03386  -1.02738  -1.02571  -1.01826
 Alpha  occ. eigenvalues --   -0.92135  -0.91764  -0.89713  -0.89300  -0.89148
 Alpha  occ. eigenvalues --   -0.88889  -0.88483  -0.88009  -0.87814  -0.87793
 Alpha  occ. eigenvalues --   -0.87579  -0.87440  -0.87389  -0.86913  -0.85116
 Alpha  occ. eigenvalues --   -0.84748  -0.84148  -0.83461  -0.83170  -0.82808
 Alpha  occ. eigenvalues --   -0.82678  -0.82397  -0.81762  -0.81422  -0.80767
 Alpha  occ. eigenvalues --   -0.80231  -0.78948  -0.78414  -0.77380  -0.77083
 Alpha  occ. eigenvalues --   -0.76886  -0.76617  -0.76069  -0.75606  -0.75084
 Alpha  occ. eigenvalues --   -0.74334  -0.72928  -0.72433  -0.71830  -0.71233
 Alpha  occ. eigenvalues --   -0.70125  -0.69316  -0.69016  -0.68584  -0.67813
 Alpha  occ. eigenvalues --   -0.67355  -0.67344  -0.67001  -0.65424  -0.65049
 Alpha  occ. eigenvalues --   -0.65023  -0.64791  -0.64524  -0.64457  -0.64403
 Alpha  occ. eigenvalues --   -0.63817  -0.62492  -0.62086  -0.60617  -0.60071
 Alpha  occ. eigenvalues --   -0.59931  -0.59555  -0.59154  -0.58709  -0.58674
 Alpha  occ. eigenvalues --   -0.58167  -0.57767  -0.57499  -0.57404  -0.56933
 Alpha  occ. eigenvalues --   -0.56465  -0.56161  -0.55990  -0.55721  -0.55693
 Alpha  occ. eigenvalues --   -0.55544  -0.55272  -0.54928  -0.54734  -0.54149
 Alpha  occ. eigenvalues --   -0.54016  -0.53660  -0.53475  -0.53382  -0.53103
 Alpha  occ. eigenvalues --   -0.52984  -0.52922  -0.52907  -0.52687  -0.52668
 Alpha  occ. eigenvalues --   -0.52467  -0.52052  -0.52013  -0.51755  -0.51697
 Alpha  occ. eigenvalues --   -0.51459  -0.51364  -0.50968  -0.50741  -0.50264
 Alpha  occ. eigenvalues --   -0.50222  -0.50092  -0.49732  -0.49675  -0.49432
 Alpha  occ. eigenvalues --   -0.49379  -0.49262  -0.49227  -0.48997  -0.48869
 Alpha  occ. eigenvalues --   -0.48756  -0.48659  -0.48637  -0.48351  -0.48145
 Alpha  occ. eigenvalues --   -0.47942  -0.47859  -0.47459  -0.47328  -0.46959
 Alpha  occ. eigenvalues --   -0.46819  -0.46688  -0.46524  -0.46419  -0.46336
 Alpha  occ. eigenvalues --   -0.46268  -0.46010  -0.45978  -0.45753  -0.45595
 Alpha  occ. eigenvalues --   -0.45392  -0.44745  -0.44735  -0.44679  -0.44329
 Alpha  occ. eigenvalues --   -0.44290  -0.44226  -0.44213  -0.44186  -0.43898
 Alpha  occ. eigenvalues --   -0.43774  -0.43749  -0.43671  -0.43538  -0.43369
 Alpha  occ. eigenvalues --   -0.43191  -0.43090  -0.42908  -0.42873  -0.42795
 Alpha  occ. eigenvalues --   -0.42609  -0.42195  -0.42179  -0.41873  -0.41667
 Alpha  occ. eigenvalues --   -0.41659  -0.41410  -0.41296  -0.41184  -0.41045
 Alpha  occ. eigenvalues --   -0.41012  -0.40754  -0.40670  -0.40511  -0.40428
 Alpha  occ. eigenvalues --   -0.40345  -0.40067  -0.40038  -0.39674  -0.38996
 Alpha  occ. eigenvalues --   -0.38654  -0.37923  -0.37873  -0.37500  -0.37428
 Alpha  occ. eigenvalues --   -0.37398  -0.36986  -0.36930  -0.36883  -0.36610
 Alpha  occ. eigenvalues --   -0.36385  -0.35859  -0.34443  -0.34010  -0.33984
 Alpha  occ. eigenvalues --   -0.33735  -0.33353  -0.32901  -0.31585  -0.31203
 Alpha  occ. eigenvalues --   -0.31058  -0.30698  -0.30198  -0.29818  -0.29619
 Alpha  occ. eigenvalues --   -0.29477  -0.29106  -0.28994  -0.24238  -0.23762
 Alpha  occ. eigenvalues --   -0.21283  -0.20839
 Alpha virt. eigenvalues --   -0.08936  -0.08544  -0.01920  -0.01387  -0.00243
 Alpha virt. eigenvalues --    0.00185   0.02023   0.02331   0.02544   0.03611
 Alpha virt. eigenvalues --    0.04581   0.04873   0.05039   0.05273   0.06038

 Mulliken charges:
               1
     1  Mg   0.839078
     2  C   -0.003075
     3  C   -0.092737
     4  C   -0.047223
     5  C   -0.063455
     6  N   -0.256800
     7  C   -0.051925
     8  C   -0.014282
     9  C   -0.087251
    10  C    0.046392
    11  C    0.104664
    12  C    0.053179
    13  C   -0.072144
    14  H    0.035463
    15  N   -0.433243
    16  C    0.168513
    17  C   -0.176779
    18  C   -0.004957
    19  C    0.148917
    20  C    0.109892
    21  C    0.011098
    22  O   -0.251759
    23  C    0.062650
    24  N   -0.341136
    25  C    0.041700
    26  C   -0.027930
    27  C   -0.023854
    28  C    0.074648
    29  C    0.076170
    30  C    0.035161
    31  C   -0.004521
    32  N   -0.310628
    33  C    0.080722
    34  C   -0.169149
    35  C    0.008107
    36  C    0.083004
    37  C    0.127366
    38  C    0.045498
    39  O   -0.188391
    40  C   -0.005333
    41  C    0.213642
    42  O   -0.259596
    43  O   -0.304040
    44  C    0.158048
    45  H   -0.016834
    46  H   -0.017961
    47  H   -0.041128
    48  H    0.001022
    49  H   -0.002895
    50  H    0.025428
    51  H    0.016395
    52  H    0.017324
    53  H    0.012642
    54  H    0.042963
    55  H    0.018037
    56  H    0.019619
    57  H    0.007114
    58  H    0.026901
    59  H    0.040753
    60  H    0.038777
    61  H    0.034409
    62  H    0.031284
    63  H    0.014455
    64  H    0.009964
    65  H    0.022602
    66  H    0.013109
    67  H    0.005212
    68  H    0.005338
    69  H    0.006049
    70  H    0.004635
    71  H    0.018483
    72  H    0.031198
    73  H    0.048032
    74  H    0.009742
    75  H    0.046157
    76  H    0.035756
    77  H    0.043547
    78  H    0.047258
    79  H    0.051714
    80  Mg   0.836822
    81  C   -0.017619
    82  C   -0.088909
    83  C   -0.045503
    84  C   -0.061558
    85  N   -0.254990
    86  C   -0.050157
    87  C   -0.014728
    88  C   -0.090572
    89  C    0.045581
    90  C    0.113200
    91  C    0.062638
    92  C   -0.077391
    93  H    0.033700
    94  N   -0.423630
    95  C    0.163358
    96  C   -0.175051
    97  C   -0.008119
    98  C    0.152456
    99  C    0.099685
   100  C    0.014804
   101  O   -0.252590
   102  C    0.061576
   103  N   -0.350450
   104  C    0.039500
   105  C   -0.021518
   106  C   -0.035350
   107  C    0.089644
   108  C    0.069004
   109  C    0.034342
   110  C   -0.007331
   111  N   -0.323985
   112  C    0.077894
   113  C   -0.163533
   114  C    0.001069
   115  C    0.096422
   116  C    0.132092
   117  C    0.041151
   118  O   -0.190322
   119  C    0.001450
   120  C    0.211273
   121  O   -0.250792
   122  O   -0.306426
   123  C    0.152118
   124  H   -0.019014
   125  H   -0.014809
   126  H   -0.040125
   127  H   -0.003033
   128  H   -0.004445
   129  H    0.018566
   130  H    0.015043
   131  H    0.023862
   132  H    0.014000
   133  H    0.037145
   134  H    0.020229
   135  H    0.020006
   136  H    0.008975
   137  H    0.024616
   138  H    0.039256
   139  H    0.036893
   140  H    0.036026
   141  H    0.033805
   142  H    0.012697
   143  H    0.020907
   144  H    0.022975
   145  H    0.012448
   146  H    0.021658
   147  H    0.006978
   148  H    0.002405
   149  H    0.010654
   150  H    0.016375
   151  H    0.029005
   152  H    0.044847
   153  H    0.008885
   154  H    0.045062
   155  H    0.031970
   156  H    0.042740
   157  H    0.049709
   158  H    0.053634
 Sum of Mulliken charges =  -0.00000

 Dipole moment (field-independent basis, Debye):
    X=              2.3540    Y=              5.2930    Z=              1.2152  Tot=              5.9189
 Quadrupole moment (field-independent basis, Debye-Ang):
   XX=           -524.6568   YY=           -515.0642   ZZ=           -480.6158
   XY=              7.1022   XZ=            -37.4214   YZ=              8.8004

 Normal termination of Gaussian 16 at Fri Sep  3 14:57:00 2021.
