 Gaussian 16, Revision A.03,
 Gaussian 16:  ES64L-G16RevA.03 25-Dec-2016

 -----------------------------------
 #p cam-b3lyp/Def2SVP td=(nstates=5)
 -----------------------------------

 --------------------------------
 TDDFT excited states in gaussian
 --------------------------------
 Symbolic Z-matrix:
 Charge =  0 Multiplicity = 1

                         Standard orientation:
 ---------------------------------------------------------------------
 Center     Atomic      Atomic             Coordinates (Angstroms)
 Number     Number       Type             X           Y           Z
 ---------------------------------------------------------------------
      1         12           0       -5.138641    0.709859   -0.735370
      2          6           0       -5.670532   -2.601370    0.515656
      3          6           0       -6.485320    1.866798    2.178564
      4          6           0       -5.099328    3.618284   -1.998754
      5          6           0       -4.907607   -0.689014   -3.918990
      6          7           0       -5.938340   -0.333634    1.045711
      7          6           0       -6.029845   -1.604342    1.425313
      8          6           0       -6.472537   -1.775489    2.909262
      9          6           0       -7.223682   -0.383554    3.110003
     10          6           0       -6.482296    0.444025    2.074927
     11          6           0       -8.701581   -0.429211    2.735529
     12          6           0       -5.252859   -1.913706    3.881380
     13          6           0       -5.593123   -2.407615    5.290504
     14          1           0       -4.647806   -3.276353    5.975352
     15          7           0       -5.245958    2.483405    0.128266
     16          6           0       -5.815358    2.768808    1.323931
     17          6           0       -5.637864    4.223291    1.523072
     18          6           0       -5.087872    4.791570    0.261065
     19          6           0       -5.147742    3.643374   -0.606945
     20          6           0       -5.931125    4.918448    2.817098
     21          6           0       -4.597490    6.156025   -0.107606
     22          8           0       -4.379339    6.495599   -1.320731
     23          6           0       -4.461877    7.125393    0.994655
     24          7           0       -5.239269    1.405767   -2.700878
     25          6           0       -5.142290    2.710971   -2.976600
     26          6           0       -4.955899    2.946197   -4.446248
     27          6           0       -4.701052    1.509583   -5.095052
     28          6           0       -4.876599    0.642196   -3.824189
     29          6           0       -6.124294    3.632001   -5.167730
     30          6           0       -3.410204    1.335895   -5.934076
     31          6           0       -2.197510    1.429350   -5.035334
     32          7           0       -5.085258   -1.294940   -1.565416
     33          6           0       -5.008286   -1.644293   -2.921404
     34          6           0       -5.110787   -3.113330   -2.995511
     35          6           0       -5.257871   -3.517918   -1.670173
     36          6           0       -5.274229   -2.372288   -0.824268
     37          6           0       -5.121550   -3.888851   -4.188358
     38          6           0       -5.429743   -4.649923   -0.774136
     39          8           0       -5.398478   -5.874129   -0.907685
     40          6           0       -5.825990   -4.094409    0.664689
     41          6           0       -4.959797   -4.794046    1.676385
     42          8           0       -3.728098   -4.596174    1.709978
     43          8           0       -5.738809   -5.395363    2.588580
     44          6           0       -4.941323   -6.083748    3.638482
     45          1           0       -7.102457    2.338837    2.945546
     46          1           0       -4.973654    4.596283   -2.467969
     47          1           0       -4.758682   -1.201872   -4.870963
     48          1           0       -7.163481   -2.600149    3.085207
     49          1           0       -7.063459    0.025186    4.107491
     50          1           0       -8.965324   -1.378472    2.269412
     51          1           0       -8.849919    0.392993    2.035194
     52          1           0       -9.327236   -0.203499    3.599466
     53          1           0       -4.869268   -0.921762    4.120058
     54          1           0       -4.485990   -2.557426    3.449105
     55          1           0       -6.598403   -2.827683    5.333693
     56          1           0       -5.631465   -1.544384    5.955005
     57          1           0       -6.477209    4.272827    3.503765
     58          1           0       -6.626558    5.727226    2.593582
     59          1           0       -5.030638    5.324737    3.277950
     60          1           0       -5.429686    7.257476    1.478855
     61          1           0       -4.014891    8.017454    0.557299
     62          1           0       -3.795111    6.709507    1.750572
     63          1           0       -4.091231    3.581422   -4.634038
     64          1           0       -5.501796    1.220531   -5.776178
     65          1           0       -5.842591    4.551455   -5.681492
     66          1           0       -6.909835    3.817910   -4.435846
     67          1           0       -6.645801    3.005643   -5.891003
     68          1           0       -3.326152    2.134589   -6.670262
     69          1           0       -3.368656    0.386654   -6.468367
     70          1           0       -2.035641    2.503740   -4.955852
     71          1           0       -1.341302    0.938820   -5.499554
     72          1           0       -2.414673    1.057569   -4.033783
     73          1           0       -4.473637   -4.745123   -4.001342
     74          1           0       -4.773268   -3.307494   -5.041779
     75          1           0       -6.180199   -4.138583   -4.257304
     76          1           0       -6.882976   -4.317458    0.806645
     77          1           0       -5.264108   -7.124778    3.655805
     78          1           0       -5.062823   -5.501070    4.551789
     79          1           0       -3.876425   -6.201836    3.435045
     80         12           0        5.294788    0.347105    1.046923
     81          6           0        5.613292   -0.919856   -2.295594
     82          6           0        4.145952   -2.736045    1.946330
     83          6           0        4.578646    1.553594    3.892794
     84          6           0        5.364638    3.555881   -0.311243
     85          7           0        4.967379   -1.506622   -0.114421
     86          6           0        5.182021   -1.887712   -1.364638
     87          6           0        4.996750   -3.408537   -1.614282
     88          6           0        4.005926   -3.733742   -0.393059
     89          6           0        4.416838   -2.613315    0.560087
     90          6           0        2.538678   -3.549075   -0.742932
     91          6           0        6.343745   -4.203381   -1.488415
     92          6           0        6.296288   -5.637515   -2.020154
     93          1           0        7.486746   -6.178595   -2.670155
     94          7           0        4.951894   -0.561466    2.777672
     95          6           0        4.509433   -1.823215    2.960701
     96          6           0        4.401449   -2.004471    4.416605
     97          6           0        4.658579   -0.693751    5.072830
     98          6           0        4.720532    0.173746    3.913644
     99          6           0        4.159984   -3.341749    5.054421
    100          6           0        4.809387   -0.286185    6.507168
    101          8           0        4.791478    0.945111    6.862752
    102          6           0        4.884911   -1.373962    7.493333
    103          7           0        4.799590    2.263927    1.681699
    104          6           0        4.586619    2.527865    2.982812
    105          6           0        4.518906    4.015426    3.233683
    106          6           0        4.973670    4.703342    1.863440
    107          6           0        5.147474    3.440323    0.991693
    108          6           0        3.151126    4.558901    3.646250
    109          6           0        6.149112    5.715801    1.940462
    110          6           0        7.428787    4.994722    2.298065
    111          7           0        5.641865    1.201919   -0.906761
    112          6           0        5.598774    2.568526   -1.259778
    113          6           0        5.786169    2.646312   -2.723082
    114          6           0        5.903205    1.307520   -3.126110
    115          6           0        5.776090    0.454515   -1.996635
    116          6           0        5.781689    3.838930   -3.500096
    117          6           0        6.094734    0.421437   -4.251661
    118          8           0        6.346566    0.576097   -5.445975
    119          6           0        5.789146   -1.065877   -3.781651
    120          6           0        6.905661   -1.946575   -4.271856
    121          8           0        8.061254   -1.804279   -3.834866
    122          8           0        6.387298   -2.946865   -5.007443
    123          6           0        7.454969   -3.853719   -5.506955
    124          1           0        3.562722   -3.591927    2.287209
    125          1           0        4.440547    2.028159    4.867060
    126          1           0        5.496453    4.524876   -0.797405
    127          1           0        4.522149   -3.659915   -2.555207
    128          1           0        4.223133   -4.704932    0.043943
    129          1           0        2.409822   -3.114364   -1.723021
    130          1           0        2.135115   -2.893627    0.017703
    131          1           0        2.003928   -4.497442   -0.638206
    132          1           0        6.544074   -4.402763   -0.427822
    133          1           0        7.146409   -3.669806   -1.959223
    134          1           0        5.406368   -5.820038   -2.634714
    135          1           0        6.181178   -6.318072   -1.173031
    136          1           0        3.846553   -4.089245    4.315230
    137          1           0        3.291597   -3.229935    5.712652
    138          1           0        5.010549   -3.685593    5.646842
    139          1           0        3.987383   -1.984310    7.427210
    140          1           0        5.080840   -0.887327    8.450772
    141          1           0        5.727569   -2.024209    7.233124
    142          1           0        5.206265    4.306974    4.018317
    143          1           0        4.159117    5.287817    1.410983
    144          1           0        3.168969    5.098117    4.612172
    145          1           0        2.453134    3.733142    3.684568
    146          1           0        2.681802    5.224793    2.924100
    147          1           0        5.970442    6.443761    2.735630
    148          1           0        6.300237    6.272874    1.021865
    149          1           0        7.373498    4.919883    3.388222
    150          1           0        8.295171    5.574210    1.985657
    151          1           0        7.430786    3.974414    1.897291
    152          1           0        6.600431    3.756015   -4.202438
    153          1           0        5.882673    4.722348   -2.873083
    154          1           0        4.790585    3.770623   -3.956517
    155          1           0        4.825818   -1.352004   -4.205557
    156          1           0        7.351242   -3.900273   -6.595415
    157          1           0        7.328867   -4.799995   -4.948009
    158          1           0        8.481803   -3.522150   -5.406346
 ---------------------------------------------------------------------

 SCF Done:  E(RCAM-B3LYP) =  -4069.81236565     A.U. after   19 cycles

 Excitation energies and oscillator strengths:

 Excited State   1:      Singlet-A      1.6733 eV  740.96 nm  f=0.3566  <S**2>=0.000
     310 -> 316        0.16987
     311 -> 313        0.10963
     312 -> 314        0.67717
     310 <- 316        0.10251
 This state for optimization and/or second-order correction.
 Total Energy, E(TD-HF/TD-DFT) =  -4069.75087367
 Copying the excited state density for this state as the 1-particle RhoCI density.

 Excited State   2:      Singlet-A      1.6779 eV  738.92 nm  f=0.3445  <S**2>=0.000
     309 -> 315        0.17284
     311 -> 313        0.67683
     312 -> 314       -0.10978
     309 <- 315        0.10376

 Excited State   3:      Singlet-A      2.1849 eV  567.47 nm  f=0.1012  <S**2>=0.000
     310 -> 314        0.64090
     312 -> 316       -0.27036

 Excited State   4:      Singlet-A      2.1927 eV  565.43 nm  f=0.0969  <S**2>=0.000
     309 -> 313        0.63893
     311 -> 315       -0.27726

 Excited State   5:      Singlet-A      2.4761 eV  500.72 nm  f=0.0000  <S**2>=0.000
     312 -> 313        0.70709

 The electronic state is 1-A.
 Alpha  occ. eigenvalues --  -46.87896 -46.87481 -19.26510 -19.26192 -19.19254
 Alpha  occ. eigenvalues --  -19.19004 -19.18905 -19.18598 -19.18317 -19.17898
 Alpha  occ. eigenvalues --  -14.42551 -14.42293 -14.41540 -14.41191 -14.39501
 Alpha  occ. eigenvalues --  -14.39176 -14.38694 -14.38426 -10.39302 -10.38932
 Alpha  occ. eigenvalues --  -10.35537 -10.35277 -10.34539 -10.34073 -10.31928
 Alpha  occ. eigenvalues --  -10.31606 -10.31515 -10.31084 -10.31015 -10.30816
 Alpha  occ. eigenvalues --  -10.30678 -10.30610 -10.30282 -10.30240 -10.30177
 Alpha  occ. eigenvalues --  -10.30012 -10.29979 -10.29748 -10.29735 -10.29347
 Alpha  occ. eigenvalues --  -10.29261 -10.29241 -10.28871 -10.28688 -10.28475
 Alpha  occ. eigenvalues --  -10.28448 -10.28415 -10.28225 -10.28224 -10.27901
 Alpha  occ. eigenvalues --  -10.27829 -10.27824 -10.27805 -10.27685 -10.27559
 Alpha  occ. eigenvalues --  -10.27542 -10.27516 -10.27499 -10.27443 -10.27406
 Alpha  occ. eigenvalues --  -10.27314 -10.27307 -10.27301 -10.27283 -10.27278
 Alpha  occ. eigenvalues --  -10.26883 -10.26847 -10.26493 -10.26457 -10.26332
 Alpha  occ. eigenvalues --  -10.26321 -10.26189 -10.26106 -10.26045 -10.25960
 Alpha  occ. eigenvalues --  -10.25767 -10.25708 -10.25522 -10.25476 -10.25357
 Alpha  occ. eigenvalues --  -10.24948 -10.24881 -10.24703 -10.24679 -10.24642
 Alpha  occ. eigenvalues --  -10.24534  -3.16638  -3.16231  -1.91520  -1.91114
 Alpha  occ. eigenvalues --   -1.91106  -1.90949  -1.90702  -1.90539  -1.16858
 Alpha  occ. eigenvalues --   -1.16486  -1.08783  -1.08507  -1.07305  -1.06872
 Alpha  occ. eigenvalues --   -1.06853  -1.06789  -1.04685  -1.04292  -1.03854
 Alpha  occ. eigenvalues --   -1.03484  -1.03334  -1.02873  -1.02510  -1.01939
 Alpha  occ. eigenvalues --   -0.92093  -0.91808  -0.89590  -0.89351  -0.89301
 Alpha  occ. eigenvalues --   -0.88865  -0.88352  -0.88094  -0.87982  -0.87774
 Alpha  occ. eigenvalues --   -0.87628  -0.87485  -0.87367  -0.86964  -0.85096
 Alpha  occ. eigenvalues --   -0.84765  -0.84001  -0.83762  -0.83047  -0.82804
 Alpha  occ. eigenvalues --   -0.82763  -0.82442  -0.81739  -0.81427  -0.80719
 Alpha  occ. eigenvalues --   -0.80270  -0.78895  -0.78467  -0.77312  -0.77054
 Alpha  occ. eigenvalues --   -0.76956  -0.76696  -0.76048  -0.75602  -0.74976
 Alpha  occ. eigenvalues --   -0.74671  -0.72873  -0.72521  -0.71772  -0.71386
 Alpha  occ. eigenvalues --   -0.69950  -0.69638  -0.68984  -0.68607  -0.67750
 Alpha  occ. eigenvalues --   -0.67438  -0.67337  -0.67001  -0.65406  -0.65050
 Alpha  occ. eigenvalues --   -0.64973  -0.64731  -0.64594  -0.64464  -0.64343
 Alpha  occ. eigenvalues --   -0.64062  -0.62458  -0.62118  -0.60530  -0.60191
 Alpha  occ. eigenvalues --   -0.59915  -0.59552  -0.59091  -0.58820  -0.58614
 Alpha  occ. eigenvalues --   -0.58258  -0.57743  -0.57406  -0.57389  -0.57093
 Alpha  occ. eigenvalues --   -0.56424  -0.56149  -0.56028  -0.55713  -0.55628
 Alpha  occ. eigenvalues --   -0.55442  -0.55287  -0.55114  -0.54645  -0.54352
 Alpha  occ. eigenvalues --   -0.54013  -0.53644  -0.53398  -0.53339  -0.53069
 Alpha  occ. eigenvalues --   -0.53050  -0.52959  -0.52855  -0.52716  -0.52479
 Alpha  occ. eigenvalues --   -0.52477  -0.52287  -0.52034  -0.51737  -0.51732
 Alpha  occ. eigenvalues --   -0.51445  -0.51309  -0.51032  -0.50653  -0.50326
 Alpha  occ. eigenvalues --   -0.50093  -0.50010  -0.49806  -0.49707  -0.49628
 Alpha  occ. eigenvalues --   -0.49335  -0.49292  -0.49214  -0.49012  -0.48857
 Alpha  occ. eigenvalues --   -0.48727  -0.48563  -0.48538  -0.48354  -0.48255
 Alpha  occ. eigenvalues --   -0.48186  -0.47797  -0.47407  -0.47396  -0.46955
 Alpha  occ. eigenvalues --   -0.46890  -0.46675  -0.46530  -0.46463  -0.46312
 Alpha  occ. eigenvalues --   -0.46270  -0.46109  -0.45961  -0.45942  -0.45648
 Alpha  occ. eigenvalues --   -0.45272  -0.45084  -0.44710  -0.44599  -0.44352
 Alpha  occ. eigenvalues --   -0.44259  -0.44245  -0.44188  -0.44136  -0.43938
 Alpha  occ. eigenvalues --   -0.43894  -0.43769  -0.43643  -0.43482  -0.43387
 Alpha  occ. eigenvalues --   -0.43188  -0.43134  -0.42886  -0.42770  -0.42731
 Alpha  occ. eigenvalues --   -0.42721  -0.42418  -0.42093  -0.41815  -0.41805
 Alpha  occ. eigenvalues --   -0.41643  -0.41495  -0.41249  -0.41242  -0.40967
 Alpha  occ. eigenvalues --   -0.40917  -0.40777  -0.40640  -0.40567  -0.40496
 Alpha  occ. eigenvalues --   -0.40358  -0.40318  -0.40002  -0.39475  -0.39309
 Alpha  occ. eigenvalues --   -0.38538  -0.38207  -0.37874  -0.37438  -0.37397
 Alpha  occ. eigenvalues --   -0.37384  -0.37105  -0.36982  -0.36892  -0.36620
 Alpha  occ. eigenvalues --   -0.36312  -0.36057  -0.34390  -0.34075  -0.33983
 Alpha  occ. eigenvalues --   -0.33702  -0.33295  -0.32999  -0.31435  -0.31156
 Alpha  occ. eigenvalues --   -0.31139  -0.30793  -0.30179  -0.29802  -0.29552
 Alpha  occ. eigenvalues --   -0.29434  -0.29166  -0.29046  -0.24183  -0.23855
 Alpha  occ. eigenvalues --   -0.21226  -0.20937
 Alpha virt. eigenvalues --   -0.08877  -0.08620  -0.01844  -0.01514  -0.00161
 Alpha virt. eigenvalues --    0.00140   0.02080   0.02362   0.03007   0.03389
 Alpha virt. eigenvalues --    0.04610   0.04890   0.04947   0.05326   0.06039

 Mulliken charges:
               1
     1  Mg   0.838668
     2  C   -0.003486
     3  C   -0.093973
     4  C   -0.045688
     5  C   -0.063742
     6  N   -0.256869
     7  C   -0.052540
     8  C   -0.014070
     9  C   -0.087075
    10  C    0.046410
    11  C    0.104734
    12  C    0.053431
    13  C   -0.071568
    14  H    0.034827
    15  N   -0.433188
    16  C    0.168617
    17  C   -0.176897
    18  C   -0.003821
    19  C    0.148839
    20  C    0.110070
    21  C    0.012256
    22  O   -0.249309
    23  C    0.062439
    24  N   -0.341156
    25  C    0.041464
    26  C   -0.028286
    27  C   -0.024046
    28  C    0.074843
    29  C    0.076077
    30  C    0.035010
    31  C   -0.004712
    32  N   -0.310268
    33  C    0.080065
    34  C   -0.170205
    35  C    0.007940
    36  C    0.082574
    37  C    0.127484
    38  C    0.045312
    39  O   -0.189332
    40  C   -0.005099
    41  C    0.212997
    42  O   -0.258914
    43  O   -0.304221
    44  C    0.158198
    45  H   -0.017340
    46  H   -0.016474
    47  H   -0.041192
    48  H    0.000827
    49  H   -0.003785
    50  H    0.025462
    51  H    0.016661
    52  H    0.016912
    53  H    0.011782
    54  H    0.043010
    55  H    0.018110
    56  H    0.018661
    57  H    0.006118
    58  H    0.027079
    59  H    0.039948
    60  H    0.037625
    61  H    0.035682
    62  H    0.031409
    63  H    0.016952
    64  H    0.009625
    65  H    0.023604
    66  H    0.012419
    67  H    0.005007
    68  H    0.007136
    69  H    0.004895
    70  H    0.009056
    71  H    0.019516
    72  H    0.028029
    73  H    0.046578
    74  H    0.009535
    75  H    0.046236
    76  H    0.035428
    77  H    0.043078
    78  H    0.046801
    79  H    0.051816
    80  Mg   0.837821
    81  C   -0.016829
    82  C   -0.086937
    83  C   -0.046061
    84  C   -0.064988
    85  N   -0.254770
    86  C   -0.049314
    87  C   -0.015231
    88  C   -0.090371
    89  C    0.045375
    90  C    0.113760
    91  C    0.062437
    92  C   -0.077737
    93  H    0.033773
    94  N   -0.423593
    95  C    0.162694
    96  C   -0.173776
    97  C   -0.008485
    98  C    0.152589
    99  C    0.099235
   100  C    0.015223
   101  O   -0.254132
   102  C    0.061339
   103  N   -0.350034
   104  C    0.037600
   105  C   -0.019693
   106  C   -0.034889
   107  C    0.088821
   108  C    0.073973
   109  C    0.034916
   110  C   -0.007581
   111  N   -0.324014
   112  C    0.078272
   113  C   -0.163406
   114  C    0.002069
   115  C    0.096149
   116  C    0.131577
   117  C    0.041953
   118  O   -0.188680
   119  C    0.001132
   120  C    0.211266
   121  O   -0.251232
   122  O   -0.305507
   123  C    0.152162
   124  H   -0.016644
   125  H   -0.016560
   126  H   -0.040818
   127  H   -0.000439
   128  H   -0.004075
   129  H    0.021386
   130  H    0.016574
   131  H    0.021578
   132  H    0.013613
   133  H    0.036966
   134  H    0.021598
   135  H    0.019951
   136  H    0.010191
   137  H    0.026143
   138  H    0.039157
   139  H    0.038117
   140  H    0.035573
   141  H    0.033988
   142  H    0.013951
   143  H    0.012421
   144  H    0.023943
   145  H    0.011293
   146  H    0.005144
   147  H    0.005529
   148  H    0.003656
   149  H    0.010571
   150  H    0.017632
   151  H    0.030486
   152  H    0.045532
   153  H    0.008296
   154  H    0.046768
   155  H    0.034991
   156  H    0.043430
   157  H    0.049930
   158  H    0.053253
 Sum of Mulliken charges =  -0.00000

 Dipole moment (field-independent basis, Debye):
    X=             -5.0775    Y=             -0.0928    Z=              4.7855  Tot=              6.9779
 Quadrupole moment (field-independent basis, Debye-Ang):
   XX=           -519.3669   YY=           -499.1285   ZZ=           -500.5926
   XY=            -28.7076   XZ=             -3.6411   YZ=             -0.8562

 Normal termination of Gaussian 16 at Sat Sep 11 02:36:45 2021.
