 Gaussian 16, Revision A.03,
 Gaussian 16:  ES64L-G16RevA.03 25-Dec-2016

 -----------------------------------
 #p cam-b3lyp/Def2SVP td=(nstates=5)
 -----------------------------------

 --------------------------------
 TDDFT excited states in gaussian
 --------------------------------
 Symbolic Z-matrix:
 Charge =  0 Multiplicity = 1

                         Standard orientation:
 ---------------------------------------------------------------------
 Center     Atomic      Atomic             Coordinates (Angstroms)
 Number     Number       Type             X           Y           Z
 ---------------------------------------------------------------------
      1         12           0       -4.300876   -0.928493    0.283794
      2          6           0       -4.579050    1.916815    2.437640
      3          6           0       -5.442406    1.059607   -2.243543
      4          6           0       -4.496517   -3.525973   -1.524920
      5          6           0       -4.282373   -2.911232    3.149813
      6          7           0       -4.899041    1.202173    0.228070
      7          6           0       -4.902298    2.198275    1.108379
      8          6           0       -5.208523    3.586053    0.469887
      9          6           0       -5.999649    3.098105   -0.825498
     10          6           0       -5.386295    1.717466   -0.978986
     11          6           0       -7.500773    2.946560   -0.601526
     12          6           0       -3.905285    4.364414    0.085890
     13          6           0       -4.101899    5.848274   -0.237927
     14          1           0       -3.064515    6.792753    0.148260
     15          7           0       -4.411051   -1.117152   -1.679652
     16          6           0       -4.887949   -0.200526   -2.555810
     17          6           0       -4.757587   -0.811466   -3.896123
     18          6           0       -4.342865   -2.229889   -3.711256
     19          6           0       -4.426716   -2.356756   -2.278688
     20          6           0       -4.969053   -0.052829   -5.170290
     21          6           0       -3.945721   -3.304046   -4.673854
     22          8           0       -3.847163   -4.529466   -4.322844
     23          6           0       -3.758645   -2.892459   -6.076936
     24          7           0       -4.599519   -2.946870    0.724930
     25          6           0       -4.583427   -3.873675   -0.239309
     26          6           0       -4.533887   -5.258422    0.335113
     27          6           0       -4.273158   -5.078715    1.900194
     28          6           0       -4.301379   -3.531825    1.968046
     29          6           0       -5.788485   -6.116660    0.121990
     30          6           0       -3.052495   -5.821142    2.499531
     31          6           0       -1.772576   -5.225650    1.957040
     32          7           0       -4.231439   -0.585023    2.425814
     33          6           0       -4.255626   -1.556674    3.436746
     34          6           0       -4.300011   -0.839478    4.724274
     35          6           0       -4.315396    0.508177    4.370106
     36          6           0       -4.309201    0.624977    2.950736
     37          6           0       -4.379007   -1.441283    6.011140
     38          6           0       -4.360504    1.876258    4.860182
     39          8           0       -4.287490    2.402013    5.971822
     40          6           0       -4.656010    2.840480    3.627794
     41          6           0       -3.676784    3.980458    3.697623
     42          8           0       -2.456518    3.787313    3.521519
     43          8           0       -4.347959    5.142104    3.723012
     44          6           0       -3.434344    6.315088    3.762627
     45          1           0       -6.011629    1.520213   -3.053339
     46          1           0       -4.454167   -4.447728   -2.108881
     47          1           0       -4.193250   -3.462181    4.087877
     48          1           0       -5.845303    4.233345    1.073169
     49          1           0       -5.772623    3.712572   -1.696482
     50          1           0       -7.761833    3.074991    0.448842
     51          1           0       -7.744157    1.937119   -0.933620
     52          1           0       -8.059449    3.619153   -1.252891
     53          1           0       -3.546248    4.009685   -0.880196
     54          1           0       -3.150907    4.262707    0.866848
     55          1           0       -5.080543    6.201209    0.088573
     56          1           0       -4.120807    5.961715   -1.321889
     57          1           0       -5.425742    0.918917   -4.986740
     58          1           0       -5.715624   -0.599408   -5.746130
     59          1           0       -4.050991    0.038001   -5.751018
     60          1           0       -4.686307   -2.459379   -6.451681
     61          1           0       -3.389998   -3.772947   -6.601997
     62          1           0       -3.012169   -2.098585   -6.115493
     63          1           0       -3.716948   -5.833053   -0.099440
     64          1           0       -5.115890   -5.426941    2.497869
     65          1           0       -5.592088   -7.060349   -0.387503
     66          1           0       -6.515874   -5.519646   -0.427348
     67          1           0       -6.342185   -6.350443    1.030933
     68          1           0       -3.066607   -6.870829    2.208147
     69          1           0       -3.015509   -5.779618    3.588181
     70          1           0       -1.651449   -5.737096    1.002795
     71          1           0       -0.938678   -5.443241    2.625231
     72          1           0       -1.886850   -4.162474    1.744711
     73          1           0       -3.680790   -0.896145    6.646190
     74          1           0       -4.130674   -2.501521    5.968369
     75          1           0       -5.427787   -1.267423    6.251327
     76          1           0       -5.686252    3.178655    3.734374
     77          1           0       -3.708813    6.906358    4.636298
     78          1           0       -3.502518    6.794094    2.785738
     79          1           0       -2.386628    6.102961    3.978573
     80         12           0        4.659366   -0.330128   -0.178549
     81          6           0        3.150080    1.891046   -2.559212
     82          6           0        6.580499    2.300394    0.833467
     83          6           0        6.317756   -2.358217    1.611417
     84          6           0        3.476973   -2.979520   -2.109437
     85          7           0        4.759687    1.774316   -0.851988
     86          6           0        4.094937    2.519886   -1.721801
     87          6           0        4.405888    4.038347   -1.637292
     88          6           0        5.864666    3.948405   -0.971907
     89          6           0        5.723168    2.608366   -0.252925
     90          6           0        6.984843    3.827367   -1.991658
     91          6           0        3.397914    4.804198   -0.710213
     92          6           0        3.450741    6.329309   -0.824227
     93          1           0        2.205374    7.080608   -0.693576
     94          7           0        5.860076    0.005336    1.365567
     95          6           0        6.542093    1.138287    1.634939
     96          6           0        7.294666    0.870768    2.870343
     97          6           0        7.130023   -0.566880    3.217899
     98          6           0        6.431349   -1.044153    2.041391
     99          6           0        8.006701    1.946168    3.638419
    100          6           0        7.545396   -1.380489    4.406050
    101          8           0        7.508639   -2.661598    4.390984
    102          6           0        8.084464   -0.636641    5.553904
    103          7           0        5.051625   -2.364762   -0.347969
    104          6           0        5.756369   -3.013855    0.595395
    105          6           0        5.675911   -4.509586    0.403827
    106          6           0        4.567955   -4.738989   -0.726378
    107          6           0        4.249606   -3.267511   -1.071043
    108          6           0        6.976006   -5.197987   -0.011194
    109          6           0        3.389258   -5.687333   -0.374243
    110          6           0        2.528415   -5.063589    0.700605
    111          7           0        3.367983   -0.547326   -1.897047
    112          6           0        3.026028   -1.745785   -2.561003
    113          6           0        2.217103   -1.374701   -3.740145
    114          6           0        2.163479    0.026508   -3.692821
    115          6           0        2.904755    0.496666   -2.575258
    116          6           0        1.687505   -2.278807   -4.703588
    117          6           0        1.657221    1.215352   -4.340171
    118          8           0        0.894055    1.434661   -5.279959
    119          6           0        2.378994    2.481940   -3.706767
    120          6           0        1.324712    3.506567   -3.388725
    121          8           0        0.463875    3.279168   -2.520479
    122          8           0        1.635079    4.663182   -4.002150
    123          6           0        0.624489    5.713875   -3.707935
    124          1           0        7.387526    2.994276    1.070384
    125          1           0        6.780244   -3.107542    2.258023
    126          1           0        2.988988   -3.753036   -2.706295
    127          1           0        4.463980    4.544050   -2.593676
    128          1           0        6.022264    4.750628   -0.255693
    129          1           0        6.604793    3.702490   -2.994713
    130          1           0        7.560674    2.960637   -1.694622
    131          1           0        7.662693    4.681904   -1.910243
    132          1           0        3.709895    4.683017    0.335114
    133          1           0        2.394156    4.464021   -0.875695
    134          1           0        4.006207    6.657347   -1.711247
    135          1           0        4.031061    6.720149    0.015109
    136          1           0        8.091506    2.869835    3.052722
    137          1           0        9.041616    1.612610    3.770965
    138          1           0        7.564541    2.125242    4.620808
    139          1           0        8.954137   -0.065462    5.237877
    140          1           0        8.241380   -1.381058    6.336917
    141          1           0        7.333586    0.089997    5.883750
    142          1           0        5.355119   -4.999472    1.314988
    143          1           0        4.998203   -5.188228   -1.633528
    144          1           0        7.285766   -6.001144    0.683835
    145          1           0        7.749613   -4.445985   -0.092283
    146          1           0        6.970359   -5.632204   -1.009498
    147          1           0        3.768340   -6.625903    0.037503
    148          1           0        2.766859   -5.937786   -1.226816
    149          1           0        3.059072   -5.321072    1.622116
    150          1           0        1.528621   -5.492878    0.687765
    151          1           0        2.524595   -3.970607    0.616817
    152          1           0        0.672822   -1.961256   -4.903812
    153          1           0        1.720187   -3.305635   -4.345362
    154          1           0        2.381706   -2.110518   -5.531264
    155          1           0        3.098927    2.849070   -4.439207
    156          1           0        0.255899    6.081167   -4.670700
    157          1           0        1.134941    6.444090   -3.052208
    158          1           0       -0.298494    5.402535   -3.232944
 ---------------------------------------------------------------------

 SCF Done:  E(RCAM-B3LYP) =  -4069.81277197     A.U. after   19 cycles

 Excitation energies and oscillator strengths:

 Excited State   1:      Singlet-A      1.6464 eV  753.05 nm  f=0.0857  <S**2>=0.000
     309 -> 315        0.12435
     310 -> 316        0.10988
     311 -> 313        0.51360
     312 -> 314        0.45749
 This state for optimization and/or second-order correction.
 Total Energy, E(TD-HF/TD-DFT) =  -4069.75226701
 Copying the excited state density for this state as the 1-particle RhoCI density.

 Excited State   2:      Singlet-A      1.7039 eV  727.65 nm  f=0.6367  <S**2>=0.000
     309 -> 315       -0.12016
     310 -> 316        0.13495
     311 -> 313       -0.45508
     312 -> 314        0.51096

 Excited State   3:      Singlet-A      2.1801 eV  568.71 nm  f=0.0129  <S**2>=0.000
     309 -> 313        0.55382
     310 -> 314       -0.33127
     311 -> 315       -0.23015
     312 -> 316        0.13610

 Excited State   4:      Singlet-A      2.1957 eV  564.66 nm  f=0.1608  <S**2>=0.000
     309 -> 313        0.32713
     310 -> 314        0.54886
     311 -> 315       -0.14403
     312 -> 316       -0.24070

 Excited State   5:      Singlet-A      2.3442 eV  528.90 nm  f=0.0000  <S**2>=0.000
     312 -> 313        0.70665

 The electronic state is 1-A.
 Alpha  occ. eigenvalues --  -46.87551 -46.87292 -19.26465 -19.25958 -19.19247
 Alpha  occ. eigenvalues --  -19.18649 -19.18605 -19.18381 -19.18101 -19.17758
 Alpha  occ. eigenvalues --  -14.42390 -14.41947 -14.41262 -14.40989 -14.39245
 Alpha  occ. eigenvalues --  -14.38893 -14.38510 -14.38107 -10.39162 -10.38707
 Alpha  occ. eigenvalues --  -10.35280 -10.35009 -10.34274 -10.33980 -10.31946
 Alpha  occ. eigenvalues --  -10.31430 -10.31230 -10.30925 -10.30923 -10.30393
 Alpha  occ. eigenvalues --  -10.30310 -10.30282 -10.30085 -10.30059 -10.30022
 Alpha  occ. eigenvalues --  -10.29811 -10.29751 -10.29518 -10.29327 -10.29317
 Alpha  occ. eigenvalues --  -10.29171 -10.28756 -10.28628 -10.28575 -10.28323
 Alpha  occ. eigenvalues --  -10.28244 -10.28153 -10.28056 -10.27930 -10.27869
 Alpha  occ. eigenvalues --  -10.27636 -10.27570 -10.27405 -10.27401 -10.27375
 Alpha  occ. eigenvalues --  -10.27342 -10.27314 -10.27279 -10.27228 -10.27181
 Alpha  occ. eigenvalues --  -10.27145 -10.27095 -10.27068 -10.26933 -10.26823
 Alpha  occ. eigenvalues --  -10.26750 -10.26551 -10.26277 -10.26079 -10.26001
 Alpha  occ. eigenvalues --  -10.25967 -10.25950 -10.25902 -10.25827 -10.25825
 Alpha  occ. eigenvalues --  -10.25814 -10.25569 -10.25475 -10.25318 -10.25163
 Alpha  occ. eigenvalues --  -10.24812 -10.24601 -10.24579 -10.24505 -10.24368
 Alpha  occ. eigenvalues --  -10.24347  -3.16299  -3.16031  -1.91181  -1.90912
 Alpha  occ. eigenvalues --   -1.90770  -1.90608  -1.90500  -1.90342  -1.16752
 Alpha  occ. eigenvalues --   -1.16297  -1.08722  -1.08227  -1.07031  -1.06856
 Alpha  occ. eigenvalues --   -1.06791  -1.06276  -1.04397  -1.04083  -1.03565
 Alpha  occ. eigenvalues --   -1.03296  -1.02944  -1.02755  -1.02021  -1.01940
 Alpha  occ. eigenvalues --   -0.91933  -0.91518  -0.89397  -0.89147  -0.89059
 Alpha  occ. eigenvalues --   -0.88699  -0.88120  -0.87920  -0.87729  -0.87586
 Alpha  occ. eigenvalues --   -0.87429  -0.87185  -0.87012  -0.86751  -0.84910
 Alpha  occ. eigenvalues --   -0.84511  -0.83787  -0.83614  -0.82823  -0.82574
 Alpha  occ. eigenvalues --   -0.82511  -0.82197  -0.81602  -0.81197  -0.80396
 Alpha  occ. eigenvalues --   -0.80159  -0.78543  -0.78298  -0.77055  -0.76852
 Alpha  occ. eigenvalues --   -0.76801  -0.76526  -0.75799  -0.75501  -0.74731
 Alpha  occ. eigenvalues --   -0.74534  -0.72616  -0.72328  -0.71510  -0.71246
 Alpha  occ. eigenvalues --   -0.69656  -0.69586  -0.68747  -0.68417  -0.67531
 Alpha  occ. eigenvalues --   -0.67194  -0.67095  -0.66726  -0.65202  -0.64818
 Alpha  occ. eigenvalues --   -0.64713  -0.64594  -0.64428  -0.64212  -0.64113
 Alpha  occ. eigenvalues --   -0.63873  -0.62294  -0.61926  -0.60239  -0.59970
 Alpha  occ. eigenvalues --   -0.59709  -0.59320  -0.58920  -0.58552  -0.58370
 Alpha  occ. eigenvalues --   -0.58070  -0.57569  -0.57179  -0.57161  -0.56901
 Alpha  occ. eigenvalues --   -0.56144  -0.55895  -0.55860  -0.55596  -0.55401
 Alpha  occ. eigenvalues --   -0.55199  -0.55070  -0.54993  -0.54456  -0.54179
 Alpha  occ. eigenvalues --   -0.53823  -0.53411  -0.53149  -0.53090  -0.52873
 Alpha  occ. eigenvalues --   -0.52848  -0.52754  -0.52562  -0.52500  -0.52288
 Alpha  occ. eigenvalues --   -0.52261  -0.52128  -0.51846  -0.51570  -0.51513
 Alpha  occ. eigenvalues --   -0.51162  -0.51123  -0.50787  -0.50354  -0.50043
 Alpha  occ. eigenvalues --   -0.49884  -0.49775  -0.49641  -0.49437  -0.49404
 Alpha  occ. eigenvalues --   -0.49149  -0.49067  -0.49060  -0.48769  -0.48663
 Alpha  occ. eigenvalues --   -0.48532  -0.48336  -0.48245  -0.48200  -0.48091
 Alpha  occ. eigenvalues --   -0.47991  -0.47524  -0.47259  -0.47037  -0.46846
 Alpha  occ. eigenvalues --   -0.46627  -0.46471  -0.46381  -0.46200  -0.46099
 Alpha  occ. eigenvalues --   -0.46027  -0.45913  -0.45806  -0.45769  -0.45440
 Alpha  occ. eigenvalues --   -0.45129  -0.44840  -0.44486  -0.44389  -0.44183
 Alpha  occ. eigenvalues --   -0.44095  -0.44064  -0.43995  -0.43863  -0.43741
 Alpha  occ. eigenvalues --   -0.43670  -0.43570  -0.43565  -0.43313  -0.43112
 Alpha  occ. eigenvalues --   -0.42969  -0.42943  -0.42853  -0.42614  -0.42449
 Alpha  occ. eigenvalues --   -0.42343  -0.42327  -0.41871  -0.41636  -0.41630
 Alpha  occ. eigenvalues --   -0.41368  -0.41279  -0.41092  -0.40918  -0.40716
 Alpha  occ. eigenvalues --   -0.40622  -0.40591  -0.40460  -0.40399  -0.40363
 Alpha  occ. eigenvalues --   -0.40197  -0.40110  -0.39693  -0.39334  -0.39114
 Alpha  occ. eigenvalues --   -0.38248  -0.38100  -0.37564  -0.37285  -0.37174
 Alpha  occ. eigenvalues --   -0.37112  -0.36916  -0.36818  -0.36779  -0.36352
 Alpha  occ. eigenvalues --   -0.36151  -0.35798  -0.34173  -0.33909  -0.33819
 Alpha  occ. eigenvalues --   -0.33380  -0.33089  -0.32721  -0.31166  -0.30915
 Alpha  occ. eigenvalues --   -0.30886  -0.30576  -0.30011  -0.29623  -0.29241
 Alpha  occ. eigenvalues --   -0.29141  -0.28960  -0.28846  -0.23943  -0.23602
 Alpha  occ. eigenvalues --   -0.21023  -0.20651
 Alpha virt. eigenvalues --   -0.08706  -0.08291  -0.01581  -0.01284   0.00061
 Alpha virt. eigenvalues --    0.00424   0.02238   0.02623   0.03189   0.04054
 Alpha virt. eigenvalues --    0.04815   0.05099   0.05172   0.05480   0.06178

 Mulliken charges:
               1
     1  Mg   0.843321
     2  C   -0.001783
     3  C   -0.089604
     4  C   -0.047474
     5  C   -0.064959
     6  N   -0.256766
     7  C   -0.051000
     8  C   -0.015285
     9  C   -0.088080
    10  C    0.049179
    11  C    0.105060
    12  C    0.052788
    13  C   -0.070118
    14  H    0.031268
    15  N   -0.433153
    16  C    0.172035
    17  C   -0.172945
    18  C   -0.004023
    19  C    0.149356
    20  C    0.109626
    21  C    0.011034
    22  O   -0.252436
    23  C    0.060325
    24  N   -0.341141
    25  C    0.041697
    26  C   -0.028142
    27  C   -0.023938
    28  C    0.074176
    29  C    0.076591
    30  C    0.038189
    31  C   -0.011887
    32  N   -0.310028
    33  C    0.079736
    34  C   -0.170945
    35  C    0.007502
    36  C    0.082753
    37  C    0.127591
    38  C    0.045360
    39  O   -0.190715
    40  C   -0.005505
    41  C    0.212474
    42  O   -0.256303
    43  O   -0.304960
    44  C    0.158660
    45  H   -0.018250
    46  H   -0.018572
    47  H   -0.043088
    48  H   -0.000953
    49  H   -0.003641
    50  H    0.024685
    51  H    0.016028
    52  H    0.015571
    53  H    0.021093
    54  H    0.045674
    55  H    0.016156
    56  H    0.016276
    57  H    0.005626
    58  H    0.024406
    59  H    0.048248
    60  H    0.037066
    61  H    0.033362
    62  H    0.037956
    63  H    0.014751
    64  H    0.008762
    65  H    0.021942
    66  H    0.012736
    67  H    0.004162
    68  H    0.004531
    69  H    0.004102
    70  H    0.009072
    71  H    0.020824
    72  H    0.031478
    73  H    0.046314
    74  H    0.008207
    75  H    0.044925
    76  H    0.034150
    77  H    0.041486
    78  H    0.046097
    79  H    0.052503
    80  Mg   0.840373
    81  C   -0.016495
    82  C   -0.087337
    83  C   -0.045359
    84  C   -0.064790
    85  N   -0.254764
    86  C   -0.048996
    87  C   -0.015835
    88  C   -0.090767
    89  C    0.046781
    90  C    0.114455
    91  C    0.062352
    92  C   -0.077379
    93  H    0.033544
    94  N   -0.423499
    95  C    0.164203
    96  C   -0.174098
    97  C   -0.007220
    98  C    0.152683
    99  C    0.099393
   100  C    0.016181
   101  O   -0.253247
   102  C    0.060793
   103  N   -0.350102
   104  C    0.037797
   105  C   -0.019957
   106  C   -0.034336
   107  C    0.088562
   108  C    0.073769
   109  C    0.034248
   110  C   -0.010427
   111  N   -0.323819
   112  C    0.077851
   113  C   -0.162886
   114  C    0.000504
   115  C    0.096454
   116  C    0.131871
   117  C    0.041924
   118  O   -0.192821
   119  C    0.001133
   120  C    0.209879
   121  O   -0.250194
   122  O   -0.305370
   123  C    0.153100
   124  H   -0.019779
   125  H   -0.015587
   126  H   -0.039660
   127  H   -0.001731
   128  H   -0.003993
   129  H    0.021958
   130  H    0.014382
   131  H    0.016053
   132  H    0.016427
   133  H    0.039036
   134  H    0.019662
   135  H    0.020088
   136  H    0.008800
   137  H    0.025869
   138  H    0.041123
   139  H    0.037931
   140  H    0.036415
   141  H    0.035225
   142  H    0.014463
   143  H    0.012266
   144  H    0.024943
   145  H    0.011436
   146  H    0.005563
   147  H    0.005428
   148  H    0.004551
   149  H    0.009854
   150  H    0.020744
   151  H    0.030554
   152  H    0.042515
   153  H    0.011874
   154  H    0.045941
   155  H    0.034506
   156  H    0.042034
   157  H    0.050659
   158  H    0.051078
 Sum of Mulliken charges =  -0.00000

 Dipole moment (field-independent basis, Debye):
    X=              1.6480    Y=              3.1811    Z=             -2.6241  Tot=              4.4408
 Quadrupole moment (field-independent basis, Debye-Ang):
   XX=           -473.6855   YY=           -463.7729   ZZ=           -538.6707
   XY=             16.3181   XZ=             14.3413   YZ=            -15.4634

 Normal termination of Gaussian 16 at Thu Sep  9 19:23:42 2021.
