 Gaussian 16, Revision A.03,
 Gaussian 16:  ES64L-G16RevA.03 25-Dec-2016

 -----------------------------------
 #p cam-b3lyp/Def2SVP td=(nstates=5)
 -----------------------------------

 --------------------------------
 TDDFT excited states in gaussian
 --------------------------------
 Symbolic Z-matrix:
 Charge =  0 Multiplicity = 1

                         Standard orientation:
 ---------------------------------------------------------------------
 Center     Atomic      Atomic             Coordinates (Angstroms)
 Number     Number       Type             X           Y           Z
 ---------------------------------------------------------------------
      1         12           0        7.524412    0.901573    0.532274
      2          6           0        7.941311   -2.367004   -0.865872
      3          6           0        8.487236    2.155457   -2.491599
      4          6           0        7.603058    3.775241    1.871105
      5          6           0        7.704982   -0.582943    3.680173
      6          7           0        8.112403   -0.082226   -1.361677
      7          6           0        8.173006   -1.341006   -1.784725
      8          6           0        8.431958   -1.466388   -3.315933
      9          6           0        9.134561   -0.057662   -3.568596
     10          6           0        8.515462    0.730615   -2.427867
     11          6           0       10.647770   -0.088923   -3.379593
     12          6           0        7.103850   -1.599213   -4.134601
     13          6           0        7.274558   -2.050814   -5.587965
     14          1           0        6.263531   -2.916795   -6.175545
     15          7           0        7.501623    2.698426   -0.288488
     16          6           0        7.915847    3.023970   -1.536577
     17          6           0        7.696329    4.480042   -1.672038
     18          6           0        7.298439    5.006375   -0.336841
     19          6           0        7.479547    3.837190    0.485099
     20          6           0        7.819112    5.213198   -2.972482
     21          6           0        6.839459    6.352642    0.126876
     22          8           0        6.767818    6.657052    1.366544
     23          6           0        6.556695    7.347921   -0.923127
     24          7           0        7.857035    1.547840    2.489144
     25          6           0        7.777771    2.843703    2.810764
     26          6           0        7.770560    3.037681    4.298130
     27          6           0        7.616147    1.580768    4.933200
     28          6           0        7.645262    0.749595    3.626841
     29          6           0        9.009834    3.723499    4.889624
     30          6           0        6.440690    1.364375    5.919047
     31          6           0        5.125530    1.461326    5.178741
     32          7           0        7.599590   -1.124674    1.306687
     33          6           0        7.694566   -1.510272    2.651666
     34          6           0        7.824475   -2.978871    2.671878
     35          6           0        7.812634   -3.346513    1.327801
     36          6           0        7.709922   -2.179224    0.518371
     37          6           0        7.991976   -3.784776    3.832436
     38          6           0        7.887652   -4.451958    0.386407
     39          8           0        7.888955   -5.679561    0.488782
     40          6           0        8.096630   -3.852946   -1.074188
     41          6           0        7.121713   -4.540141   -1.991036
     42          8           0        5.892772   -4.361562   -1.867832
     43          8           0        7.790328   -5.104835   -3.008197
     44          6           0        6.878744   -5.778673   -3.971062
     45          1           0        8.999145    2.657214   -3.315085
     46          1           0        7.523373    4.738569    2.379128
     47          1           0        7.680977   -1.122667    4.628632
     48          1           0        9.106659   -2.274841   -3.598080
     49          1           0        8.847545    0.374135   -4.527186
     50          1           0       10.979158   -1.045525   -2.975842
     51          1           0       10.870450    0.717157   -2.680207
     52          1           0       11.159402    0.169275   -4.307140
     53          1           0        6.680960   -0.607797   -4.296837
     54          1           0        6.404411   -2.266334   -3.629565
     55          1           0        8.272257   -2.453185   -5.765738
     56          1           0        7.219645   -1.170137   -6.227958
     57          1           0        8.284909    4.594581   -3.738570
     58          1           0        8.526198    6.027135   -2.813594
     59          1           0        6.863570    5.616571   -3.307984
     60          1           0        7.455785    7.508265   -1.518505
     61          1           0        6.155362    8.220941   -0.409690
     62          1           0        5.807455    6.940962   -1.602813
     63          1           0        6.927387    3.653650    4.608079
     64          1           0        8.498288    1.287242    5.502710
     65          1           0        8.781560    4.624612    5.459352
     66          1           0        9.696887    3.941095    4.072372
     67          1           0        9.624449    3.087182    5.525836
     68          1           0        6.437480    2.142240    6.681846
     69          1           0        6.477519    0.401051    6.427870
     70          1           0        4.941173    2.534634    5.149533
     71          1           0        4.339380    0.945039    5.730672
     72          1           0        5.222637    1.119222    4.148197
     73          1           0        7.337152   -4.646357    3.702612
     74          1           0        7.743811   -3.231492    4.737915
     75          1           0        9.054218   -4.018928    3.764087
     76          1           0        9.130930   -4.054986   -1.350821
     77          1           0        7.210438   -6.813507   -4.056699
     78          1           0        6.879384   -5.170612   -4.875864
     79          1           0        5.848587   -5.919333   -3.641925
     80         12           0       -8.312214    0.184125   -0.223950
     81          6           0       -5.705340   -2.219025    0.331153
     82          6           0       -5.863347    2.470319   -0.864966
     83          6           0      -10.556972    2.425905   -0.277795
     84          6           0      -10.447223   -1.930908    1.540725
     85          7           0       -6.106088    0.025582   -0.234724
     86          6           0       -5.229113   -0.953071   -0.068879
     87          6           0       -3.766765   -0.573561   -0.425342
     88          6           0       -3.874139    1.015649   -0.220983
     89          6           0       -5.366642    1.196406   -0.490077
     90          6           0       -3.588488    1.459844    1.203960
     91          6           0       -3.398521   -0.938680   -1.906257
     92          6           0       -1.903979   -0.881618   -2.230057
     93          1           0       -1.358349   -1.854551   -3.172489
     94          7           0       -8.281183    2.014474   -0.990383
     95          6           0       -7.196985    2.789663   -1.202232
     96          6           0       -7.707200    4.050484   -1.762755
     97          6           0       -9.194160    4.019106   -1.710932
     98          6           0       -9.405939    2.800730   -0.955422
     99          6           0       -6.810832    5.101038   -2.351202
    100          6           0      -10.250434    4.940720   -2.241133
    101          8           0      -11.474777    4.843337   -1.874635
    102          6           0       -9.793581    6.019198   -3.129780
    103          7           0      -10.167504    0.344183    0.700509
    104          6           0      -10.967955    1.398848    0.466230
    105          6           0      -12.354045    1.164847    1.017936
    106          6           0      -12.386504   -0.371537    1.460703
    107          6           0      -10.921025   -0.753329    1.157347
    108          6           0      -12.755942    2.044029    2.201956
    109          6           0      -13.518418   -1.252134    0.864059
    110          6           0      -13.310168   -1.422229   -0.623588
    111          7           0       -8.192592   -1.807132    0.605893
    112          6           0       -9.194354   -2.491775    1.328275
    113          6           0       -8.606711   -3.767996    1.784724
    114          6           0       -7.286312   -3.726726    1.312126
    115          6           0       -7.060575   -2.501763    0.628023
    116          6           0       -9.266010   -4.752344    2.573696
    117          6           0       -6.028996   -4.436249    1.245567
    118          8           0       -5.646704   -5.558949    1.572895
    119          6           0       -4.912068   -3.436718    0.716599
    120          6           0       -4.135360   -4.137871   -0.363962
    121          8           0       -4.684203   -4.450997   -1.435108
    122          8           0       -2.828435   -4.128078   -0.044266
    123          6           0       -2.015508   -4.802454   -1.091264
    124          1           0       -5.176207    3.316904   -0.860691
    125          1           0      -11.398826    3.117269   -0.360079
    126          1           0      -11.077198   -2.688169    2.012296
    127          1           0       -3.016047   -0.984027    0.239267
    128          1           0       -3.285585    1.549878   -0.962312
    129          1           0       -3.475823    0.619661    1.872942
    130          1           0       -4.434704    2.066847    1.498088
    131          1           0       -2.719567    2.123817    1.224807
    132          1           0       -3.765382   -0.146933   -2.572064
    133          1           0       -3.788713   -1.902619   -2.169303
    134          1           0       -1.287373   -0.836526   -1.324131
    135          1           0       -1.695801    0.060424   -2.743129
    136          1           0       -5.758869    4.919919   -2.098261
    137          1           0       -7.052148    6.044626   -1.849924
    138          1           0       -6.956350    5.224792   -3.426461
    139          1           0       -9.065917    6.634676   -2.606194
    140          1           0      -10.701527    6.516443   -3.476550
    141          1           0       -9.271587    5.571909   -3.983053
    142          1           0      -13.106155    1.326823    0.255567
    143          1           0      -12.521022   -0.479766    2.546983
    144          1           0      -13.679227    2.625846    2.020014
    145          1           0      -11.930125    2.703701    2.433080
    146          1           0      -12.899100    1.514810    3.142508
    147          1           0      -14.486204   -0.759933    0.987694
    148          1           0      -13.593444   -2.230764    1.326292
    149          1           0      -13.749492   -0.510850   -1.040069
    150          1           0      -13.826745   -2.309639   -0.983714
    151          1           0      -12.243101   -1.418303   -0.874608
    152          1           0       -9.019290   -5.713439    2.142483
    153          1           0      -10.341587   -4.589668    2.595147
    154          1           0       -8.803046   -4.564974    3.546231
    155          1           0       -4.282223   -3.169998    1.566138
    156          1           0       -1.442180   -5.590075   -0.592632
    157          1           0       -1.440522   -3.998036   -1.587305
    158          1           0       -2.544067   -5.371726   -1.846908
 ---------------------------------------------------------------------

 SCF Done:  E(RCAM-B3LYP) =  -4069.81186155     A.U. after   19 cycles

 Excitation energies and oscillator strengths:

 Excited State   1:      Singlet-A      1.6689 eV  742.90 nm  f=0.0121  <S**2>=0.000
     309 -> 315       -0.10764
     310 -> 316        0.13421
     311 -> 313       -0.42767
     312 -> 314        0.53692
 This state for optimization and/or second-order correction.
 Total Energy, E(TD-HF/TD-DFT) =  -4069.75052998
 Copying the excited state density for this state as the 1-particle RhoCI density.

 Excited State   2:      Singlet-A      1.6857 eV  735.52 nm  f=0.7405  <S**2>=0.000
     309 -> 315        0.13842
     310 -> 316        0.10956
     311 -> 313        0.53601
     312 -> 314        0.42704

 Excited State   3:      Singlet-A      2.1853 eV  567.36 nm  f=0.1021  <S**2>=0.000
     310 -> 314        0.64147
     312 -> 316       -0.27195

 Excited State   4:      Singlet-A      2.1925 eV  565.48 nm  f=0.0997  <S**2>=0.000
     309 -> 313        0.63949
     311 -> 315       -0.27780

 Excited State   5:      Singlet-A      2.7154 eV  456.59 nm  f=0.0000  <S**2>=0.000
     312 -> 313        0.70694

 The electronic state is 1-A.
 Alpha  occ. eigenvalues --  -46.87953 -46.87557 -19.26415 -19.26076 -19.19165
 Alpha  occ. eigenvalues --  -19.18984 -19.18939 -19.18635 -19.18300 -19.17915
 Alpha  occ. eigenvalues --  -14.42601 -14.42388 -14.41600 -14.41258 -14.39560
 Alpha  occ. eigenvalues --  -14.39251 -14.38738 -14.38494 -10.39223 -10.38870
 Alpha  occ. eigenvalues --  -10.35618 -10.35315 -10.34521 -10.34087 -10.31798
 Alpha  occ. eigenvalues --  -10.31548 -10.31398 -10.31190 -10.31062 -10.30905
 Alpha  occ. eigenvalues --  -10.30716 -10.30658 -10.30359 -10.30295 -10.30251
 Alpha  occ. eigenvalues --  -10.30065 -10.30052 -10.29795 -10.29780 -10.29407
 Alpha  occ. eigenvalues --  -10.29342 -10.29300 -10.28892 -10.28679 -10.28560
 Alpha  occ. eigenvalues --  -10.28517 -10.28423 -10.28294 -10.28254 -10.28001
 Alpha  occ. eigenvalues --  -10.27938 -10.27897 -10.27874 -10.27738 -10.27641
 Alpha  occ. eigenvalues --  -10.27641 -10.27590 -10.27563 -10.27552 -10.27441
 Alpha  occ. eigenvalues --  -10.27393 -10.27368 -10.27366 -10.27297 -10.27294
 Alpha  occ. eigenvalues --  -10.26884 -10.26861 -10.26596 -10.26514 -10.26357
 Alpha  occ. eigenvalues --  -10.26356 -10.26326 -10.26165 -10.26070 -10.25951
 Alpha  occ. eigenvalues --  -10.25885 -10.25838 -10.25754 -10.25561 -10.25328
 Alpha  occ. eigenvalues --  -10.24976 -10.24938 -10.24853 -10.24764 -10.24665
 Alpha  occ. eigenvalues --  -10.24589  -3.16696  -3.16307  -1.91578  -1.91189
 Alpha  occ. eigenvalues --   -1.91164  -1.91006  -1.90778  -1.90615  -1.16766
 Alpha  occ. eigenvalues --   -1.16382  -1.08756  -1.08512  -1.07387  -1.06889
 Alpha  occ. eigenvalues --   -1.06785  -1.06719  -1.04731  -1.04382  -1.03911
 Alpha  occ. eigenvalues --   -1.03558  -1.03385  -1.02938  -1.02561  -1.02008
 Alpha  occ. eigenvalues --   -0.92117  -0.91862  -0.89666  -0.89399  -0.89329
 Alpha  occ. eigenvalues --   -0.89008  -0.88432  -0.88131  -0.88004  -0.87820
 Alpha  occ. eigenvalues --   -0.87688  -0.87569  -0.87434  -0.87034  -0.85127
 Alpha  occ. eigenvalues --   -0.84862  -0.84080  -0.83781  -0.83131  -0.82851
 Alpha  occ. eigenvalues --   -0.82795  -0.82520  -0.81722  -0.81412  -0.80742
 Alpha  occ. eigenvalues --   -0.80291  -0.78948  -0.78540  -0.77362  -0.77073
 Alpha  occ. eigenvalues --   -0.77026  -0.76743  -0.76060  -0.75682  -0.75037
 Alpha  occ. eigenvalues --   -0.74694  -0.72917  -0.72594  -0.71813  -0.71462
 Alpha  occ. eigenvalues --   -0.70054  -0.69674  -0.69018  -0.68693  -0.67789
 Alpha  occ. eigenvalues --   -0.67484  -0.67372  -0.67059  -0.65431  -0.65125
 Alpha  occ. eigenvalues --   -0.64998  -0.64764  -0.64650  -0.64501  -0.64415
 Alpha  occ. eigenvalues --   -0.64102  -0.62435  -0.62086  -0.60597  -0.60249
 Alpha  occ. eigenvalues --   -0.59948  -0.59665  -0.59132  -0.58877  -0.58648
 Alpha  occ. eigenvalues --   -0.58303  -0.57723  -0.57455  -0.57391  -0.57127
 Alpha  occ. eigenvalues --   -0.56453  -0.56115  -0.56093  -0.55689  -0.55670
 Alpha  occ. eigenvalues --   -0.55479  -0.55318  -0.55118  -0.54663  -0.54335
 Alpha  occ. eigenvalues --   -0.54038  -0.53768  -0.53449  -0.53370  -0.53117
 Alpha  occ. eigenvalues --   -0.53061  -0.53006  -0.52913  -0.52751  -0.52586
 Alpha  occ. eigenvalues --   -0.52566  -0.52315  -0.52040  -0.51777  -0.51764
 Alpha  occ. eigenvalues --   -0.51518  -0.51336  -0.51067  -0.50739  -0.50397
 Alpha  occ. eigenvalues --   -0.50177  -0.50074  -0.49873  -0.49778  -0.49663
 Alpha  occ. eigenvalues --   -0.49374  -0.49358  -0.49232  -0.49074  -0.48964
 Alpha  occ. eigenvalues --   -0.48729  -0.48613  -0.48589  -0.48409  -0.48280
 Alpha  occ. eigenvalues --   -0.48225  -0.47842  -0.47469  -0.47442  -0.47008
 Alpha  occ. eigenvalues --   -0.46941  -0.46700  -0.46595  -0.46505  -0.46412
 Alpha  occ. eigenvalues --   -0.46301  -0.46162  -0.45958  -0.45950  -0.45663
 Alpha  occ. eigenvalues --   -0.45343  -0.45111  -0.44715  -0.44659  -0.44374
 Alpha  occ. eigenvalues --   -0.44350  -0.44294  -0.44229  -0.44162  -0.44004
 Alpha  occ. eigenvalues --   -0.43968  -0.43813  -0.43630  -0.43530  -0.43373
 Alpha  occ. eigenvalues --   -0.43247  -0.43168  -0.42840  -0.42797  -0.42794
 Alpha  occ. eigenvalues --   -0.42692  -0.42464  -0.42155  -0.41850  -0.41846
 Alpha  occ. eigenvalues --   -0.41678  -0.41543  -0.41323  -0.41282  -0.41017
 Alpha  occ. eigenvalues --   -0.40986  -0.40872  -0.40714  -0.40617  -0.40575
 Alpha  occ. eigenvalues --   -0.40387  -0.40385  -0.40065  -0.39592  -0.39344
 Alpha  occ. eigenvalues --   -0.38613  -0.38251  -0.37895  -0.37495  -0.37466
 Alpha  occ. eigenvalues --   -0.37411  -0.37162  -0.37062  -0.36853  -0.36569
 Alpha  occ. eigenvalues --   -0.36336  -0.36075  -0.34435  -0.34143  -0.33918
 Alpha  occ. eigenvalues --   -0.33665  -0.33336  -0.33064  -0.31513  -0.31193
 Alpha  occ. eigenvalues --   -0.31185  -0.30862  -0.30159  -0.29814  -0.29604
 Alpha  occ. eigenvalues --   -0.29467  -0.29230  -0.29105  -0.24231  -0.23928
 Alpha  occ. eigenvalues --   -0.21276  -0.21014
 Alpha virt. eigenvalues --   -0.08924  -0.08689  -0.01902  -0.01583  -0.00215
 Alpha virt. eigenvalues --    0.00070   0.02059   0.02323   0.02917   0.03321
 Alpha virt. eigenvalues --    0.04572   0.04860   0.04957   0.05375   0.06036

 Mulliken charges:
               1
     1  Mg   0.837789
     2  C   -0.003217
     3  C   -0.094209
     4  C   -0.046065
     5  C   -0.063852
     6  N   -0.256800
     7  C   -0.052467
     8  C   -0.013932
     9  C   -0.086947
    10  C    0.046077
    11  C    0.104744
    12  C    0.053520
    13  C   -0.071905
    14  H    0.036171
    15  N   -0.433143
    16  C    0.168064
    17  C   -0.177333
    18  C   -0.004271
    19  C    0.148408
    20  C    0.110151
    21  C    0.011787
    22  O   -0.249689
    23  C    0.062710
    24  N   -0.341090
    25  C    0.041169
    26  C   -0.028167
    27  C   -0.024084
    28  C    0.074749
    29  C    0.076086
    30  C    0.035132
    31  C   -0.004556
    32  N   -0.310537
    33  C    0.080357
    34  C   -0.169421
    35  C    0.008576
    36  C    0.082827
    37  C    0.127254
    38  C    0.046184
    39  O   -0.187748
    40  C   -0.005329
    41  C    0.213154
    42  O   -0.257848
    43  O   -0.304573
    44  C    0.157667
    45  H   -0.017409
    46  H   -0.016846
    47  H   -0.041063
    48  H    0.001282
    49  H   -0.004037
    50  H    0.025678
    51  H    0.016533
    52  H    0.016921
    53  H    0.010723
    54  H    0.043661
    55  H    0.018319
    56  H    0.017981
    57  H    0.006043
    58  H    0.027073
    59  H    0.038925
    60  H    0.037757
    61  H    0.035491
    62  H    0.030672
    63  H    0.016282
    64  H    0.009867
    65  H    0.023300
    66  H    0.012681
    67  H    0.005070
    68  H    0.006636
    69  H    0.005247
    70  H    0.008371
    71  H    0.018347
    72  H    0.028421
    73  H    0.048068
    74  H    0.009386
    75  H    0.046363
    76  H    0.035539
    77  H    0.043565
    78  H    0.046466
    79  H    0.053295
    80  Mg   0.837562
    81  C   -0.016756
    82  C   -0.087858
    83  C   -0.045708
    84  C   -0.065166
    85  N   -0.254553
    86  C   -0.049760
    87  C   -0.015048
    88  C   -0.090406
    89  C    0.045752
    90  C    0.114431
    91  C    0.062681
    92  C   -0.078255
    93  H    0.036147
    94  N   -0.423444
    95  C    0.162800
    96  C   -0.174792
    97  C   -0.008047
    98  C    0.152066
    99  C    0.099449
   100  C    0.015399
   101  O   -0.253442
   102  C    0.061280
   103  N   -0.350095
   104  C    0.037424
   105  C   -0.019746
   106  C   -0.034790
   107  C    0.089008
   108  C    0.073734
   109  C    0.034771
   110  C   -0.007633
   111  N   -0.324152
   112  C    0.078573
   113  C   -0.163266
   114  C    0.002436
   115  C    0.096142
   116  C    0.131493
   117  C    0.042280
   118  O   -0.187204
   119  C    0.001164
   120  C    0.211341
   121  O   -0.251666
   122  O   -0.305309
   123  C    0.151718
   124  H   -0.019814
   125  H   -0.015869
   126  H   -0.040634
   127  H    0.000383
   128  H   -0.004514
   129  H    0.022698
   130  H    0.014023
   131  H    0.016440
   132  H    0.013076
   133  H    0.037682
   134  H    0.022393
   135  H    0.018378
   136  H    0.008608
   137  H    0.025897
   138  H    0.039323
   139  H    0.038125
   140  H    0.036094
   141  H    0.033696
   142  H    0.014204
   143  H    0.012290
   144  H    0.024902
   145  H    0.011622
   146  H    0.005519
   147  H    0.006059
   148  H    0.003597
   149  H    0.010805
   150  H    0.017790
   151  H    0.030245
   152  H    0.046108
   153  H    0.008296
   154  H    0.046951
   155  H    0.035471
   156  H    0.046039
   157  H    0.050982
   158  H    0.052581
 Sum of Mulliken charges =  -0.00000

 Dipole moment (field-independent basis, Debye):
    X=              4.2493    Y=              6.7626    Z=             -2.7857  Tot=              8.4587
 Quadrupole moment (field-independent basis, Debye-Ang):
   XX=           -490.5293   YY=           -558.8495   ZZ=           -468.5922
   XY=             16.1856   XZ=            -40.1142   YZ=            -10.1443

 Normal termination of Gaussian 16 at Sun Sep 12 03:05:03 2021.
