 Gaussian 16, Revision A.03,
 Gaussian 16:  ES64L-G16RevA.03 25-Dec-2016

 -----------------------------------
 #p cam-b3lyp/Def2SVP td=(nstates=5)
 -----------------------------------

 --------------------------------
 TDDFT excited states in gaussian
 --------------------------------
 Symbolic Z-matrix:
 Charge =  0 Multiplicity = 1

                         Standard orientation:
 ---------------------------------------------------------------------
 Center     Atomic      Atomic             Coordinates (Angstroms)
 Number     Number       Type             X           Y           Z
 ---------------------------------------------------------------------
      1         12           0        4.341934   -1.102013    0.484022
      2          6           0        5.187473    1.303615   -2.027995
      3          6           0        5.765304    0.999609    2.764432
      4          6           0        4.015777   -3.400771    2.644105
      5          6           0        4.031611   -3.446857   -2.075484
      6          7           0        5.317577    0.873881    0.272810
      7          6           0        5.524152    1.714303   -0.736242
      8          6           0        6.062977    3.103949   -0.282449
      9          6           0        6.719852    2.677927    1.106442
     10          6           0        5.861137    1.465257    1.419434
     11          6           0        8.173072    2.231735    0.981682
     12          6           0        4.914811    4.148507   -0.076669
     13          6           0        5.371124    5.605158    0.047022
     14          1           0        4.533388    6.651867   -0.518618
     15          7           0        4.367867   -1.018559    2.457652
     16          6           0        4.982608   -0.083035    3.220655
     17          6           0        4.710214   -0.458915    4.624648
     18          6           0        4.048086   -1.792947    4.618280
     19          6           0        4.142288   -2.140391    3.223365
     20          6           0        5.025506    0.427972    5.789883
     21          6           0        3.438104   -2.627532    5.699724
     22          8           0        3.126027   -3.853991    5.518122
     23          6           0        3.295157   -1.988985    7.020658
     24          7           0        4.277657   -3.183791    0.343641
     25          6           0        4.069073   -3.942243    1.425411
     26          6           0        3.781530   -5.365071    1.047497
     27          6           0        3.596266   -5.372411   -0.538497
     28          6           0        3.908133   -3.881743   -0.819420
     29          6           0        4.852733   -6.391593    1.440926
     30          6           0        2.275547   -5.966186   -1.089453
     31          6           0        1.113042   -5.080611   -0.700305
     32          7           0        4.388668   -1.068076   -1.685703
     33          6           0        4.259675   -2.165622   -2.549085
     34          6           0        4.465680   -1.663383   -3.919992
     35          6           0        4.718253   -0.302754   -3.756466
     36          6           0        4.698862    0.019205   -2.369290
     37          6           0        4.464827   -2.450950   -5.104969
     38          6           0        5.024368    0.949259   -4.429233
     39          8           0        5.075732    1.311646   -5.605469
     40          6           0        5.460821    2.015249   -3.329687
     41          6           0        4.708229    3.288106   -3.606723
     42          8           0        3.469284    3.342059   -3.467187
     43          8           0        5.580661    4.296085   -3.759641
     44          6           0        4.897846    5.593851   -4.008081
     45          1           0        6.389136    1.465247    3.529909
     46          1           0        3.791584   -4.205163    3.347758
     47          1           0        3.866294   -4.104223   -2.931049
     48          1           0        6.821777    3.533054   -0.937059
     49          1           0        6.587667    3.443345    1.870893
     50          1           0        8.478744    2.157157   -0.061834
     51          1           0        8.219857    1.254603    1.462843
     52          1           0        8.829114    2.882442    1.560445
     53          1           0        4.473573    4.007890    0.910041
     54          1           0        4.173827    4.069201   -0.872897
     55          1           0        6.405431    5.727591   -0.275667
     56          1           0        5.383976    5.870441    1.104216
     57          1           0        5.656304    1.266043    5.496159
     58          1           0        5.645439   -0.152249    6.473064
     59          1           0        4.125576    0.763825    6.305306
     60          1           0        4.276881   -1.677156    7.377771
     61          1           0        2.759225   -2.703990    7.643872
     62          1           0        2.705485   -1.078411    6.910704
     63          1           0        2.863040   -5.716159    1.516047
     64          1           0        4.375567   -5.947909   -1.038662
     65          1           0        4.474942   -7.200906    2.066219
     66          1           0        5.663288   -5.859236    1.937805
     67          1           0        5.376442   -6.849924    0.602428
     68          1           0        2.090627   -6.947804   -0.654508
     69          1           0        2.273338   -6.078124   -2.173757
     70          1           0        0.877312   -5.417644    0.308493
     71          1           0        0.269986   -5.242154   -1.372891
     72          1           0        1.414323   -4.035088   -0.632489
     73          1           0        3.893602   -1.889344   -5.844069
     74          1           0        4.026094   -3.432621   -4.927659
     75          1           0        5.533263   -2.502640   -5.313842
     76          1           0        6.537783    2.146273   -3.430223
     77          1           0        5.296905    5.993164   -4.940570
     78          1           0        5.028489    6.190574   -3.105164
     79          1           0        3.834597    5.541526   -4.244940
     80         12           0       -4.366881    1.121904    0.417319
     81          6           0       -5.114953   -1.375105   -2.049341
     82          6           0       -5.748116   -0.966408    2.733715
     83          6           0       -4.132977    3.475188    2.532681
     84          6           0       -4.108977    3.420736   -2.189325
     85          7           0       -5.279328   -0.885355    0.242419
     86          6           0       -5.452645   -1.761623   -0.735577
     87          6           0       -5.944806   -3.157761   -0.268519
     88          6           0       -6.636161   -2.719236    1.113003
     89          6           0       -5.818344   -1.463467    1.407786
     90          6           0       -8.092474   -2.314723    0.955365
     91          6           0       -4.760901   -4.158563   -0.026067
     92          6           0       -5.178253   -5.622401    0.131311
     93          1           0       -4.296702   -6.658441   -0.399691
     94          7           0       -4.409174    1.074640    2.400888
     95          6           0       -4.994595    0.141333    3.180299
     96          6           0       -4.761238    0.571719    4.567554
     97          6           0       -4.133149    1.920610    4.540847
     98          6           0       -4.221703    2.224663    3.126703
     99          6           0       -5.053129   -0.304096    5.751270
    100          6           0       -3.560655    2.797843    5.612712
    101          8           0       -3.283676    4.030620    5.397361
    102          6           0       -3.421178    2.196488    6.947039
    103          7           0       -4.360789    3.192306    0.228244
    104          6           0       -4.192526    3.984062    1.301900
    105          6           0       -3.946795    5.416106    0.890470
    106          6           0       -3.743773    5.378692   -0.695391
    107          6           0       -4.007314    3.878140   -0.948923
    108          6           0       -5.056760    6.407888    1.237936
    109          6           0       -2.435456    6.003802   -1.252359
    110          6           0       -1.245168    5.175252   -0.825612
    111          7           0       -4.385652    1.034226   -1.741393
    112          6           0       -4.288523    2.119184   -2.640013
    113          6           0       -4.465208    1.573913   -4.001593
    114          6           0       -4.677501    0.202145   -3.797456
    115          6           0       -4.656146   -0.083855   -2.405613
    116          6           0       -4.466893    2.330830   -5.207076
    117          6           0       -4.925382   -1.067270   -4.442316
    118          8           0       -4.960163   -1.456900   -5.608810
    119          6           0       -5.345552   -2.124455   -3.332276
    120          6           0       -4.550727   -3.380527   -3.562582
    121          8           0       -3.315308   -3.381810   -3.419929
    122          8           0       -5.396284   -4.418173   -3.699372
    123          6           0       -4.654704   -5.688485   -3.918849
    124          1           0       -6.360592   -1.443056    3.499592
    125          1           0       -3.940587    4.307872    3.213208
    126          1           0       -3.944674    4.057137   -3.061491
    127          1           0       -6.675878   -3.622711   -0.918993
    128          1           0       -6.480442   -3.466117    1.887140
    129          1           0       -8.389780   -2.275792   -0.082049
    130          1           0       -8.176913   -1.336389    1.410107
    131          1           0       -8.733540   -2.977077    1.544140
    132          1           0       -4.336087   -3.976242    0.969436
    133          1           0       -4.025445   -4.073949   -0.802325
    134          1           0       -6.211737   -5.793572   -0.193592
    135          1           0       -5.187869   -5.867955    1.196029
    136          1           0       -5.662194   -1.171780    5.469209
    137          1           0       -5.696843    0.272302    6.424515
    138          1           0       -4.150185   -0.597620    6.290908
    139          1           0       -4.394969    1.860472    7.295296
    140          1           0       -2.912554    2.947674    7.554409
    141          1           0       -2.791277    1.303738    6.864330
    142          1           0       -3.045527    5.801595    1.351137
    143          1           0       -4.537173    5.930258   -1.220869
    144          1           0       -4.707061    7.254613    1.858289
    145          1           0       -5.849810    5.870310    1.740553
    146          1           0       -5.575361    6.838699    0.383150
    147          1           0       -2.284732    7.002046   -0.834091
    148          1           0       -2.430012    6.103106   -2.332687
    149          1           0       -1.035948    5.544882    0.182695
    150          1           0       -0.401465    5.345471   -1.491376
    151          1           0       -1.513648    4.115955   -0.739266
    152          1           0       -3.876814    1.775684   -5.924104
    153          1           0       -4.066030    3.329992   -5.049732
    154          1           0       -5.538074    2.347937   -5.425134
    155          1           0       -6.418268   -2.294818   -3.431483
    156          1           0       -5.035290   -6.124203   -4.847825
    157          1           0       -4.791483   -6.278074   -2.992875
    158          1           0       -3.595269   -5.619238   -4.136216
 ---------------------------------------------------------------------

 SCF Done:  E(RCAM-B3LYP) =  -4069.81182008     A.U. after   19 cycles

 Excitation energies and oscillator strengths:

 Excited State   1:      Singlet-A      1.6468 eV  752.86 nm  f=0.0039  <S**2>=0.000
     309 -> 316        0.11411
     310 -> 315       -0.10732
     311 -> 313        0.50271
     312 -> 314       -0.46927
 This state for optimization and/or second-order correction.
 Total Energy, E(TD-HF/TD-DFT) =  -4069.75129990
 Copying the excited state density for this state as the 1-particle RhoCI density.

 Excited State   2:      Singlet-A      1.7021 eV  728.41 nm  f=0.7008  <S**2>=0.000
     309 -> 316        0.11185
     310 -> 315        0.12082
     311 -> 313        0.46700
     312 -> 314        0.50012

 Excited State   3:      Singlet-A      2.1809 eV  568.50 nm  f=0.0143  <S**2>=0.000
     309 -> 313        0.51572
     309 -> 314       -0.12198
     310 -> 313        0.20797
     310 -> 314        0.30219
     311 -> 316       -0.23202
     312 -> 315       -0.13511

 Excited State   4:      Singlet-A      2.1939 eV  565.12 nm  f=0.1631  <S**2>=0.000
     309 -> 313       -0.29902
     309 -> 314       -0.20597
     310 -> 313       -0.12014
     310 -> 314        0.51204
     311 -> 316        0.14192
     312 -> 315       -0.24202

 Excited State   5:      Singlet-A      2.4684 eV  502.28 nm  f=0.0000  <S**2>=0.000
     312 -> 313        0.70709

 The electronic state is 1-A.
 Alpha  occ. eigenvalues --  -46.87569 -46.87478 -19.26285 -19.26164 -19.19080
 Alpha  occ. eigenvalues --  -19.18882 -19.18680 -19.18620 -19.17957 -19.17885
 Alpha  occ. eigenvalues --  -14.42325 -14.42231 -14.41221 -14.41174 -14.39186
 Alpha  occ. eigenvalues --  -14.39180 -14.38407 -14.38348 -10.39002 -10.38936
 Alpha  occ. eigenvalues --  -10.35319 -10.35303 -10.34179 -10.34064 -10.31740
 Alpha  occ. eigenvalues --  -10.31605 -10.31175 -10.31126 -10.30878 -10.30718
 Alpha  occ. eigenvalues --  -10.30329 -10.30277 -10.30214 -10.30166 -10.29983
 Alpha  occ. eigenvalues --  -10.29960 -10.29701 -10.29682 -10.29403 -10.29262
 Alpha  occ. eigenvalues --  -10.29220 -10.29035 -10.28594 -10.28584 -10.28576
 Alpha  occ. eigenvalues --  -10.28415 -10.28239 -10.28154 -10.28000 -10.27929
 Alpha  occ. eigenvalues --  -10.27821 -10.27567 -10.27504 -10.27493 -10.27373
 Alpha  occ. eigenvalues --  -10.27326 -10.27318 -10.27302 -10.27299 -10.27299
 Alpha  occ. eigenvalues --  -10.27243 -10.27227 -10.27194 -10.27191 -10.26973
 Alpha  occ. eigenvalues --  -10.26914 -10.26585 -10.26547 -10.26388 -10.26343
 Alpha  occ. eigenvalues --  -10.26062 -10.25898 -10.25846 -10.25843 -10.25766
 Alpha  occ. eigenvalues --  -10.25726 -10.25580 -10.25526 -10.25260 -10.25259
 Alpha  occ. eigenvalues --  -10.24689 -10.24603 -10.24573 -10.24518 -10.24312
 Alpha  occ. eigenvalues --  -10.24216  -3.16311  -3.16228  -1.91193  -1.91110
 Alpha  occ. eigenvalues --   -1.90779  -1.90699  -1.90621  -1.90536  -1.16574
 Alpha  occ. eigenvalues --   -1.16509  -1.08496  -1.08417  -1.07088  -1.06879
 Alpha  occ. eigenvalues --   -1.06860  -1.06502  -1.04366  -1.04326  -1.03536
 Alpha  occ. eigenvalues --   -1.03487  -1.03005  -1.02853  -1.02184  -1.01928
 Alpha  occ. eigenvalues --   -0.91821  -0.91760  -0.89287  -0.89261  -0.89009
 Alpha  occ. eigenvalues --   -0.89000  -0.88041  -0.88015  -0.87615  -0.87587
 Alpha  occ. eigenvalues --   -0.87510  -0.87457  -0.87089  -0.86981  -0.84859
 Alpha  occ. eigenvalues --   -0.84795  -0.83676  -0.83660  -0.82809  -0.82804
 Alpha  occ. eigenvalues --   -0.82516  -0.82465  -0.81465  -0.81406  -0.80404
 Alpha  occ. eigenvalues --   -0.80301  -0.78588  -0.78469  -0.76992  -0.76977
 Alpha  occ. eigenvalues --   -0.76744  -0.76740  -0.75732  -0.75696  -0.74677
 Alpha  occ. eigenvalues --   -0.74626  -0.72538  -0.72508  -0.71467  -0.71422
 Alpha  occ. eigenvalues --   -0.69609  -0.69504  -0.68682  -0.68682  -0.67445
 Alpha  occ. eigenvalues --   -0.67439  -0.67081  -0.67053  -0.65129  -0.65092
 Alpha  occ. eigenvalues --   -0.64643  -0.64602  -0.64503  -0.64414  -0.64022
 Alpha  occ. eigenvalues --   -0.64000  -0.62151  -0.62123  -0.60244  -0.60186
 Alpha  occ. eigenvalues --   -0.59644  -0.59605  -0.58821  -0.58769  -0.58291
 Alpha  occ. eigenvalues --   -0.58261  -0.57415  -0.57394  -0.57098  -0.57067
 Alpha  occ. eigenvalues --   -0.56099  -0.56037  -0.55827  -0.55777  -0.55338
 Alpha  occ. eigenvalues --   -0.55329  -0.55113  -0.55071  -0.54316  -0.54310
 Alpha  occ. eigenvalues --   -0.53778  -0.53712  -0.53109  -0.53076  -0.53030
 Alpha  occ. eigenvalues --   -0.52996  -0.52764  -0.52726  -0.52596  -0.52563
 Alpha  occ. eigenvalues --   -0.52124  -0.52121  -0.51655  -0.51642  -0.51533
 Alpha  occ. eigenvalues --   -0.51440  -0.51023  -0.50970  -0.50415  -0.50354
 Alpha  occ. eigenvalues --   -0.49839  -0.49794  -0.49727  -0.49663  -0.49365
 Alpha  occ. eigenvalues --   -0.49341  -0.49065  -0.49020  -0.48950  -0.48905
 Alpha  occ. eigenvalues --   -0.48419  -0.48401  -0.48291  -0.48241  -0.48225
 Alpha  occ. eigenvalues --   -0.48200  -0.47501  -0.47447  -0.47104  -0.46971
 Alpha  occ. eigenvalues --   -0.46562  -0.46529  -0.46415  -0.46378  -0.46133
 Alpha  occ. eigenvalues --   -0.46091  -0.45940  -0.45911  -0.45658  -0.45608
 Alpha  occ. eigenvalues --   -0.45024  -0.44973  -0.44386  -0.44380  -0.44303
 Alpha  occ. eigenvalues --   -0.44302  -0.43991  -0.43937  -0.43881  -0.43869
 Alpha  occ. eigenvalues --   -0.43819  -0.43816  -0.43412  -0.43302  -0.43236
 Alpha  occ. eigenvalues --   -0.43178  -0.42817  -0.42815  -0.42734  -0.42545
 Alpha  occ. eigenvalues --   -0.42385  -0.42344  -0.41746  -0.41744  -0.41504
 Alpha  occ. eigenvalues --   -0.41493  -0.41341  -0.41295  -0.40941  -0.40832
 Alpha  occ. eigenvalues --   -0.40698  -0.40642  -0.40622  -0.40542  -0.40323
 Alpha  occ. eigenvalues --   -0.40283  -0.40119  -0.40073  -0.39158  -0.39125
 Alpha  occ. eigenvalues --   -0.38235  -0.38164  -0.37575  -0.37531  -0.37083
 Alpha  occ. eigenvalues --   -0.37080  -0.37069  -0.37043  -0.36666  -0.36546
 Alpha  occ. eigenvalues --   -0.36049  -0.35988  -0.34076  -0.34060  -0.33762
 Alpha  occ. eigenvalues --   -0.33617  -0.32997  -0.32963  -0.31209  -0.31178
 Alpha  occ. eigenvalues --   -0.30823  -0.30806  -0.29816  -0.29789  -0.29241
 Alpha  occ. eigenvalues --   -0.29165  -0.29085  -0.29020  -0.23857  -0.23855
 Alpha  occ. eigenvalues --   -0.20935  -0.20899
 Alpha virt. eigenvalues --   -0.08617  -0.08555  -0.01532  -0.01511   0.00107
 Alpha virt. eigenvalues --    0.00123   0.02383   0.02423   0.02967   0.03871
 Alpha virt. eigenvalues --    0.04873   0.04916   0.05244   0.05255   0.06235

 Mulliken charges:
               1
     1  Mg   0.839409
     2  C   -0.003293
     3  C   -0.094022
     4  C   -0.046138
     5  C   -0.062049
     6  N   -0.256783
     7  C   -0.052374
     8  C   -0.014123
     9  C   -0.086991
    10  C    0.046129
    11  C    0.104920
    12  C    0.053368
    13  C   -0.071191
    14  H    0.034381
    15  N   -0.432901
    16  C    0.168195
    17  C   -0.177456
    18  C   -0.004695
    19  C    0.148467
    20  C    0.110277
    21  C    0.011385
    22  O   -0.250833
    23  C    0.062790
    24  N   -0.341298
    25  C    0.041318
    26  C   -0.027694
    27  C   -0.024073
    28  C    0.075323
    29  C    0.076486
    30  C    0.034770
    31  C   -0.005314
    32  N   -0.311008
    33  C    0.081831
    34  C   -0.167069
    35  C    0.008318
    36  C    0.084035
    37  C    0.127000
    38  C    0.046770
    39  O   -0.188343
    40  C   -0.005709
    41  C    0.212984
    42  O   -0.257285
    43  O   -0.304646
    44  C    0.158171
    45  H   -0.018175
    46  H   -0.017784
    47  H   -0.040287
    48  H    0.000555
    49  H   -0.004155
    50  H    0.025200
    51  H    0.016387
    52  H    0.016209
    53  H    0.012075
    54  H    0.043688
    55  H    0.017716
    56  H    0.018362
    57  H    0.005908
    58  H    0.025983
    59  H    0.039234
    60  H    0.037625
    61  H    0.033880
    62  H    0.030770
    63  H    0.015791
    64  H    0.008825
    65  H    0.022125
    66  H    0.012154
    67  H    0.004439
    68  H    0.004021
    69  H    0.005878
    70  H    0.004896
    71  H    0.025881
    72  H    0.030442
    73  H    0.049524
    74  H    0.010660
    75  H    0.045012
    76  H    0.034786
    77  H    0.042832
    78  H    0.046144
    79  H    0.052270
    80  Mg   0.838500
    81  C   -0.017209
    82  C   -0.087660
    83  C   -0.045777
    84  C   -0.063227
    85  N   -0.254563
    86  C   -0.049755
    87  C   -0.015208
    88  C   -0.090510
    89  C    0.045562
    90  C    0.114478
    91  C    0.062296
    92  C   -0.077206
    93  H    0.032877
    94  N   -0.423289
    95  C    0.162735
    96  C   -0.174900
    97  C   -0.008481
    98  C    0.151909
    99  C    0.099489
   100  C    0.014652
   101  O   -0.254290
   102  C    0.061538
   103  N   -0.350246
   104  C    0.037629
   105  C   -0.019434
   106  C   -0.034982
   107  C    0.089406
   108  C    0.073981
   109  C    0.034522
   110  C   -0.008196
   111  N   -0.324623
   112  C    0.079875
   113  C   -0.160569
   114  C    0.002199
   115  C    0.097246
   116  C    0.131225
   117  C    0.043081
   118  O   -0.187748
   119  C    0.000517
   120  C    0.211392
   121  O   -0.251258
   122  O   -0.305423
   123  C    0.152493
   124  H   -0.020175
   125  H   -0.016428
   126  H   -0.039203
   127  H   -0.001026
   128  H   -0.004404
   129  H    0.022199
   130  H    0.014388
   131  H    0.015875
   132  H    0.014897
   133  H    0.037265
   134  H    0.020687
   135  H    0.020096
   136  H    0.008831
   137  H    0.025336
   138  H    0.039531
   139  H    0.038541
   140  H    0.034707
   141  H    0.033102
   142  H    0.013763
   143  H    0.011841
   144  H    0.024136
   145  H    0.011238
   146  H    0.005398
   147  H    0.004194
   148  H    0.004760
   149  H    0.007394
   150  H    0.024839
   151  H    0.031505
   152  H    0.047957
   153  H    0.010009
   154  H    0.045983
   155  H    0.034691
   156  H    0.043904
   157  H    0.049222
   158  H    0.051986
 Sum of Mulliken charges =  -0.00000

 Dipole moment (field-independent basis, Debye):
    X=              0.0399    Y=             -0.0353    Z=              6.7259  Tot=              6.7261
 Quadrupole moment (field-independent basis, Debye-Ang):
   XX=           -472.1719   YY=           -468.2705   ZZ=           -540.5609
   XY=             24.7100   XZ=              1.6001   YZ=             -1.1417

 Normal termination of Gaussian 16 at Thu Sep  9 17:31:14 2021.
