 Gaussian 16, Revision A.03,
 Gaussian 16:  ES64L-G16RevA.03 25-Dec-2016

 -----------------------------------
 #p cam-b3lyp/Def2SVP td=(nstates=5)
 -----------------------------------

 --------------------------------
 TDDFT excited states in gaussian
 --------------------------------
 Symbolic Z-matrix:
 Charge =  0 Multiplicity = 1

                         Standard orientation:
 ---------------------------------------------------------------------
 Center     Atomic      Atomic             Coordinates (Angstroms)
 Number     Number       Type             X           Y           Z
 ---------------------------------------------------------------------
      1         12           0       15.778234   -0.738078    0.334090
      2          6           0       16.098900    2.174809   -1.721263
      3          6           0       16.753307    1.196797    2.970102
      4          6           0       15.942068   -3.383552    2.075137
      5          6           0       15.940866   -2.635003   -2.584966
      6          7           0       16.327054    1.401587    0.479959
      7          6           0       16.351419    2.423198   -0.370270
      8          6           0       16.596525    3.797320    0.321889
      9          6           0       17.334449    3.287195    1.639933
     10          6           0       16.744226    1.890574    1.723658
     11          6           0       18.847552    3.172535    1.485421
     12          6           0       15.259820    4.537628    0.663787
     13          6           0       15.408606    6.014892    1.039164
     14          1           0       14.371023    6.949371    0.629875
     15          7           0       15.797447   -0.982576    2.294371
     16          6           0       16.211635   -0.082918    3.218681
     17          6           0       16.029835   -0.735795    4.532980
     18          6           0       15.655126   -2.156162    4.287531
     19          6           0       15.810803   -2.238820    2.857738
     20          6           0       16.163130   -0.011148    5.837154
     21          6           0       15.235127   -3.266129    5.198414
     22          8           0       15.180017   -4.482342    4.808080
     23          6           0       14.971672   -2.900133    6.601868
     24          7           0       16.141175   -2.736092   -0.149486
     25          6           0       16.098447   -3.691196    0.785894
     26          6           0       16.106506   -5.059031    0.170346
     27          6           0       15.917896   -4.838306   -1.399832
     28          6           0       15.916092   -3.289830   -1.421928
     29          6           0       17.367507   -5.897833    0.419944
     30          6           0       14.743863   -5.587018   -2.079168
     31          6           0       13.426720   -5.033689   -1.583124
     32          7           0       15.805002   -0.332758   -1.798056
     33          6           0       15.898892   -1.273349   -2.833984
     34          6           0       15.990000   -0.517573   -4.096748
     35          6           0       15.959273    0.819033   -3.703831
     36          6           0       15.881998    0.893581   -2.283703
     37          6           0       16.144002   -1.079278   -5.394902
     38          6           0       15.998578    2.201664   -4.151763
     39          8           0       15.968070    2.758551   -5.250143
     40          6           0       16.213392    3.134690   -2.879307
     41          6           0       15.214398    4.256338   -2.964307
     42          8           0       13.991484    4.033588   -2.853711
     43          8           0       15.860881    5.431473   -2.923578
     44          6           0       14.925235    6.586528   -2.974258
     45          1           0       17.272703    1.644548    3.819624
     46          1           0       15.891383   -4.322869    2.629711
     47          1           0       15.909038   -3.159595   -3.541649
     48          1           0       17.247643    4.474862   -0.230747
     49          1           0       17.052445    3.870903    2.515993
     50          1           0       19.156234    3.337248    0.453188
     51          1           0       19.096257    2.158790    1.800001
     52          1           0       19.359512    3.836620    2.182317
     53          1           0       14.862237    4.147291    1.600603
     54          1           0       14.546417    4.443972   -0.155732
     55          1           0       16.394066    6.396931    0.771166
     56          1           0       15.372676    6.096525    2.125555
     57          1           0       16.607153    0.974586    5.704049
     58          1           0       16.892587   -0.559442    6.432951
     59          1           0       15.216341    0.043977    6.374634
     60          1           0       15.870618   -2.459800    7.033786
     61          1           0       14.597105   -3.803019    7.082854
     62          1           0       14.207306   -2.122905    6.626561
     63          1           0       15.282071   -5.662578    0.547791
     64          1           0       16.795814   -5.151673   -1.965284
     65          1           0       17.167061   -6.859958    0.892005
     66          1           0       18.054499   -5.302868    1.021068
     67          1           0       17.969376   -6.093414   -0.467140
     68          1           0       14.766449   -6.644381   -1.817600
     69          1           0       14.758634   -5.514009   -3.166689
     70          1           0       13.270655   -5.575513   -0.650975
     71          1           0       12.630951   -5.248093   -2.297263
     72          1           0       13.507712   -3.975190   -1.335122
     73          1           0       15.465723   -0.529699   -6.047489
     74          1           0       15.916749   -2.145092   -5.394689
     75          1           0       17.199181   -0.877348   -5.578419
     76          1           0       17.240071    3.496500   -2.925637
     77          1           0       15.228818    7.208817   -3.816178
     78          1           0       14.935815    7.037653   -1.981898
     79          1           0       13.893981    6.359891   -3.247184
     80         12           0      -15.948253    0.663657    0.490268
     81          6           0      -15.889874   -2.488470   -1.224314
     82          6           0      -15.021484    2.113397   -2.454889
     83          6           0      -15.552516    3.386839    2.069856
     84          6           0      -15.743844   -1.116146    3.479621
     85          7           0      -15.539699   -0.183297   -1.511738
     86          6           0      -15.609557   -1.387126   -2.059710
     87          6           0      -15.444446   -1.401827   -3.603109
     88          6           0      -14.624323   -0.031308   -3.770282
     89          6           0      -15.113751    0.700215   -2.522079
     90          6           0      -13.119713   -0.212841   -3.658359
     91          6           0      -16.821881   -1.341989   -4.352184
     92          6           0      -16.755540   -1.663217   -5.846905
     93          1           0      -17.872965   -2.380170   -6.455012
     94          7           0      -15.853088    2.531394   -0.173845
     95          6           0      -15.478272    2.939362   -1.404432
     96          6           0      -15.558135    4.408147   -1.383039
     97          6           0      -15.851920    4.841699    0.009963
     98          6           0      -15.740883    3.576941    0.708627
     99          6           0      -15.441657    5.247528   -2.622111
    100          6           0      -16.166512    6.176158    0.615313
    101          8           0      -16.152743    6.360260    1.883673
    102          6           0      -16.399566    7.283360   -0.323455
    103          7           0      -15.473487    1.089718    2.469012
    104          6           0      -15.415450    2.359274    2.908082
    105          6           0      -15.330908    2.411997    4.414893
    106          6           0      -15.589043    0.914171    4.912349
    107          6           0      -15.694267    0.207364    3.543129
    108          6           0      -14.008030    2.918000    4.989643
    109          6           0      -16.731247    0.702017    5.943392
    110          6           0      -18.068310    0.988089    5.298557
    111          7           0      -16.021597   -1.416339    1.070199
    112          6           0      -15.890337   -1.943581    2.373604
    113          6           0      -15.891681   -3.415699    2.249934
    114          6           0      -16.001361   -3.644441    0.870030
    115          6           0      -16.043612   -2.402519    0.180587
    116          6           0      -15.751668   -4.340758    3.322676
    117          6           0      -16.080293   -4.654127   -0.160988
    118          8           0      -16.176474   -5.880676   -0.170136
    119          6           0      -15.884256   -3.951017   -1.572929
    120          6           0      -16.959316   -4.455332   -2.496207
    121          8           0      -18.155007   -4.192908   -2.277003
    122          8           0      -16.386457   -4.975741   -3.596840
    123          6           0      -17.412780   -5.479402   -4.548056
    124          1           0      -14.513448    2.639199   -3.263784
    125          1           0      -15.521206    4.297067    2.673165
    126          1           0      -15.782454   -1.742428    4.373468
    127          1           0      -14.865000   -2.231437   -3.990091
    128          1           0      -14.925795    0.502429   -4.667837
    129          1           0      -12.855861   -1.218409   -3.366203
    130          1           0      -12.792680    0.496789   -2.909692
    131          1           0      -12.633396    0.087341   -4.590947
    132          1           0      -17.158936   -0.298474   -4.399059
    133          1           0      -17.541919   -1.979587   -3.877172
    134          1           0      -15.802547   -2.128539   -6.126602
    135          1           0      -16.768951   -0.723688   -6.404683
    136          1           0      -15.063336    4.663025   -3.469832
    137          1           0      -14.658670    5.989852   -2.433025
    138          1           0      -16.370059    5.767747   -2.867275
    139          1           0      -15.521200    7.416012   -0.950619
    140          1           0      -16.697023    8.132766    0.294538
    141          1           0      -17.224114    7.008604   -0.990719
    142          1           0      -16.100602    3.055437    4.823125
    143          1           0      -14.705905    0.494126    5.415789
    144          1           0      -14.128217    3.791316    5.658186
    145          1           0      -13.347568    3.157100    4.166754
    146          1           0      -13.431045    2.177841    5.541430
    147          1           0      -16.629153    1.407006    6.772078
    148          1           0      -16.748690   -0.295531    6.369509
    149          1           0      -18.151474    2.076335    5.375246
    150          1           0      -18.869735    0.491720    5.842046
    151          1           0      -18.053788    0.732904    4.232576
    152          1           0      -16.478996   -5.124007    3.155307
    153          1           0      -15.900923   -3.857824    4.286152
    154          1           0      -14.714274   -4.653336    3.176525
    155          1           0      -14.885550   -4.205563   -1.929821
    156          1           0      -17.176086   -6.529178   -4.747110
    157          1           0      -17.388132   -4.785434   -5.409184
    158          1           0      -18.432777   -5.556770   -4.190174
 ---------------------------------------------------------------------

 SCF Done:  E(RCAM-B3LYP) =  -4069.81179000     A.U. after   19 cycles

 Excitation energies and oscillator strengths:

 Excited State   1:      Singlet-A      1.6755 eV  739.97 nm  f=0.3545  <S**2>=0.000
     310 -> 316        0.17247
     312 -> 313        0.68170
     310 <- 316        0.10396
 This state for optimization and/or second-order correction.
 Total Energy, E(TD-HF/TD-DFT) =  -4069.75021511
 Copying the excited state density for this state as the 1-particle RhoCI density.

 Excited State   2:      Singlet-A      1.6799 eV  738.04 nm  f=0.4218  <S**2>=0.000
     309 -> 315        0.17446
     311 -> 314        0.68135
     309 <- 315        0.10448

 Excited State   3:      Singlet-A      2.1861 eV  567.15 nm  f=0.1014  <S**2>=0.000
     310 -> 313        0.64243
     312 -> 316       -0.27307

 Excited State   4:      Singlet-A      2.1926 eV  565.47 nm  f=0.0995  <S**2>=0.000
     309 -> 314        0.64066
     311 -> 315       -0.27830

 Excited State   5:      Singlet-A      3.0660 eV  404.38 nm  f=0.0000  <S**2>=0.000
     311 -> 313        0.70711

 The electronic state is 1-A.
 Alpha  occ. eigenvalues --  -46.87797 -46.87660 -19.26346 -19.26289 -19.19159
 Alpha  occ. eigenvalues --  -19.19024 -19.18812 -19.18714 -19.18172 -19.18050
 Alpha  occ. eigenvalues --  -14.42496 -14.42450 -14.41449 -14.41360 -14.39403
 Alpha  occ. eigenvalues --  -14.39352 -14.38600 -14.38587 -10.39088 -10.39084
 Alpha  occ. eigenvalues --  -10.35446 -10.35391 -10.34392 -10.34228 -10.31752
 Alpha  occ. eigenvalues --  -10.31685 -10.31406 -10.31307 -10.31021 -10.30909
 Alpha  occ. eigenvalues --  -10.30570 -10.30508 -10.30398 -10.30360 -10.30206
 Alpha  occ. eigenvalues --  -10.30142 -10.29921 -10.29896 -10.29631 -10.29436
 Alpha  occ. eigenvalues --  -10.29401 -10.29254 -10.28750 -10.28714 -10.28647
 Alpha  occ. eigenvalues --  -10.28540 -10.28404 -10.28365 -10.28135 -10.28117
 Alpha  occ. eigenvalues --  -10.28001 -10.27793 -10.27727 -10.27667 -10.27584
 Alpha  occ. eigenvalues --  -10.27521 -10.27500 -10.27483 -10.27479 -10.27466
 Alpha  occ. eigenvalues --  -10.27462 -10.27448 -10.27404 -10.27379 -10.27160
 Alpha  occ. eigenvalues --  -10.27049 -10.26706 -10.26688 -10.26414 -10.26405
 Alpha  occ. eigenvalues --  -10.26234 -10.26183 -10.26143 -10.26019 -10.26017
 Alpha  occ. eigenvalues --  -10.25935 -10.25853 -10.25846 -10.25433 -10.25402
 Alpha  occ. eigenvalues --  -10.24872 -10.24833 -10.24787 -10.24736 -10.24690
 Alpha  occ. eigenvalues --  -10.24686  -3.16539  -3.16410  -1.91421  -1.91292
 Alpha  occ. eigenvalues --   -1.91007  -1.90881  -1.90850  -1.90718  -1.16640
 Alpha  occ. eigenvalues --   -1.16638  -1.08657  -1.08630  -1.07213  -1.06967
 Alpha  occ. eigenvalues --   -1.06943  -1.06647  -1.04581  -1.04494  -1.03760
 Alpha  occ. eigenvalues --   -1.03663  -1.03234  -1.03039  -1.02411  -1.02111
 Alpha  occ. eigenvalues --   -0.91986  -0.91973  -0.89519  -0.89496  -0.89188
 Alpha  occ. eigenvalues --   -0.89147  -0.88286  -0.88222  -0.87871  -0.87794
 Alpha  occ. eigenvalues --   -0.87683  -0.87673  -0.87272  -0.87119  -0.84997
 Alpha  occ. eigenvalues --   -0.84982  -0.83936  -0.83879  -0.82965  -0.82931
 Alpha  occ. eigenvalues --   -0.82650  -0.82649  -0.81595  -0.81588  -0.80597
 Alpha  occ. eigenvalues --   -0.80441  -0.78797  -0.78635  -0.77218  -0.77143
 Alpha  occ. eigenvalues --   -0.76935  -0.76897  -0.75924  -0.75836  -0.74898
 Alpha  occ. eigenvalues --   -0.74804  -0.72775  -0.72699  -0.71672  -0.71580
 Alpha  occ. eigenvalues --   -0.69906  -0.69761  -0.68873  -0.68825  -0.67641
 Alpha  occ. eigenvalues --   -0.67601  -0.67220  -0.67197  -0.65287  -0.65269
 Alpha  occ. eigenvalues --   -0.64854  -0.64770  -0.64652  -0.64621  -0.64269
 Alpha  occ. eigenvalues --   -0.64205  -0.62300  -0.62277  -0.60441  -0.60340
 Alpha  occ. eigenvalues --   -0.59805  -0.59794  -0.58993  -0.58988  -0.58504
 Alpha  occ. eigenvalues --   -0.58425  -0.57587  -0.57553  -0.57309  -0.57237
 Alpha  occ. eigenvalues --   -0.56310  -0.56204  -0.55981  -0.55884  -0.55520
 Alpha  occ. eigenvalues --   -0.55451  -0.55340  -0.55249  -0.54525  -0.54488
 Alpha  occ. eigenvalues --   -0.53909  -0.53895  -0.53299  -0.53227  -0.53222
 Alpha  occ. eigenvalues --   -0.53140  -0.52916  -0.52901  -0.52755  -0.52666
 Alpha  occ. eigenvalues --   -0.52438  -0.52405  -0.51917  -0.51886  -0.51656
 Alpha  occ. eigenvalues --   -0.51617  -0.51201  -0.51197  -0.50570  -0.50474
 Alpha  occ. eigenvalues --   -0.50030  -0.49978  -0.49917  -0.49869  -0.49514
 Alpha  occ. eigenvalues --   -0.49486  -0.49215  -0.49200  -0.49102  -0.49097
 Alpha  occ. eigenvalues --   -0.48594  -0.48557  -0.48461  -0.48445  -0.48378
 Alpha  occ. eigenvalues --   -0.48338  -0.47695  -0.47593  -0.47296  -0.47117
 Alpha  occ. eigenvalues --   -0.46797  -0.46709  -0.46556  -0.46551  -0.46359
 Alpha  occ. eigenvalues --   -0.46271  -0.46163  -0.46086  -0.45824  -0.45822
 Alpha  occ. eigenvalues --   -0.45210  -0.45201  -0.44579  -0.44513  -0.44506
 Alpha  occ. eigenvalues --   -0.44474  -0.44144  -0.44126  -0.44088  -0.44078
 Alpha  occ. eigenvalues --   -0.44020  -0.43938  -0.43552  -0.43497  -0.43386
 Alpha  occ. eigenvalues --   -0.43384  -0.43027  -0.42929  -0.42900  -0.42701
 Alpha  occ. eigenvalues --   -0.42656  -0.42555  -0.42010  -0.41965  -0.41705
 Alpha  occ. eigenvalues --   -0.41668  -0.41534  -0.41457  -0.41141  -0.40988
 Alpha  occ. eigenvalues --   -0.40869  -0.40821  -0.40721  -0.40697  -0.40571
 Alpha  occ. eigenvalues --   -0.40494  -0.40234  -0.40223  -0.39440  -0.39429
 Alpha  occ. eigenvalues --   -0.38468  -0.38352  -0.37749  -0.37651  -0.37320
 Alpha  occ. eigenvalues --   -0.37267  -0.37264  -0.37197  -0.36770  -0.36716
 Alpha  occ. eigenvalues --   -0.36217  -0.36194  -0.34286  -0.34253  -0.33860
 Alpha  occ. eigenvalues --   -0.33774  -0.33187  -0.33175  -0.31342  -0.31273
 Alpha  occ. eigenvalues --   -0.31035  -0.30972  -0.30031  -0.29955  -0.29449
 Alpha  occ. eigenvalues --   -0.29327  -0.29322  -0.29211  -0.24081  -0.24036
 Alpha  occ. eigenvalues --   -0.21128  -0.21117
 Alpha virt. eigenvalues --   -0.08792  -0.08774  -0.01749  -0.01684  -0.00057
 Alpha virt. eigenvalues --   -0.00028   0.02199   0.02207   0.03122   0.03225
 Alpha virt. eigenvalues --    0.04717   0.04732   0.05094   0.05167   0.06175

 Mulliken charges:
               1
     1  Mg   0.838703
     2  C   -0.002977
     3  C   -0.094116
     4  C   -0.045862
     5  C   -0.063956
     6  N   -0.256783
     7  C   -0.052476
     8  C   -0.014002
     9  C   -0.086983
    10  C    0.046311
    11  C    0.104808
    12  C    0.053463
    13  C   -0.071805
    14  H    0.036099
    15  N   -0.433133
    16  C    0.168434
    17  C   -0.177138
    18  C   -0.003985
    19  C    0.148743
    20  C    0.110179
    21  C    0.012308
    22  O   -0.249590
    23  C    0.062463
    24  N   -0.341122
    25  C    0.041258
    26  C   -0.028199
    27  C   -0.023976
    28  C    0.074832
    29  C    0.076173
    30  C    0.035143
    31  C   -0.004510
    32  N   -0.310459
    33  C    0.080389
    34  C   -0.169737
    35  C    0.008337
    36  C    0.082957
    37  C    0.127319
    38  C    0.046089
    39  O   -0.188510
    40  C   -0.005336
    41  C    0.212883
    42  O   -0.257128
    43  O   -0.304790
    44  C    0.157711
    45  H   -0.017582
    46  H   -0.016809
    47  H   -0.041511
    48  H    0.000920
    49  H   -0.004018
    50  H    0.025463
    51  H    0.016458
    52  H    0.016670
    53  H    0.011222
    54  H    0.044097
    55  H    0.017869
    56  H    0.017978
    57  H    0.005883
    58  H    0.026851
    59  H    0.039592
    60  H    0.037356
    61  H    0.035699
    62  H    0.031521
    63  H    0.016582
    64  H    0.009455
    65  H    0.023242
    66  H    0.012549
    67  H    0.004752
    68  H    0.006386
    69  H    0.004703
    70  H    0.008814
    71  H    0.018125
    72  H    0.028970
    73  H    0.047514
    74  H    0.009102
    75  H    0.045997
    76  H    0.035144
    77  H    0.042913
    78  H    0.046420
    79  H    0.053646
    80  Mg   0.837855
    81  C   -0.016818
    82  C   -0.087761
    83  C   -0.045518
    84  C   -0.064914
    85  N   -0.254572
    86  C   -0.049830
    87  C   -0.015085
    88  C   -0.090503
    89  C    0.045743
    90  C    0.114356
    91  C    0.062514
    92  C   -0.077923
    93  H    0.034906
    94  N   -0.423509
    95  C    0.162921
    96  C   -0.174583
    97  C   -0.007808
    98  C    0.152123
    99  C    0.099349
   100  C    0.015579
   101  O   -0.253200
   102  C    0.061191
   103  N   -0.350026
   104  C    0.037525
   105  C   -0.019829
   106  C   -0.034811
   107  C    0.088916
   108  C    0.073654
   109  C    0.034750
   110  C   -0.007673
   111  N   -0.324102
   112  C    0.078446
   113  C   -0.163158
   114  C    0.002260
   115  C    0.096188
   116  C    0.131491
   117  C    0.042374
   118  O   -0.187889
   119  C    0.000902
   120  C    0.211277
   121  O   -0.251027
   122  O   -0.305621
   123  C    0.152028
   124  H   -0.019574
   125  H   -0.015583
   126  H   -0.040489
   127  H   -0.000609
   128  H   -0.004277
   129  H    0.022481
   130  H    0.014439
   131  H    0.016393
   132  H    0.013914
   133  H    0.037658
   134  H    0.020836
   135  H    0.019627
   136  H    0.008825
   137  H    0.026201
   138  H    0.039815
   139  H    0.038295
   140  H    0.036393
   141  H    0.033907
   142  H    0.014385
   143  H    0.012400
   144  H    0.025113
   145  H    0.011675
   146  H    0.005659
   147  H    0.006228
   148  H    0.003629
   149  H    0.010926
   150  H    0.017913
   151  H    0.030128
   152  H    0.045992
   153  H    0.008482
   154  H    0.046947
   155  H    0.035073
   156  H    0.043923
   157  H    0.049525
   158  H    0.053564
 Sum of Mulliken charges =  -0.00000

 Dipole moment (field-independent basis, Debye):
    X=              4.1802    Y=              3.7857    Z=              1.3754  Tot=              5.8049
 Quadrupole moment (field-independent basis, Debye-Ang):
   XX=           -518.0318   YY=           -522.6361   ZZ=           -476.2336
   XY=            -32.9621   XZ=            104.6504   YZ=             21.1251

 Normal termination of Gaussian 16 at Sun Sep 12 10:12:40 2021.
