 Gaussian 16, Revision A.03,
 Gaussian 16:  ES64L-G16RevA.03 25-Dec-2016

 -----------------------------------
 #p cam-b3lyp/Def2SVP td=(nstates=5)
 -----------------------------------

 --------------------------------
 TDDFT excited states in gaussian
 --------------------------------
 Symbolic Z-matrix:
 Charge =  0 Multiplicity = 1

                         Standard orientation:
 ---------------------------------------------------------------------
 Center     Atomic      Atomic             Coordinates (Angstroms)
 Number     Number       Type             X           Y           Z
 ---------------------------------------------------------------------
      1         12           0        3.699963    0.723445   -0.483149
      2          6           0        4.147537   -2.726231   -1.326729
      3          6           0        4.281400    1.447909   -3.766462
      4          6           0        3.759833    3.791485    0.316954
      5          6           0        4.279340   -0.165711    2.836397
      6          7           0        4.144261   -0.562740   -2.229280
      7          6           0        4.229081   -1.874067   -2.430273
      8          6           0        4.337290   -2.262719   -3.935137
      9          6           0        4.933813   -0.898465   -4.505197
     10          6           0        4.392500    0.059418   -3.458600
     11          6           0        6.457881   -0.842605   -4.480715
     12          6           0        2.941861   -2.586298   -4.567437
     13          6           0        2.987863   -3.284813   -5.929537
     14          1           0        1.970320   -4.276765   -6.242562
     15          7           0        3.497262    2.342221   -1.597297
     16          6           0        3.764276    2.453063   -2.920816
     17          6           0        3.454179    3.852740   -3.283343
     18          6           0        3.166466    4.595639   -2.025003
     19          6           0        3.492821    3.599710   -1.036572
     20          6           0        3.404456    4.344807   -4.697255
     21          6           0        2.685351    5.986390   -1.755797
     22          8           0        2.723930    6.505343   -0.587990
     23          6           0        2.244161    6.766923   -2.925909
     24          7           0        4.194706    1.721121    1.282497
     25          6           0        4.079039    3.050081    1.379815
     26          6           0        4.212752    3.507093    2.802207
     27          6           0        4.202269    2.183092    3.694767
     28          6           0        4.142973    1.132794    2.558269
     29          6           0        5.467108    4.330564    3.125469
     30          6           0        3.146533    2.106047    4.826096
     31          6           0        1.759588    2.022877    4.228967
     32          7           0        3.962320   -1.127352    0.619922
     33          6           0        4.214207   -1.262133    1.992897
     34          6           0        4.424240   -2.697902    2.254660
     35          6           0        4.295510   -3.300645    1.004870
     36          6           0        4.048404   -2.301606    0.020415
     37          6           0        4.752000   -3.276450    3.512551
     38          6           0        4.333679   -4.553601    0.268322
     39          8           0        4.411365   -5.742182    0.582539
     40          6           0        4.360496   -4.219121   -1.288351
     41          6           0        3.335720   -5.093041   -1.958729
     42          8           0        2.117875   -4.938205   -1.734576
     43          8           0        3.926774   -5.807229   -2.928849
     44          6           0        2.959511   -6.674057   -3.653532
     45          1           0        4.679173    1.811498   -4.715946
     46          1           0        3.680582    4.826888    0.654738
     47          1           0        4.380984   -0.527232    3.861299
     48          1           0        5.022259   -3.084639   -4.144156
     49          1           0        4.527983   -0.655710   -5.487080
     50          1           0        6.879553   -1.699229   -3.955065
     51          1           0        6.706904    0.083022   -3.961392
     52          1           0        6.857884   -0.737140   -5.489503
     53          1           0        2.451991   -1.655352   -4.852797
     54          1           0        2.334296   -3.176073   -3.880156
     55          1           0        3.982478   -3.677515   -6.142687
     56          1           0        2.820879   -2.535539   -6.703426
     57          1           0        3.822477    3.615529   -5.390043
     58          1           0        4.079264    5.198177   -4.761314
     59          1           0        2.399450    4.647983   -4.991161
     60          1           0        3.068099    6.849206   -3.635067
     61          1           0        1.850802    7.703299   -2.531803
     62          1           0        1.452627    6.218894   -3.437854
     63          1           0        3.373603    4.138875    3.090487
     64          1           0        5.152262    2.027294    4.206543
     65          1           0        5.249875    5.310679    3.550781
     66          1           0        6.054769    4.421987    2.212459
     67          1           0        6.176560    3.840369    3.791655
     68          1           0        3.179134    3.007425    5.437162
     69          1           0        3.286652    1.251380    5.488033
     70          1           0        1.515799    3.066490    4.033338
     71          1           0        1.062551    1.586783    4.945328
     72          1           0        1.769605    1.505227    3.269579
     73          1           0        4.134623   -4.169632    3.607634
     74          1           0        4.567856   -2.578844    4.329276
     75          1           0        5.812820   -3.481902    3.370050
     76          1           0        5.370646   -4.431301   -1.637204
     77          1           0        3.335908   -7.695288   -3.593151
     78          1           0        2.835426   -6.238337   -4.645074
     79          1           0        1.977236   -6.789263   -3.193964
     80         12           0       -4.177468    0.032501    0.081207
     81          6           0       -2.587767   -0.734419    3.205905
     82          6           0       -3.790634    3.329671    0.864558
     83          6           0       -5.969229    0.739408   -2.440162
     84          6           0       -5.440484   -3.215648    0.085473
     85          7           0       -3.288170    1.041716    1.837025
     86          6           0       -2.659502    0.647794    2.934272
     87          6           0       -2.004756    1.796252    3.747846
     88          6           0       -2.928080    3.007815    3.239462
     89          6           0       -3.338102    2.448339    1.878741
     90          6           0       -4.182951    3.199699    4.074806
     91          6           0       -0.500289    2.019613    3.362216
     92          6           0        0.285334    2.910835    4.326717
     93          1           0        1.691349    2.601566    4.571545
     94          7           0       -4.369328    1.734411   -0.921410
     95          6           0       -4.149564    2.982071   -0.456299
     96          6           0       -4.450144    3.887616   -1.576031
     97          6           0       -5.023361    3.083085   -2.689065
     98          6           0       -5.165288    1.796123   -2.038175
     99          6           0       -4.117297    5.351175   -1.550826
    100          6           0       -5.395648    3.419864   -4.101227
    101          8           0       -6.098706    2.625009   -4.820070
    102          6           0       -4.992394    4.747744   -4.586625
    103          7           0       -5.681991   -1.001297   -0.913793
    104          6           0       -6.261249   -0.489606   -2.014047
    105          6           0       -7.112564   -1.522674   -2.712911
    106          6           0       -6.790726   -2.909160   -1.983755
    107          6           0       -5.834202   -2.400191   -0.883127
    108          6           0       -8.620052   -1.271427   -2.685415
    109          6           0       -6.322785   -4.085556   -2.883639
    110          6           0       -4.959586   -3.782043   -3.462400
    111          7           0       -3.909277   -1.739016    1.288626
    112          6           0       -4.554975   -2.984865    1.130463
    113          6           0       -4.134381   -3.839663    2.259556
    114          6           0       -3.284462   -3.017632    3.014805
    115          6           0       -3.198482   -1.734177    2.410767
    116          6           0       -4.573305   -5.171640    2.503108
    117          6           0       -2.448851   -2.940415    4.191451
    118          8           0       -2.067874   -3.745041    5.040671
    119          6           0       -2.060463   -1.418736    4.436475
    120          6           0       -0.580096   -1.352988    4.694737
    121          8           0        0.231310   -1.652374    3.801099
    122          8           0       -0.365325   -0.743219    5.874750
    123          6           0        1.088916   -0.644264    6.170037
    124          1           0       -3.924494    4.382635    1.114034
    125          1           0       -6.523231    0.895134   -3.368767
    126          1           0       -5.713042   -4.272999    0.105219
    127          1           0       -2.084676    1.693844    4.823440
    128          1           0       -2.350553    3.920564    3.118121
    129          1           0       -4.306329    2.412146    4.803290
    130          1           0       -5.006626    3.198284    3.372947
    131          1           0       -4.181159    4.191769    4.535377
    132          1           0       -0.450831    2.635321    2.454914
    133          1           0        0.005933    1.081391    3.243485
    134          1           0       -0.245790    3.061071    5.274495
    135          1           0        0.353532    3.912732    3.895966
    136          1           0       -3.855504    5.686811   -0.539774
    137          1           0       -5.039659    5.892973   -1.786557
    138          1           0       -3.351955    5.621729   -2.281394
    139          1           0       -5.429424    5.513121   -3.949699
    140          1           0       -5.267840    4.768853   -5.642828
    141          1           0       -3.904957    4.840478   -4.489206
    142          1           0       -6.841412   -1.604187   -3.758348
    143          1           0       -7.674739   -3.313812   -1.469347
    144          1           0       -9.073377   -1.225657   -3.693621
    145          1           0       -8.803152   -0.352736   -2.144106
    146          1           0       -9.198559   -1.995418   -2.114131
    147          1           0       -7.000512   -4.205942   -3.732372
    148          1           0       -6.284294   -5.037517   -2.364703
    149          1           0       -5.193528   -3.161261   -4.332454
    150          1           0       -4.455308   -4.700229   -3.756777
    151          1           0       -4.365918   -3.171663   -2.772002
    152          1           0       -3.698051   -5.740960    2.786465
    153          1           0       -5.058610   -5.596777    1.627030
    154          1           0       -5.279208   -4.998125    3.319725
    155          1           0       -2.640961   -1.065774    5.289702
    156          1           0        1.249276   -1.112243    7.146233
    157          1           0        1.339925    0.429241    6.078735
    158          1           0        1.766837   -1.216247    5.547362
 ---------------------------------------------------------------------

 SCF Done:  E(RCAM-B3LYP) =  -4069.02657747     A.U. after   25 cycles

 Excitation energies and oscillator strengths:

 Excited State   1:      Singlet-A      0.4385 eV 2827.47 nm  f=0.0392  <S**2>=0.000
     312 -> 313        0.71327
     312 -> 314        0.10582
     312 <- 313       -0.14770
 This state for optimization and/or second-order correction.
 Total Energy, E(TD-HF/TD-DFT) =  -4069.01046292
 Copying the excited state density for this state as the 1-particle RhoCI density.

 Excited State   2:      Singlet-A      0.5749 eV 2156.67 nm  f=0.0082  <S**2>=0.000
     312 -> 313       -0.11633
     312 -> 314        0.69852

 Excited State   3:      Singlet-A      1.6400 eV  755.99 nm  f=0.0263  <S**2>=0.000
     309 -> 316        0.13153
     310 -> 313       -0.40055
     311 -> 314        0.55648

 Excited State   4:      Singlet-A      1.7077 eV  726.04 nm  f=0.0780  <S**2>=0.000
     310 -> 313        0.17954
     311 -> 314        0.13320
     312 -> 315       -0.18225
     312 -> 320       -0.15936
     312 -> 321       -0.11049
     312 -> 322        0.51533
     312 -> 323       -0.21138
     312 -> 325       -0.19034

 Excited State   5:      Singlet-A      1.7162 eV  722.45 nm  f=0.5536  <S**2>=0.000
     308 -> 315        0.13485
     310 -> 313        0.51764
     311 -> 314        0.36938
     312 -> 322       -0.19287

 The electronic state is 1-A.
 Alpha  occ. eigenvalues --  -46.87546 -46.87155 -19.27364 -19.25990 -19.19720
 Alpha  occ. eigenvalues --  -19.18679 -19.18624 -19.18409 -19.17877 -19.17797
 Alpha  occ. eigenvalues --  -14.42079 -14.41793 -14.41157 -14.40906 -14.39139
 Alpha  occ. eigenvalues --  -14.38893 -14.38344 -14.38136 -10.39585 -10.38749
 Alpha  occ. eigenvalues --  -10.35270 -10.35094 -10.34095 -10.34006 -10.33403
 Alpha  occ. eigenvalues --  -10.31425 -10.31046 -10.30716 -10.30653 -10.30405
 Alpha  occ. eigenvalues --  -10.30360 -10.30200 -10.30129 -10.29965 -10.29930
 Alpha  occ. eigenvalues --  -10.29889 -10.29706 -10.29468 -10.29132 -10.29112
 Alpha  occ. eigenvalues --  -10.28984 -10.28973 -10.28549 -10.28500 -10.28497
 Alpha  occ. eigenvalues --  -10.28306 -10.28304 -10.28166 -10.27980 -10.27841
 Alpha  occ. eigenvalues --  -10.27800 -10.27656 -10.27581 -10.27372 -10.27191
 Alpha  occ. eigenvalues --  -10.27186 -10.27150 -10.27099 -10.27077 -10.27060
 Alpha  occ. eigenvalues --  -10.27059 -10.27043 -10.27031 -10.27024 -10.26998
 Alpha  occ. eigenvalues --  -10.26994 -10.26862 -10.26453 -10.26350 -10.26280
 Alpha  occ. eigenvalues --  -10.26214 -10.26088 -10.25993 -10.25962 -10.25788
 Alpha  occ. eigenvalues --  -10.25678 -10.25483 -10.25429 -10.25265 -10.25096
 Alpha  occ. eigenvalues --  -10.24660 -10.24568 -10.24468 -10.24358 -10.24260
 Alpha  occ. eigenvalues --  -10.20400  -3.16286  -3.15906  -1.91168  -1.90789
 Alpha  occ. eigenvalues --   -1.90755  -1.90597  -1.90374  -1.90215  -1.17566
 Alpha  occ. eigenvalues --   -1.16331  -1.11237  -1.08512  -1.08323  -1.07480
 Alpha  occ. eigenvalues --   -1.07053  -1.06669  -1.06308  -1.04315  -1.03905
 Alpha  occ. eigenvalues --   -1.03646  -1.03146  -1.02995  -1.02593  -1.02228
 Alpha  occ. eigenvalues --   -1.01645  -0.91752  -0.91651  -0.89421  -0.89113
 Alpha  occ. eigenvalues --   -0.88923  -0.88545  -0.88112  -0.87804  -0.87669
 Alpha  occ. eigenvalues --   -0.87468  -0.87325  -0.87035  -0.86958  -0.86745
 Alpha  occ. eigenvalues --   -0.84773  -0.84472  -0.83712  -0.83341  -0.82812
 Alpha  occ. eigenvalues --   -0.82642  -0.82481  -0.82025  -0.81504  -0.81043
 Alpha  occ. eigenvalues --   -0.80336  -0.79845  -0.78503  -0.78221  -0.76948
 Alpha  occ. eigenvalues --   -0.76854  -0.76620  -0.76021  -0.75641  -0.75153
 Alpha  occ. eigenvalues --   -0.74500  -0.73737  -0.72429  -0.72190  -0.71563
 Alpha  occ. eigenvalues --   -0.71123  -0.69472  -0.69213  -0.68751  -0.68114
 Alpha  occ. eigenvalues --   -0.67512  -0.67214  -0.66999  -0.66168  -0.65383
 Alpha  occ. eigenvalues --   -0.65002  -0.64882  -0.64613  -0.64433  -0.64245
 Alpha  occ. eigenvalues --   -0.64121  -0.63787  -0.62425  -0.62280  -0.61989
 Alpha  occ. eigenvalues --   -0.60310  -0.59959  -0.59588  -0.59157  -0.58925
 Alpha  occ. eigenvalues --   -0.58662  -0.58354  -0.58166  -0.57592  -0.57494
 Alpha  occ. eigenvalues --   -0.57245  -0.56867  -0.56359  -0.56205  -0.55786
 Alpha  occ. eigenvalues --   -0.55713  -0.55434  -0.55310  -0.55103  -0.54890
 Alpha  occ. eigenvalues --   -0.54465  -0.54190  -0.53662  -0.53335  -0.53302
 Alpha  occ. eigenvalues --   -0.52993  -0.52915  -0.52860  -0.52675  -0.52526
 Alpha  occ. eigenvalues --   -0.52436  -0.52078  -0.52015  -0.51732  -0.51623
 Alpha  occ. eigenvalues --   -0.51558  -0.51490  -0.51356  -0.51090  -0.50477
 Alpha  occ. eigenvalues --   -0.50319  -0.50185  -0.49839  -0.49686  -0.49526
 Alpha  occ. eigenvalues --   -0.49337  -0.49253  -0.49172  -0.48969  -0.48908
 Alpha  occ. eigenvalues --   -0.48865  -0.48560  -0.48332  -0.48277  -0.48254
 Alpha  occ. eigenvalues --   -0.48030  -0.47717  -0.47556  -0.47298  -0.47234
 Alpha  occ. eigenvalues --   -0.47098  -0.46836  -0.46629  -0.46419  -0.46294
 Alpha  occ. eigenvalues --   -0.46218  -0.46089  -0.45993  -0.45793  -0.45708
 Alpha  occ. eigenvalues --   -0.45582  -0.45385  -0.45017  -0.44775  -0.44483
 Alpha  occ. eigenvalues --   -0.44369  -0.44228  -0.44217  -0.43929  -0.43797
 Alpha  occ. eigenvalues --   -0.43769  -0.43697  -0.43590  -0.43520  -0.43421
 Alpha  occ. eigenvalues --   -0.43247  -0.42966  -0.42834  -0.42718  -0.42656
 Alpha  occ. eigenvalues --   -0.42564  -0.42438  -0.42166  -0.42059  -0.41610
 Alpha  occ. eigenvalues --   -0.41463  -0.41434  -0.41292  -0.41248  -0.40984
 Alpha  occ. eigenvalues --   -0.40681  -0.40562  -0.40529  -0.40321  -0.40226
 Alpha  occ. eigenvalues --   -0.39998  -0.39886  -0.39492  -0.39075  -0.38795
 Alpha  occ. eigenvalues --   -0.38456  -0.37821  -0.37577  -0.37534  -0.37343
 Alpha  occ. eigenvalues --   -0.36993  -0.36896  -0.36751  -0.36714  -0.36102
 Alpha  occ. eigenvalues --   -0.35875  -0.34291  -0.34110  -0.33746  -0.33451
 Alpha  occ. eigenvalues --   -0.33033  -0.32738  -0.31202  -0.30968  -0.30945
 Alpha  occ. eigenvalues --   -0.30537  -0.29732  -0.29726  -0.29151  -0.29041
 Alpha  occ. eigenvalues --   -0.28924  -0.28793  -0.23966  -0.23592  -0.21102
 Alpha  occ. eigenvalues --   -0.20636  -0.15134
 Alpha virt. eigenvalues --   -0.08678  -0.08366  -0.01702  -0.01234   0.00171
 Alpha virt. eigenvalues --    0.00387   0.02236   0.02478   0.02605   0.04157
 Alpha virt. eigenvalues --    0.04301   0.04760   0.04918   0.05409   0.05487

 Mulliken charges:
               1
     1  Mg   0.835089
     2  C   -0.004590
     3  C   -0.094515
     4  C   -0.051634
     5  C   -0.065809
     6  N   -0.258352
     7  C   -0.050441
     8  C   -0.014372
     9  C   -0.086834
    10  C    0.046197
    11  C    0.105176
    12  C    0.053427
    13  C   -0.071459
    14  H    0.035738
    15  N   -0.432288
    16  C    0.166570
    17  C   -0.179485
    18  C   -0.006198
    19  C    0.148350
    20  C    0.110788
    21  C    0.009729
    22  O   -0.255276
    23  C    0.063432
    24  N   -0.339708
    25  C    0.038889
    26  C   -0.049404
    27  C   -0.020298
    28  C    0.061217
    29  C    0.081423
    30  C    0.001393
    31  C    0.656741
    32  N   -0.312732
    33  C    0.091315
    34  C   -0.157443
    35  C    0.007064
    36  C    0.088847
    37  C    0.128409
    38  C    0.048593
    39  O   -0.187502
    40  C   -0.006235
    41  C    0.212646
    42  O   -0.254773
    43  O   -0.305336
    44  C    0.157954
    45  H   -0.018861
    46  H   -0.021893
    47  H   -0.048473
    48  H    0.000638
    49  H   -0.004381
    50  H    0.024691
    51  H    0.015994
    52  H    0.015860
    53  H    0.011609
    54  H    0.044760
    55  H    0.017428
    56  H    0.017915
    57  H    0.005209
    58  H    0.024707
    59  H    0.036950
    60  H    0.037873
    61  H    0.032723
    62  H    0.029476
    63  H    0.011845
    64  H    0.014308
    65  H    0.021372
    66  H    0.018415
    67  H    0.006549
    68  H    0.003173
    69  H   -0.006410
    70  H    0.107538
    71  H    0.093391
    72  H    0.124562
    73  H    0.054348
    74  H    0.002074
    75  H    0.044682
    76  H    0.034154
    77  H    0.042308
    78  H    0.045829
    79  H    0.053733
    80  Mg   0.835844
    81  C   -0.019353
    82  C   -0.087432
    83  C   -0.046580
    84  C   -0.064844
    85  N   -0.257824
    86  C   -0.044647
    87  C    0.007545
    88  C   -0.075730
    89  C    0.044141
    90  C    0.116891
    91  C    0.071568
    92  C   -0.401841
    93  H   -0.402083
    94  N   -0.423217
    95  C    0.162781
    96  C   -0.175295
    97  C   -0.009171
    98  C    0.152206
    99  C    0.099775
   100  C    0.014346
   101  O   -0.254437
   102  C    0.062152
   103  N   -0.350209
   104  C    0.037490
   105  C   -0.019492
   106  C   -0.034724
   107  C    0.088868
   108  C    0.074123
   109  C    0.034998
   110  C   -0.007425
   111  N   -0.324229
   112  C    0.079763
   113  C   -0.160982
   114  C    0.002166
   115  C    0.097689
   116  C    0.131070
   117  C    0.044751
   118  O   -0.190182
   119  C   -0.000841
   120  C    0.212162
   121  O   -0.244044
   122  O   -0.306170
   123  C    0.156034
   124  H   -0.019182
   125  H   -0.017038
   126  H   -0.041102
   127  H   -0.015107
   128  H   -0.006869
   129  H    0.017954
   130  H    0.010480
   131  H    0.014745
   132  H    0.009211
   133  H   -0.006055
   134  H    0.020068
   135  H   -0.012763
   136  H    0.011339
   137  H    0.024887
   138  H    0.037338
   139  H    0.038476
   140  H    0.034648
   141  H    0.031618
   142  H    0.013339
   143  H    0.011518
   144  H    0.023909
   145  H    0.011407
   146  H    0.004955
   147  H    0.004684
   148  H    0.003602
   149  H    0.009117
   150  H    0.017791
   151  H    0.032598
   152  H    0.047510
   153  H    0.008519
   154  H    0.045302
   155  H    0.034477
   156  H    0.049502
   157  H    0.027507
   158  H    0.057608
 Sum of Mulliken charges =  -0.00000

 Dipole moment (field-independent basis, Debye):
    X=              2.0773    Y=              5.4218    Z=             -1.6711  Tot=              6.0418
 Quadrupole moment (field-independent basis, Debye-Ang):
   XX=           -499.8245   YY=           -526.7294   ZZ=           -473.8664
   XY=             17.8620   XZ=             -9.4959   YZ=             30.8190

 Normal termination of Gaussian 16 at Wed Sep  8 20:50:14 2021.
