 Gaussian 16, Revision A.03,
 Gaussian 16:  ES64L-G16RevA.03 25-Dec-2016

 -----------------------------------
 #p cam-b3lyp/Def2SVP td=(nstates=5)
 -----------------------------------

 --------------------------------
 TDDFT excited states in gaussian
 --------------------------------
 Symbolic Z-matrix:
 Charge =  0 Multiplicity = 1

                         Standard orientation:
 ---------------------------------------------------------------------
 Center     Atomic      Atomic             Coordinates (Angstroms)
 Number     Number       Type             X           Y           Z
 ---------------------------------------------------------------------
      1         12           0        5.448826   -0.271376   -0.161438
      2          6           0        5.296765    3.056382   -1.471062
      3          6           0        6.358546    1.105126    2.825319
      4          6           0        6.029950   -3.206101    0.890373
      5          6           0        5.644280   -1.399668   -3.453006
      6          7           0        5.753309    1.827702    0.472445
      7          6           0        5.604400    3.013652   -0.109379
      8          6           0        5.731737    4.208622    0.882188
      9          6           0        6.606583    3.504495    2.013933
     10          6           0        6.189317    2.062990    1.781821
     11          6           0        8.109787    3.623744    1.784453
     12          6           0        4.342583    4.671497    1.436923
     13          6           0        4.342239    6.027314    2.149041
     14          1           0        3.179041    6.890583    2.010892
     15          7           0        5.621417   -0.961010    1.681784
     16          6           0        5.986330   -0.255837    2.779444
     17          6           0        5.965939   -1.214520    3.905140
     18          6           0        5.744034   -2.574675    3.340488
     19          6           0        5.816688   -2.301540    1.927868
     20          6           0        6.097037   -0.802485    5.339292
     21          6           0        5.514951   -3.910602    3.973694
     22          8           0        5.576834   -4.999274    3.306208
     23          6           0        5.300844   -3.918259    5.432167
     24          7           0        6.010022   -2.038486   -1.120614
     25          6           0        6.138432   -3.182497   -0.439634
     26          6           0        6.266182   -4.356814   -1.364079
     27          6           0        5.953353   -3.802620   -2.828579
     28          6           0        5.770100   -2.304900   -2.479974
     29          6           0        7.629506   -5.062048   -1.365736
     30          6           0        4.833394   -4.516635   -3.626258
     31          6           0        3.495210   -4.267400   -2.967287
     32          7           0        5.292139    0.619199   -2.134601
     33          6           0        5.428451   -0.034368   -3.367866
     34          6           0        5.350275    0.999899   -4.415840
     35          6           0        5.189479    2.193039   -3.714123
     36          6           0        5.194860    1.924379   -2.315522
     37          6           0        5.485374    0.780346   -5.815118
     38          6           0        5.039076    3.635283   -3.819803
     39          8           0        4.873977    4.423962   -4.751587
     40          6           0        5.224718    4.266031   -2.369451
     41          6           0        4.098702    5.239182   -2.149511
     42          8           0        2.919554    4.842049   -2.053266
     43          8           0        4.605428    6.445395   -1.851484
     44          6           0        3.540507    7.450876   -1.592439
     45          1           0        6.875510    1.405527    3.738800
     46          1           0        6.124332   -4.247255    1.205856
     47          1           0        5.612670   -1.686745   -4.505641
     48          1           0        6.263044    5.073870    0.485348
     49          1           0        6.315115    3.827134    3.013269
     50          1           0        8.330705    4.062395    0.811468
     51          1           0        8.494250    2.605062    1.838940
     52          1           0        8.584485    4.167282    2.601769
     53          1           0        4.053695    4.026160    2.266468
     54          1           0        3.594067    4.680625    0.643849
     55          1           0        5.257463    6.584241    1.946292
     56          1           0        4.366475    5.848480    3.224044
     57          1           0        6.414020    0.235674    5.430348
     58          1           0        6.921831   -1.376342    5.761323
     59          1           0        5.186510   -0.995750    5.906673
     60          1           0        6.168213   -3.479168    5.925543
     61          1           0        5.065273   -4.948644    5.696104
     62          1           0        4.454434   -3.272630    5.668177
     63          1           0        5.543303   -5.132139   -1.113595
     64          1           0        6.823860   -3.860621   -3.482434
     65          1           0        7.572836   -6.125162   -1.130615
     66          1           0        8.279613   -4.540428   -0.663907
     67          1           0        8.192178   -4.966976   -2.294056
     68          1           0        4.995424   -5.593990   -3.625846
     69          1           0        4.770133   -4.191166   -4.664679
     70          1           0        3.463023   -5.026755   -2.186789
     71          1           0        2.685822   -4.409763   -3.684110
     72          1           0        3.468235   -3.294321   -2.476497
     73          1           0        4.707532    1.375219   -6.293717
     74          1           0        5.384074   -0.276308   -6.061740
     75          1           0        6.496035    1.152901   -5.981321
     76          1           0        6.197297    4.757127   -2.363342
     77          1           0        3.715312    8.285691   -2.271233
     78          1           0        3.561876    7.656099   -0.522004
     79          1           0        2.527298    7.163835   -1.875907
     80         12           0       -5.082635   -1.185309    0.377446
     81          6           0       -7.255583    1.642425   -0.024131
     82          6           0       -2.795443    0.953229    1.730222
     83          6           0       -2.981034   -3.562001    0.331930
     84          6           0       -7.026688   -2.840457   -1.994649
     85          7           0       -5.135313    0.993891    0.752338
     86          6           0       -6.037574    1.953834    0.615334
     87          6           0       -5.642705    3.305625    1.268253
     88          6           0       -4.047549    3.120563    1.258382
     89          6           0       -3.978305    1.595037    1.284110
     90          6           0       -3.393203    3.606821   -0.024079
     91          6           0       -6.195473    3.447492    2.729876
     92          6           0       -6.113284    4.859392    3.314287
     93          1           0       -7.182442    5.308693    4.201716
     94          7           0       -3.379655   -1.412979    1.370723
     95          6           0       -2.591200   -0.437286    1.868369
     96          6           0       -1.448177   -1.122340    2.491556
     97          6           0       -1.543059   -2.573872    2.177262
     98          6           0       -2.651110   -2.569478    1.243293
     99          6           0       -0.449667   -0.413682    3.360012
    100          6           0       -0.757290   -3.766690    2.631063
    101          8           0       -0.860385   -4.902889    2.046876
    102          6           0        0.205341   -3.542232    3.719392
    103          7           0       -4.882479   -2.867578   -0.827656
    104          6           0       -3.911076   -3.769078   -0.600530
    105          6           0       -4.130801   -5.023775   -1.411594
    106          6           0       -5.588936   -4.872344   -2.050728
    107          6           0       -5.939185   -3.454290   -1.548880
    108          6           0       -3.113313   -5.284834   -2.521983
    109          6           0       -6.598209   -6.021937   -1.781528
    110          6           0       -6.966755   -6.052473   -0.315707
    111          7           0       -6.928541   -0.787443   -0.672505
    112          6           0       -7.551326   -1.603590   -1.642106
    113          6           0       -8.720594   -0.858591   -2.152222
    114          6           0       -8.683400    0.358412   -1.455090
    115          6           0       -7.558063    0.379153   -0.587515
    116          6           0       -9.613939   -1.305470   -3.166306
    117          6           0       -9.334193    1.634545   -1.263623
    118          8           0      -10.379735    2.145128   -1.663473
    119          6           0       -8.367168    2.573646   -0.421393
    120          6           0       -9.176055    3.207816    0.676803
    121          8           0       -9.663388    2.512218    1.585240
    122          8           0       -9.058609    4.545646    0.594283
    123          6           0       -9.834536    5.219101    1.669553
    124          1           0       -1.924844    1.569279    1.956990
    125          1           0       -2.349352   -4.452996    0.355869
    126          1           0       -7.738954   -3.327500   -2.664094
    127          1           0       -5.918672    4.183815    0.696948
    128          1           0       -3.595944    3.537918    2.154616
    129          1           0       -4.124002    3.888915   -0.767388
    130          1           0       -2.791923    2.780183   -0.379295
    131          1           0       -2.692123    4.417458    0.194314
    132          1           0       -5.524289    2.919405    3.419358
    133          1           0       -7.204485    3.088817    2.792115
    134          1           0       -5.911112    5.613308    2.543774
    135          1           0       -5.244365    4.911526    3.974804
    136          1           0       -0.542642    0.675910    3.273087
    137          1           0        0.542658   -0.634996    2.952372
    138          1           0       -0.486285   -0.744514    4.400141
    139          1           0        0.922785   -2.783435    3.416155
    140          1           0        0.604531   -4.528368    3.964457
    141          1           0       -0.332577   -3.138875    4.584589
    142          1           0       -4.114429   -5.901852   -0.777703
    143          1           0       -5.548820   -4.816197   -3.148492
    144          1           0       -2.607943   -6.264672   -2.429364
    145          1           0       -2.388835   -4.481312   -2.516881
    146          1           0       -3.510486   -5.231370   -3.534211
    147          1           0       -6.140364   -6.988304   -2.006641
    148          1           0       -7.504108   -5.948957   -2.373994
    149          1           0       -6.145479   -6.618892    0.133487
    150          1           0       -7.919857   -6.557066   -0.170782
    151          1           0       -6.947271   -5.045081    0.116067
    152          1           0      -10.613412   -1.065951   -2.828393
    153          1           0       -9.501545   -2.371316   -3.353698
    154          1           0       -9.268999   -0.701749   -4.009991
    155          1           0       -7.953186    3.315379   -1.105520
    156          1           0      -10.515395    5.922143    1.179805
    157          1           0       -9.081745    5.644638    2.359459
    158          1           0      -10.529571    4.614219    2.240073
 ---------------------------------------------------------------------

 SCF Done:  E(RCAM-B3LYP) =  -4069.81167826     A.U. after   19 cycles

 Excitation energies and oscillator strengths:

 Excited State   1:      Singlet-A      1.6558 eV  748.77 nm  f=0.1840  <S**2>=0.000
     309 -> 315       -0.11439
     310 -> 316       -0.12445
     311 -> 313       -0.46368
     312 -> 314        0.50719
 This state for optimization and/or second-order correction.
 Total Energy, E(TD-HF/TD-DFT) =  -4069.75082726
 Copying the excited state density for this state as the 1-particle RhoCI density.

 Excited State   2:      Singlet-A      1.6933 eV  732.19 nm  f=0.5742  <S**2>=0.000
     309 -> 315        0.13298
     310 -> 316       -0.11976
     311 -> 313        0.50532
     312 -> 314        0.46211

 Excited State   3:      Singlet-A      2.1822 eV  568.16 nm  f=0.0188  <S**2>=0.000
     309 -> 313        0.29254
     310 -> 314        0.57423
     311 -> 315       -0.12182
     312 -> 316        0.24049

 Excited State   4:      Singlet-A      2.1948 eV  564.89 nm  f=0.1613  <S**2>=0.000
     309 -> 313        0.57038
     310 -> 314       -0.28926
     311 -> 315       -0.25027
     312 -> 316       -0.12655

 Excited State   5:      Singlet-A      2.4178 eV  512.80 nm  f=0.0000  <S**2>=0.000
     312 -> 313        0.70675

 The electronic state is 1-A.
 Alpha  occ. eigenvalues --  -46.88027 -46.87491 -19.26576 -19.26225 -19.19323
 Alpha  occ. eigenvalues --  -19.19033 -19.18992 -19.18549 -19.18396 -19.17899
 Alpha  occ. eigenvalues --  -14.42688 -14.42316 -14.41650 -14.41196 -14.39640
 Alpha  occ. eigenvalues --  -14.39184 -14.38810 -14.38434 -10.39374 -10.38959
 Alpha  occ. eigenvalues --  -10.35626 -10.35233 -10.34619 -10.34075 -10.31981
 Alpha  occ. eigenvalues --  -10.31651 -10.31642 -10.31165 -10.31119 -10.30846
 Alpha  occ. eigenvalues --  -10.30799 -10.30716 -10.30396 -10.30237 -10.30196
 Alpha  occ. eigenvalues --  -10.30092 -10.29982 -10.29846 -10.29738 -10.29477
 Alpha  occ. eigenvalues --  -10.29271 -10.29249 -10.29045 -10.28921 -10.28602
 Alpha  occ. eigenvalues --  -10.28547 -10.28524 -10.28384 -10.28237 -10.28018
 Alpha  occ. eigenvalues --  -10.27959 -10.27897 -10.27839 -10.27813 -10.27741
 Alpha  occ. eigenvalues --  -10.27636 -10.27597 -10.27533 -10.27476 -10.27405
 Alpha  occ. eigenvalues --  -10.27387 -10.27370 -10.27315 -10.27315 -10.27246
 Alpha  occ. eigenvalues --  -10.27091 -10.26893 -10.26620 -10.26552 -10.26464
 Alpha  occ. eigenvalues --  -10.26276 -10.26215 -10.26207 -10.26027 -10.26020
 Alpha  occ. eigenvalues --  -10.25777 -10.25708 -10.25638 -10.25512 -10.25283
 Alpha  occ. eigenvalues --  -10.25057 -10.24978 -10.24711 -10.24636 -10.24626
 Alpha  occ. eigenvalues --  -10.24528  -3.16772  -3.16241  -1.91653  -1.91239
 Alpha  occ. eigenvalues --   -1.91123  -1.91082  -1.90712  -1.90549  -1.16926
 Alpha  occ. eigenvalues --   -1.16518  -1.08856  -1.08508  -1.07387  -1.06941
 Alpha  occ. eigenvalues --   -1.06817  -1.06797  -1.04821  -1.04315  -1.03971
 Alpha  occ. eigenvalues --   -1.03494  -1.03453  -1.02877  -1.02626  -1.01946
 Alpha  occ. eigenvalues --   -0.92204  -0.91821  -0.89669  -0.89463  -0.89348
 Alpha  occ. eigenvalues --   -0.88939  -0.88420  -0.88081  -0.88080  -0.87907
 Alpha  occ. eigenvalues --   -0.87638  -0.87514  -0.87503  -0.86978  -0.85247
 Alpha  occ. eigenvalues --   -0.84817  -0.84054  -0.83745  -0.83152  -0.82886
 Alpha  occ. eigenvalues --   -0.82793  -0.82478  -0.81832  -0.81451  -0.80829
 Alpha  occ. eigenvalues --   -0.80289  -0.79021  -0.78486  -0.77434  -0.77160
 Alpha  occ. eigenvalues --   -0.76983  -0.76737  -0.76164  -0.75651  -0.75046
 Alpha  occ. eigenvalues --   -0.74661  -0.72981  -0.72536  -0.71879  -0.71403
 Alpha  occ. eigenvalues --   -0.69989  -0.69627  -0.69122  -0.68652  -0.67862
 Alpha  occ. eigenvalues --   -0.67504  -0.67447  -0.67050  -0.65550  -0.65097
 Alpha  occ. eigenvalues --   -0.65076  -0.64839  -0.64610  -0.64492  -0.64415
 Alpha  occ. eigenvalues --   -0.64059  -0.62539  -0.62138  -0.60644  -0.60196
 Alpha  occ. eigenvalues --   -0.60062  -0.59604  -0.59196  -0.58832  -0.58715
 Alpha  occ. eigenvalues --   -0.58270  -0.57831  -0.57492  -0.57404  -0.57091
 Alpha  occ. eigenvalues --   -0.56531  -0.56247  -0.56049  -0.55746  -0.55739
 Alpha  occ. eigenvalues --   -0.55506  -0.55298  -0.55110  -0.54706  -0.54354
 Alpha  occ. eigenvalues --   -0.54174  -0.53713  -0.53507  -0.53471  -0.53150
 Alpha  occ. eigenvalues --   -0.53075  -0.53000  -0.52981  -0.52746  -0.52507
 Alpha  occ. eigenvalues --   -0.52504  -0.52276  -0.52111  -0.51888  -0.51736
 Alpha  occ. eigenvalues --   -0.51493  -0.51402  -0.51047  -0.50797  -0.50346
 Alpha  occ. eigenvalues --   -0.50202  -0.50100  -0.49813  -0.49753  -0.49714
 Alpha  occ. eigenvalues --   -0.49448  -0.49336  -0.49311  -0.49032  -0.48907
 Alpha  occ. eigenvalues --   -0.48830  -0.48656  -0.48611  -0.48386  -0.48239
 Alpha  occ. eigenvalues --   -0.48181  -0.47911  -0.47505  -0.47436  -0.46997
 Alpha  occ. eigenvalues --   -0.46971  -0.46821  -0.46564  -0.46551  -0.46370
 Alpha  occ. eigenvalues --   -0.46353  -0.46122  -0.46050  -0.45942  -0.45670
 Alpha  occ. eigenvalues --   -0.45342  -0.45068  -0.44804  -0.44719  -0.44363
 Alpha  occ. eigenvalues --   -0.44349  -0.44299  -0.44294  -0.44236  -0.43942
 Alpha  occ. eigenvalues --   -0.43933  -0.43782  -0.43727  -0.43604  -0.43412
 Alpha  occ. eigenvalues --   -0.43235  -0.43218  -0.42958  -0.42793  -0.42773
 Alpha  occ. eigenvalues --   -0.42745  -0.42413  -0.42172  -0.41919  -0.41821
 Alpha  occ. eigenvalues --   -0.41776  -0.41506  -0.41355  -0.41295  -0.41103
 Alpha  occ. eigenvalues --   -0.41038  -0.40799  -0.40702  -0.40562  -0.40551
 Alpha  occ. eigenvalues --   -0.40530  -0.40339  -0.40071  -0.39505  -0.39298
 Alpha  occ. eigenvalues --   -0.38624  -0.38205  -0.38050  -0.37532  -0.37502
 Alpha  occ. eigenvalues --   -0.37484  -0.37113  -0.37026  -0.36964  -0.36641
 Alpha  occ. eigenvalues --   -0.36401  -0.36068  -0.34506  -0.34088  -0.34060
 Alpha  occ. eigenvalues --   -0.33727  -0.33408  -0.33009  -0.31519  -0.31250
 Alpha  occ. eigenvalues --   -0.31105  -0.30802  -0.30256  -0.29803  -0.29681
 Alpha  occ. eigenvalues --   -0.29545  -0.29170  -0.29051  -0.24302  -0.23866
 Alpha  occ. eigenvalues --   -0.21347  -0.20950
 Alpha virt. eigenvalues --   -0.08997  -0.08629  -0.01963  -0.01517  -0.00283
 Alpha virt. eigenvalues --    0.00138   0.01986   0.02360   0.02602   0.03375
 Alpha virt. eigenvalues --    0.04463   0.04812   0.04908   0.05301   0.05860

 Mulliken charges:
               1
     1  Mg   0.836379
     2  C   -0.003829
     3  C   -0.095376
     4  C   -0.044208
     5  C   -0.063208
     6  N   -0.256868
     7  C   -0.053048
     8  C   -0.013680
     9  C   -0.086683
    10  C    0.045475
    11  C    0.104694
    12  C    0.053788
    13  C   -0.071460
    14  H    0.034479
    15  N   -0.433322
    16  C    0.167019
    17  C   -0.178878
    18  C   -0.005577
    19  C    0.147917
    20  C    0.110426
    21  C    0.011898
    22  O   -0.247054
    23  C    0.062984
    24  N   -0.341265
    25  C    0.041285
    26  C   -0.028569
    27  C   -0.024195
    28  C    0.075433
    29  C    0.075924
    30  C    0.034764
    31  C   -0.004618
    32  N   -0.310647
    33  C    0.080776
    34  C   -0.169163
    35  C    0.008485
    36  C    0.083046
    37  C    0.127231
    38  C    0.046198
    39  O   -0.187948
    40  C   -0.005347
    41  C    0.213175
    42  O   -0.258522
    43  O   -0.304350
    44  C    0.157685
    45  H   -0.017507
    46  H   -0.015298
    47  H   -0.040633
    48  H    0.001457
    49  H   -0.004616
    50  H    0.025785
    51  H    0.016979
    52  H    0.016963
    53  H    0.008974
    54  H    0.042648
    55  H    0.019241
    56  H    0.017842
    57  H    0.005780
    58  H    0.027761
    59  H    0.037473
    60  H    0.037713
    61  H    0.037293
    62  H    0.028495
    63  H    0.018823
    64  H    0.009598
    65  H    0.024169
    66  H    0.012209
    67  H    0.004889
    68  H    0.007068
    69  H    0.004262
    70  H    0.012254
    71  H    0.018336
    72  H    0.028265
    73  H    0.047871
    74  H    0.009757
    75  H    0.046424
    76  H    0.035590
    77  H    0.043871
    78  H    0.046025
    79  H    0.052842
    80  Mg   0.838297
    81  C   -0.016871
    82  C   -0.087350
    83  C   -0.045506
    84  C   -0.064891
    85  N   -0.254683
    86  C   -0.049300
    87  C   -0.015170
    88  C   -0.090534
    89  C    0.045684
    90  C    0.114044
    91  C    0.062674
    92  C   -0.077353
    93  H    0.033859
    94  N   -0.423640
    95  C    0.163004
    96  C   -0.174715
    97  C   -0.008239
    98  C    0.152306
    99  C    0.098996
   100  C    0.015761
   101  O   -0.252213
   102  C    0.059911
   103  N   -0.349921
   104  C    0.037671
   105  C   -0.019841
   106  C   -0.034781
   107  C    0.088903
   108  C    0.073677
   109  C    0.034829
   110  C   -0.007597
   111  N   -0.324085
   112  C    0.078465
   113  C   -0.163288
   114  C    0.002285
   115  C    0.096164
   116  C    0.131485
   117  C    0.042281
   118  O   -0.188290
   119  C    0.000945
   120  C    0.211150
   121  O   -0.251360
   122  O   -0.305426
   123  C    0.152211
   124  H   -0.017859
   125  H   -0.015647
   126  H   -0.040827
   127  H   -0.000522
   128  H   -0.005474
   129  H    0.022269
   130  H    0.017938
   131  H    0.018259
   132  H    0.013331
   133  H    0.037299
   134  H    0.021026
   135  H    0.018914
   136  H    0.008801
   137  H    0.027288
   138  H    0.037417
   139  H    0.039002
   140  H    0.038601
   141  H    0.031640
   142  H    0.014187
   143  H    0.012297
   144  H    0.024465
   145  H    0.012104
   146  H    0.005338
   147  H    0.005861
   148  H    0.003465
   149  H    0.010823
   150  H    0.017574
   151  H    0.030253
   152  H    0.045623
   153  H    0.008184
   154  H    0.047125
   155  H    0.035572
   156  H    0.043701
   157  H    0.049320
   158  H    0.053257
 Sum of Mulliken charges =  -0.00000

 Dipole moment (field-independent basis, Debye):
    X=              6.5087    Y=              1.6077    Z=              4.5834  Tot=              8.1213
 Quadrupole moment (field-independent basis, Debye-Ang):
   XX=           -551.6942   YY=           -497.6226   ZZ=           -491.1241
   XY=             18.1329   XZ=             18.7012   YZ=             57.3863

 Normal termination of Gaussian 16 at Sat Sep 11 00:32:08 2021.
