 Gaussian 16, Revision A.03,
 Gaussian 16:  ES64L-G16RevA.03 25-Dec-2016

 -----------------------------------
 #p cam-b3lyp/Def2SVP td=(nstates=5)
 -----------------------------------

 --------------------------------
 TDDFT excited states in gaussian
 --------------------------------
 Symbolic Z-matrix:
 Charge =  0 Multiplicity = 1

                         Standard orientation:
 ---------------------------------------------------------------------
 Center     Atomic      Atomic             Coordinates (Angstroms)
 Number     Number       Type             X           Y           Z
 ---------------------------------------------------------------------
      1         12           0        6.244691    1.156602    0.531005
      2          6           0        6.742875   -2.347449   -0.003466
      3          6           0        7.275789    1.642280   -2.685207
      4          6           0        6.248582    4.273064    1.117751
      5          6           0        6.355937    0.500425    3.951928
      6          7           0        6.898301   -0.253351   -1.045533
      7          6           0        6.987015   -1.576225   -1.141998
      8          6           0        7.290468   -2.071293   -2.587749
      9          6           0        7.981637   -0.755396   -3.164551
     10          6           0        7.320614    0.278278   -2.269850
     11          6           0        9.489218   -0.709486   -2.937413
     12          6           0        5.987703   -2.428265   -3.379649
     13          6           0        6.204980   -3.221826   -4.671317
     14          1           0        5.222124   -4.225723   -5.050173
     15          7           0        6.221758    2.693891   -0.709586
     16          6           0        6.666633    2.708691   -1.989099
     17          6           0        6.432218    4.081484   -2.486259
     18          6           0        5.990221    4.913797   -1.333008
     19          6           0        6.163258    3.987933   -0.242957
     20          6           0        6.581998    4.472537   -3.924450
     21          6           0        5.501049    6.323726   -1.228393
     22          8           0        5.390693    6.923779   -0.104858
     23          6           0        5.235055    7.022744   -2.498693
     24          7           0        6.513848    2.273051    2.274201
     25          6           0        6.408852    3.606403    2.262794
     26          6           0        6.357365    4.161983    3.655137
     27          6           0        6.204006    2.904640    4.627414
     28          6           0        6.280533    1.776967    3.568752
     29          6           0        7.570577    4.996759    4.087893
     30          6           0        5.004218    2.915915    5.607618
     31          6           0        3.709226    2.801167    4.835007
     32          7           0        6.324253   -0.613355    1.784786
     33          6           0        6.386389   -0.652459    3.185245
     34          6           0        6.534636   -2.067633    3.571734
     35          6           0        6.565299   -2.756387    2.360733
     36          6           0        6.470293   -1.827739    1.285150
     37          6           0        6.679871   -2.558102    4.899431
     38          6           0        6.680998   -4.058616    1.724595
     39          8           0        6.695280   -5.222512    2.127875
     40          6           0        6.923162   -3.835441    0.166591
     41          6           0        5.983337   -4.746861   -0.574592
     42          8           0        4.749217   -4.567319   -0.529014
     43          8           0        6.687493   -5.532419   -1.403811
     44          6           0        5.812091   -6.441047   -2.191351
     45          1           0        7.804101    1.934685   -3.594782
     46          1           0        6.142226    5.330360    1.369246
     47          1           0        6.312276    0.211643    5.003666
     48          1           0        7.983212   -2.911116   -2.644551
     49          1           0        7.716103   -0.579727   -4.206834
     50          1           0        9.821463   -1.529899   -2.301443
     51          1           0        9.681737    0.248684   -2.454362
     52          1           0       10.023322   -0.678767   -3.887448
     53          1           0        5.556767   -1.516185   -3.792524
     54          1           0        5.283030   -2.963264   -2.742045
     55          1           0        7.212393   -3.636160   -4.719864
     56          1           0        6.156694   -2.528002   -5.510648
     57          1           0        7.077078    3.692878   -4.502007
     58          1           0        7.273771    5.314091   -3.955204
     59          1           0        5.631126    4.761738   -4.372263
     60          1           0        6.148367    7.048351   -3.093466
     61          1           0        4.808219    7.987633   -2.227309
     62          1           0        4.510519    6.445843   -3.074177
     63          1           0        5.497935    4.818933    3.782501
     64          1           0        7.073522    2.778291    5.272900
     65          1           0        7.314772    6.006152    4.410995
     66          1           0        8.277444    5.018834    3.258953
     67          1           0        8.175248    4.549619    4.876472
     68          1           0        4.969539    3.858035    6.153651
     69          1           0        5.039181    2.109239    6.339945
     70          1           0        3.511915    3.830120    4.536416
     71          1           0        2.914618    2.422196    5.478584
     72          1           0        3.839649    2.216807    3.923964
     73          1           0        6.040133   -3.437606    4.971393
     74          1           0        6.399247   -1.803028    5.633405
     75          1           0        7.746549   -2.781159    4.916744
     76          1           0        7.967346   -4.079440   -0.026451
     77          1           0        6.159397   -7.458258   -2.009985
     78          1           0        5.830290   -6.075720   -3.218294
     79          1           0        4.774999   -6.515973   -1.862466
     80         12           0       -6.925347    0.163329   -0.250756
     81          6           0       -4.891158   -2.789821   -0.109225
     82          6           0       -4.687114    1.416494   -2.498976
     83          6           0       -8.441516    2.944040   -0.060127
     84          6           0       -8.326017   -0.824197    2.783812
     85          7           0       -5.069151   -0.673912   -1.114369
     86          6           0       -4.427788   -1.829930   -1.032989
     87          6           0       -3.269811   -1.996242   -2.053284
     88          6           0       -2.956414   -0.443385   -2.316547
     89          6           0       -4.329579    0.141468   -1.992442
     90          6           0       -1.946620    0.140336   -1.342428
     91          6           0       -3.730131   -2.720096   -3.367112
     92          6           0       -2.591520   -3.191281   -4.274466
     93          1           0       -2.761077   -4.439702   -5.012817
     94          7           0       -6.908865    1.721931   -1.479197
     95          6           0       -5.929617    2.068754   -2.340625
     96          6           0       -6.389701    3.302114   -2.997372
     97          6           0       -7.646377    3.745558   -2.334936
     98          6           0       -7.704401    2.812118   -1.227949
     99          6           0       -5.697503    3.896004   -4.189663
    100          6           0       -8.626106    4.838175   -2.639104
    101          8           0       -9.520479    5.195290   -1.793296
    102          6           0       -8.448437    5.540613   -3.918365
    103          7           0       -8.045169    1.058362    1.254978
    104          6           0       -8.638755    2.249035    1.060312
    105          6           0       -9.610125    2.562718    2.173163
    106          6           0       -9.724985    1.220046    3.034353
    107          6           0       -8.686647    0.352297    2.289871
    108          6           0       -9.220395    3.722713    3.089075
    109          6           0      -11.150684    0.643173    3.251728
    110          6           0      -11.713613    0.149849    1.938288
    111          7           0       -6.813608   -1.580804    1.019509
    112          6           0       -7.461444   -1.776255    2.258942
    113          6           0       -6.987504   -3.066986    2.799152
    114          6           0       -6.072172   -3.525615    1.839819
    115          6           0       -5.966885   -2.577424    0.786563
    116          6           0       -7.368038   -3.636630    4.046872
    117          6           0       -5.163119   -4.591264    1.483843
    118          8           0       -4.897047   -5.698217    1.950297
    119          6           0       -4.263339   -4.102902    0.267993
    120          6           0       -4.247814   -5.194873   -0.766352
    121          8           0       -5.289411   -5.510175   -1.368239
    122          8           0       -2.972767   -5.534995   -1.028930
    123          6           0       -2.905012   -6.607184   -2.057342
    124          1           0       -3.931602    1.992820   -3.033712
    125          1           0       -9.068655    3.836300    0.003353
    126          1           0       -8.788531   -1.248718    3.677418
    127          1           0       -2.389006   -2.492494   -1.663830
    128          1           0       -2.701159   -0.262907   -3.357528
    129          1           0       -1.694263   -0.557135   -0.557568
    130          1           0       -2.414576    1.023532   -0.927658
    131          1           0       -1.062718    0.492682   -1.881767
    132          1           0       -4.208365   -1.988032   -4.030516
    133          1           0       -4.376966   -3.545344   -3.140829
    134          1           0       -1.622455   -3.177072   -3.760975
    135          1           0       -2.474678   -2.470507   -5.087385
    136          1           0       -4.709937    3.445159   -4.347349
    137          1           0       -5.482755    4.942233   -3.946443
    138          1           0       -6.310440    3.861778   -5.092878
    139          1           0       -7.455637    5.982934   -3.952637
    140          1           0       -9.295875    6.224452   -3.996418
    141          1           0       -8.493886    4.806031   -4.730107
    142          1           0      -10.586867    2.809890    1.775688
    143          1           0       -9.343947    1.358013    4.056907
    144          1           0       -9.986093    4.520095    3.133414
    145          1           0       -8.274155    4.122618    2.749591
    146          1           0       -8.997818    3.444261    4.117716
    147          1           0      -11.826365    1.426242    3.604430
    148          1           0      -11.184618   -0.162433    3.977565
    149          1           0      -12.112044    1.061306    1.482676
    150          1           0      -12.500248   -0.582236    2.109483
    151          1           0      -10.917249   -0.224505    1.284589
    152          1           0       -7.548183   -4.688159    3.867041
    153          1           0       -8.248733   -3.145869    4.455899
    154          1           0       -6.471446   -3.429739    4.637277
    155          1           0       -3.266803   -3.896309    0.660187
    156          1           0       -2.328521   -7.430048   -1.623483
    157          1           0       -2.492161   -6.125977   -2.963851
    158          1           0       -3.828610   -7.110515   -2.318234
 ---------------------------------------------------------------------

 SCF Done:  E(RCAM-B3LYP) =  -4069.81159436     A.U. after   19 cycles

 Excitation energies and oscillator strengths:

 Excited State   1:      Singlet-A      1.6645 eV  744.89 nm  f=0.0053  <S**2>=0.000
     309 -> 315        0.11221
     310 -> 316       -0.12904
     311 -> 313        0.44855
     312 -> 314        0.51995
 This state for optimization and/or second-order correction.
 Total Energy, E(TD-HF/TD-DFT) =  -4069.75042606
 Copying the excited state density for this state as the 1-particle RhoCI density.

 Excited State   2:      Singlet-A      1.6896 eV  733.80 nm  f=0.7345  <S**2>=0.000
     309 -> 315        0.13492
     310 -> 316        0.11549
     311 -> 313        0.51866
     312 -> 314       -0.44755

 Excited State   3:      Singlet-A      2.1846 eV  567.55 nm  f=0.0667  <S**2>=0.000
     309 -> 313        0.15865
     310 -> 314        0.62313
     312 -> 316        0.26348

 Excited State   4:      Singlet-A      2.1931 eV  565.33 nm  f=0.1282  <S**2>=0.000
     309 -> 313        0.62078
     310 -> 314       -0.15729
     311 -> 315       -0.27031

 Excited State   5:      Singlet-A      2.6029 eV  476.32 nm  f=0.0000  <S**2>=0.000
     312 -> 313        0.70694

 The electronic state is 1-A.
 Alpha  occ. eigenvalues --  -46.87959 -46.87523 -19.26420 -19.26090 -19.19162
 Alpha  occ. eigenvalues --  -19.18982 -19.18940 -19.18608 -19.18293 -19.17869
 Alpha  occ. eigenvalues --  -14.42612 -14.42354 -14.41602 -14.41225 -14.39566
 Alpha  occ. eigenvalues --  -14.39218 -14.38741 -14.38459 -10.39221 -10.38865
 Alpha  occ. eigenvalues --  -10.35617 -10.35289 -10.34514 -10.34041 -10.31812
 Alpha  occ. eigenvalues --  -10.31558 -10.31498 -10.31153 -10.31078 -10.30872
 Alpha  occ. eigenvalues --  -10.30720 -10.30657 -10.30360 -10.30261 -10.30217
 Alpha  occ. eigenvalues --  -10.30060 -10.30022 -10.29781 -10.29760 -10.29413
 Alpha  occ. eigenvalues --  -10.29311 -10.29267 -10.28926 -10.28749 -10.28523
 Alpha  occ. eigenvalues --  -10.28523 -10.28488 -10.28281 -10.28259 -10.27963
 Alpha  occ. eigenvalues --  -10.27939 -10.27885 -10.27862 -10.27742 -10.27663
 Alpha  occ. eigenvalues --  -10.27626 -10.27575 -10.27559 -10.27533 -10.27413
 Alpha  occ. eigenvalues --  -10.27380 -10.27337 -10.27331 -10.27295 -10.27268
 Alpha  occ. eigenvalues --  -10.26921 -10.26834 -10.26601 -10.26527 -10.26378
 Alpha  occ. eigenvalues --  -10.26338 -10.26296 -10.26165 -10.26045 -10.25936
 Alpha  occ. eigenvalues --  -10.25811 -10.25805 -10.25714 -10.25547 -10.25299
 Alpha  occ. eigenvalues --  -10.24976 -10.24938 -10.24808 -10.24727 -10.24642
 Alpha  occ. eigenvalues --  -10.24556  -3.16702  -3.16273  -1.91584  -1.91170
 Alpha  occ. eigenvalues --   -1.91156  -1.91012  -1.90744  -1.90581  -1.16770
 Alpha  occ. eigenvalues --   -1.16394  -1.08748  -1.08468  -1.07384  -1.06863
 Alpha  occ. eigenvalues --   -1.06783  -1.06721  -1.04742  -1.04348  -1.03914
 Alpha  occ. eigenvalues --   -1.03525  -1.03388  -1.02905  -1.02564  -1.01974
 Alpha  occ. eigenvalues --   -0.92120  -0.91824  -0.89658  -0.89368  -0.89358
 Alpha  occ. eigenvalues --   -0.88978  -0.88423  -0.88102  -0.88002  -0.87833
 Alpha  occ. eigenvalues --   -0.87653  -0.87542  -0.87441  -0.87008  -0.85151
 Alpha  occ. eigenvalues --   -0.84842  -0.84066  -0.83755  -0.83133  -0.82828
 Alpha  occ. eigenvalues --   -0.82810  -0.82500  -0.81729  -0.81411  -0.80749
 Alpha  occ. eigenvalues --   -0.80280  -0.78954  -0.78511  -0.77369  -0.77087
 Alpha  occ. eigenvalues --   -0.77003  -0.76733  -0.76073  -0.75664  -0.75032
 Alpha  occ. eigenvalues --   -0.74671  -0.72919  -0.72561  -0.71818  -0.71431
 Alpha  occ. eigenvalues --   -0.70036  -0.69647  -0.69036  -0.68674  -0.67793
 Alpha  occ. eigenvalues --   -0.67459  -0.67402  -0.67055  -0.65451  -0.65102
 Alpha  occ. eigenvalues --   -0.65001  -0.64771  -0.64622  -0.64488  -0.64408
 Alpha  occ. eigenvalues --   -0.64075  -0.62438  -0.62083  -0.60600  -0.60221
 Alpha  occ. eigenvalues --   -0.59967  -0.59632  -0.59134  -0.58847  -0.58650
 Alpha  occ. eigenvalues --   -0.58274  -0.57723  -0.57452  -0.57363  -0.57097
 Alpha  occ. eigenvalues --   -0.56457  -0.56126  -0.56064  -0.55692  -0.55675
 Alpha  occ. eigenvalues --   -0.55471  -0.55303  -0.55099  -0.54657  -0.54323
 Alpha  occ. eigenvalues --   -0.54066  -0.53744  -0.53452  -0.53384  -0.53093
 Alpha  occ. eigenvalues --   -0.53063  -0.52987  -0.52927  -0.52738  -0.52564
 Alpha  occ. eigenvalues --   -0.52544  -0.52290  -0.52033  -0.51787  -0.51742
 Alpha  occ. eigenvalues --   -0.51505  -0.51336  -0.51044  -0.50750  -0.50376
 Alpha  occ. eigenvalues --   -0.50171  -0.50080  -0.49845  -0.49749  -0.49677
 Alpha  occ. eigenvalues --   -0.49363  -0.49348  -0.49248  -0.49046  -0.48933
 Alpha  occ. eigenvalues --   -0.48734  -0.48614  -0.48583  -0.48391  -0.48253
 Alpha  occ. eigenvalues --   -0.48203  -0.47850  -0.47449  -0.47447  -0.46989
 Alpha  occ. eigenvalues --   -0.46944  -0.46724  -0.46570  -0.46505  -0.46398
 Alpha  occ. eigenvalues --   -0.46298  -0.46137  -0.45952  -0.45937  -0.45648
 Alpha  occ. eigenvalues --   -0.45336  -0.45083  -0.44718  -0.44666  -0.44352
 Alpha  occ. eigenvalues --   -0.44328  -0.44291  -0.44249  -0.44165  -0.43972
 Alpha  occ. eigenvalues --   -0.43949  -0.43792  -0.43633  -0.43541  -0.43374
 Alpha  occ. eigenvalues --   -0.43230  -0.43171  -0.42837  -0.42788  -0.42767
 Alpha  occ. eigenvalues --   -0.42697  -0.42437  -0.42152  -0.41848  -0.41829
 Alpha  occ. eigenvalues --   -0.41700  -0.41509  -0.41307  -0.41290  -0.41031
 Alpha  occ. eigenvalues --   -0.40995  -0.40838  -0.40708  -0.40598  -0.40557
 Alpha  occ. eigenvalues --   -0.40429  -0.40360  -0.40063  -0.39570  -0.39319
 Alpha  occ. eigenvalues --   -0.38611  -0.38227  -0.37930  -0.37501  -0.37464
 Alpha  occ. eigenvalues --   -0.37433  -0.37135  -0.37046  -0.36851  -0.36568
 Alpha  occ. eigenvalues --   -0.36336  -0.36060  -0.34439  -0.34111  -0.33916
 Alpha  occ. eigenvalues --   -0.33658  -0.33338  -0.33034  -0.31510  -0.31189
 Alpha  occ. eigenvalues --   -0.31166  -0.30829  -0.30152  -0.29768  -0.29608
 Alpha  occ. eigenvalues --   -0.29466  -0.29199  -0.29068  -0.24236  -0.23893
 Alpha  occ. eigenvalues --   -0.21281  -0.20980
 Alpha virt. eigenvalues --   -0.08928  -0.08655  -0.01906  -0.01550  -0.00220
 Alpha virt. eigenvalues --    0.00102   0.02063   0.02363   0.02897   0.03348
 Alpha virt. eigenvalues --    0.04552   0.04876   0.04957   0.05384   0.05993

 Mulliken charges:
               1
     1  Mg   0.837487
     2  C   -0.003341
     3  C   -0.094649
     4  C   -0.045874
     5  C   -0.063694
     6  N   -0.256754
     7  C   -0.052680
     8  C   -0.013821
     9  C   -0.086854
    10  C    0.045860
    11  C    0.104751
    12  C    0.053647
    13  C   -0.071656
    14  H    0.035520
    15  N   -0.433138
    16  C    0.167837
    17  C   -0.177641
    18  C   -0.004305
    19  C    0.148404
    20  C    0.110206
    21  C    0.011847
    22  O   -0.249382
    23  C    0.062778
    24  N   -0.341086
    25  C    0.041165
    26  C   -0.028186
    27  C   -0.024096
    28  C    0.074842
    29  C    0.076055
    30  C    0.035039
    31  C   -0.004537
    32  N   -0.310625
    33  C    0.080495
    34  C   -0.169119
    35  C    0.008756
    36  C    0.082937
    37  C    0.127146
    38  C    0.046519
    39  O   -0.187343
    40  C   -0.005459
    41  C    0.213212
    42  O   -0.257481
    43  O   -0.304658
    44  C    0.157521
    45  H   -0.017549
    46  H   -0.016666
    47  H   -0.040871
    48  H    0.001371
    49  H   -0.004372
    50  H    0.025739
    51  H    0.016652
    52  H    0.016830
    53  H    0.010020
    54  H    0.043555
    55  H    0.018624
    56  H    0.017704
    57  H    0.005824
    58  H    0.027158
    59  H    0.038407
    60  H    0.037686
    61  H    0.035742
    62  H    0.030260
    63  H    0.016557
    64  H    0.009850
    65  H    0.023421
    66  H    0.012590
    67  H    0.005061
    68  H    0.006719
    69  H    0.005224
    70  H    0.008662
    71  H    0.018680
    72  H    0.028358
    73  H    0.048506
    74  H    0.009483
    75  H    0.046333
    76  H    0.035481
    77  H    0.043638
    78  H    0.045996
    79  H    0.053679
    80  Mg   0.837579
    81  C   -0.016839
    82  C   -0.087819
    83  C   -0.045688
    84  C   -0.065180
    85  N   -0.254584
    86  C   -0.049527
    87  C   -0.015546
    88  C   -0.090562
    89  C    0.045826
    90  C    0.114473
    91  C    0.062561
    92  C   -0.077824
    93  H    0.033800
    94  N   -0.423420
    95  C    0.162787
    96  C   -0.174844
    97  C   -0.008078
    98  C    0.152047
    99  C    0.099560
   100  C    0.015379
   101  O   -0.253485
   102  C    0.061282
   103  N   -0.350075
   104  C    0.037430
   105  C   -0.019741
   106  C   -0.034801
   107  C    0.089046
   108  C    0.073749
   109  C    0.034799
   110  C   -0.007623
   111  N   -0.324198
   112  C    0.078660
   113  C   -0.163274
   114  C    0.002648
   115  C    0.096040
   116  C    0.131489
   117  C    0.042540
   118  O   -0.186897
   119  C    0.000942
   120  C    0.211026
   121  O   -0.251933
   122  O   -0.304065
   123  C    0.152571
   124  H   -0.020225
   125  H   -0.015929
   126  H   -0.040670
   127  H    0.002315
   128  H   -0.005252
   129  H    0.024696
   130  H    0.013852
   131  H    0.015734
   132  H    0.013130
   133  H    0.037585
   134  H    0.023016
   135  H    0.018290
   136  H    0.008194
   137  H    0.025732
   138  H    0.039213
   139  H    0.038032
   140  H    0.036041
   141  H    0.033644
   142  H    0.014138
   143  H    0.012280
   144  H    0.024829
   145  H    0.011706
   146  H    0.005464
   147  H    0.006002
   148  H    0.003569
   149  H    0.010785
   150  H    0.017728
   151  H    0.030260
   152  H    0.046037
   153  H    0.008167
   154  H    0.047283
   155  H    0.037631
   156  H    0.044841
   157  H    0.049102
   158  H    0.052555
 Sum of Mulliken charges =  -0.00000

 Dipole moment (field-independent basis, Debye):
    X=              4.7520    Y=              5.0736    Z=             -5.2077  Tot=              8.6858
 Quadrupole moment (field-independent basis, Debye-Ang):
   XX=           -507.4368   YY=           -566.9654   ZZ=           -449.9653
   XY=              0.5015   XZ=            -35.8360   YZ=             14.6215

 Normal termination of Gaussian 16 at Sat Sep 11 13:32:46 2021.
