 Gaussian 16, Revision A.03,
 Gaussian 16:  ES64L-G16RevA.03 25-Dec-2016

 -----------------------------------
 #p cam-b3lyp/Def2SVP td=(nstates=5)
 -----------------------------------

 --------------------------------
 TDDFT excited states in gaussian
 --------------------------------
 Symbolic Z-matrix:
 Charge =  0 Multiplicity = 1

                         Standard orientation:
 ---------------------------------------------------------------------
 Center     Atomic      Atomic             Coordinates (Angstroms)
 Number     Number       Type             X           Y           Z
 ---------------------------------------------------------------------
      1         12           0      -15.772334   -0.810457    0.111106
      2          6           0      -16.158802    2.747746    0.156323
      3          6           0      -16.670048   -0.716967   -3.179552
      4          6           0      -15.879988   -3.979427    0.162726
      5          6           0      -16.020397   -0.733648    3.586481
      6          7           0      -16.319394    0.863978   -1.229654
      7          6           0      -16.370782    2.186462   -1.104895
      8          6           0      -16.596751    2.926288   -2.457289
      9          6           0      -17.293882    1.748504   -3.275110
     10          6           0      -16.699514    0.558860   -2.542034
     11          6           0      -18.810802    1.713515   -3.119442
     12          6           0      -15.251341    3.368989   -3.124836
     13          6           0      -15.390731    4.374345   -4.271650
     14          1           0      -14.367233    5.395515   -4.436002
     15          7           0      -15.732065   -2.118029   -1.369260
     16          6           0      -16.119393   -1.903921   -2.649659
     17          6           0      -15.897140   -3.180778   -3.361643
     18          6           0      -15.528087   -4.208323   -2.348704
     19          6           0      -15.726719   -3.473171   -1.125808
     20          6           0      -15.992006   -3.320271   -4.850029
     21          6           0      -15.079298   -5.630786   -2.464121
     22          8           0      -15.034346   -6.413869   -1.454500
     23          6           0      -14.774115   -6.115189   -3.822524
     24          7           0      -16.146998   -2.194050    1.628648
     25          6           0      -16.074777   -3.509303    1.396536
     26          6           0      -16.099555   -4.291728    2.676042
     27          6           0      -15.958702   -3.220681    3.851956
     28          6           0      -15.959659   -1.929671    2.996642
     29          6           0      -17.351316   -5.147907    2.912816
     30          6           0      -14.804689   -3.434512    4.863365
     31          6           0      -13.473928   -3.233466    4.173614
     32          7           0      -15.863965    0.725974    1.641475
     33          6           0      -15.987795    0.531794    3.024817
     34          6           0      -16.117982    1.866195    3.638407
     35          6           0      -16.077221    2.748783    2.560806
     36          6           0      -15.957236    2.010963    1.348569
     37          6           0      -16.310320    2.131618    5.022961
     38          6           0      -16.131892    4.142233    2.149510
     39          8           0      -16.135289    5.221934    2.742576
     40          6           0      -16.309479    4.191197    0.567773
     41          6           0      -15.315021    5.183346    0.029256
     42          8           0      -14.089027    4.959249    0.093179
     43          8           0      -15.961569    6.118920   -0.682937
     44          6           0      -15.029440    7.118152   -1.270156
     45          1           0      -17.164181   -0.835718   -4.145819
     46          1           0      -15.811325   -5.066775    0.236183
     47          1           0      -16.016737   -0.626760    4.672765
     48          1           0      -17.265161    3.785516   -2.399161
     49          1           0      -16.986365    1.741576   -4.320627
     50          1           0      -19.150709    2.425963   -2.367908
     51          1           0      -19.048532    0.694611   -2.813156
     52          1           0      -19.302401    1.859578   -4.081613
     53          1           0      -14.825147    2.525667   -3.668185
     54          1           0      -14.562862    3.766704   -2.378415
     55          1           0      -16.384343    4.823025   -4.289798
     56          1           0      -15.322150    3.829811   -5.213446
     57          1           0      -16.441175   -2.439386   -5.307013
     58          1           0      -16.702415   -4.122160   -5.050034
     59          1           0      -15.029508   -3.560655   -5.301853
     60          1           0      -15.660214   -6.011474   -4.449118
     61          1           0      -14.383987   -7.125089   -3.701066
     62          1           0      -14.010404   -5.473522   -4.262929
     63          1           0      -15.263293   -4.987932    2.724940
     64          1           0      -16.852856   -3.176496    4.474218
     65          1           0      -17.135419   -6.204845    3.070855
     66          1           0      -18.020663   -5.008084    2.064455
     67          1           0      -17.979410   -4.820103    3.740742
     68          1           0      -14.817943   -4.455438    5.243470
     69          1           0      -14.852363   -2.761275    5.719361
     70          1           0      -13.289079   -4.203613    3.713747
     71          1           0      -12.699779   -2.993375    4.903175
     72          1           0      -13.548833   -2.500815    3.369813
     73          1           0      -15.652783    2.965663    5.267875
     74          1           0      -16.081724    1.255618    5.629566
     75          1           0      -17.370827    2.382687    5.035017
     76          1           0      -17.337576    4.497433    0.377098
     77          1           0      -15.359127    8.101182   -0.933715
     78          1           0      -15.010685    6.930871   -2.343924
     79          1           0      -14.006584    7.103626   -0.892144
     80         12           0       15.942950    0.825629   -0.040907
     81          6           0       15.919043   -2.742632   -0.422963
     82          6           0       15.106589    0.331482    3.228790
     83          6           0       15.514829    3.958701    0.219879
     84          6           0       15.645865    1.059413   -3.505409
     85          7           0       15.587521   -1.014582    1.133632
     86          6           0       15.667472   -2.315432    0.897512
     87          6           0       15.546132   -3.207335    2.162159
     88          6           0       14.737246   -2.185432    3.100404
     89          6           0       15.194364   -0.867835    2.477772
     90          6           0       13.229274   -2.289790    2.944064
     91          6           0       16.944502   -3.567014    2.776331
     92          6           0       16.919124   -4.682087    3.824047
     93          1           0       18.050114   -5.603693    3.887195
     94          7           0       15.875051    1.982862    1.569927
     95          6           0       15.537123    1.613878    2.823286
     96          6           0       15.622955    2.835030    3.639134
     97          6           0       15.879072    3.987463    2.733035
     98          6           0       15.742571    3.343237    1.442132
     99          6           0       15.545429    2.819238    5.138185
    100          6           0       16.182372    5.433164    2.986360
    101          8           0       16.133468    6.305745    2.048782
    102          6           0       16.446916    5.812779    4.381849
    103          7           0       15.414195    2.295480   -1.412877
    104          6           0       15.349434    3.588604   -1.050151
    105          6           0       15.222447    4.487854   -2.256629
    106          6           0       15.459639    3.542107   -3.524259
    107          6           0       15.600461    2.183414   -2.803474
    108          6           0       13.886092    5.214442   -2.407040
    109          6           0       16.571175    3.968199   -4.522063
    110          6           0       17.927260    3.853366   -3.863848
    111          7           0       15.990473   -0.554302   -1.702698
    112          6           0       15.819934   -0.248296   -3.070681
    113          6           0       15.818168   -1.529345   -3.806440
    114          6           0       15.965891   -2.500888   -2.805051
    115          6           0       16.033263   -1.871051   -1.532945
    116          6           0       15.643637   -1.681801   -5.210871
    117          6           0       16.069491   -3.916667   -2.533902
    118          8           0       16.160378   -4.929433   -3.226555
    119          6           0       15.916735   -4.143830   -0.968181
    120          6           0       17.015255   -5.070321   -0.523899
    121          8           0       18.205423   -4.714956   -0.585760
    122          8           0       16.471510   -6.131390    0.099666
    123          6           0       17.522112   -7.073830    0.568553
    124          1           0       14.624060    0.297569    4.205977
    125          1           0       15.470525    5.050029    0.242506
    126          1           0       15.656302    1.053149   -4.597440
    127          1           0       14.974171   -4.116926    2.023360
    128          1           0       15.066436   -2.253175    4.134043
    129          1           0       12.952717   -2.953940    2.138731
    130          1           0       12.884330   -1.284442    2.740749
    131          1           0       12.770944   -2.579325    3.894039
    132          1           0       17.287443   -2.731238    3.399720
    133          1           0       17.647901   -3.812297    2.004522
    134          1           0       15.972361   -5.235707    3.813935
    135          1           0       16.952572   -4.226431    4.816654
    136          1           0       15.188671    1.851705    5.512356
    137          1           0       14.760739    3.527560    5.425271
    138          1           0       16.482734    3.119196    5.611617
    139          1           0       15.587284    5.554277    4.995589
    140          1           0       16.730550    6.866519    4.349300
    141          1           0       17.288814    5.217579    4.752742
    142          1           0       15.983137    5.258792   -2.246132
    143          1           0       14.560693    3.471979   -4.154194
    144          1           0       13.991204    6.314398   -2.462948
    145          1           0       13.250302    4.934879   -1.577489
    146          1           0       13.290370    4.912335   -3.266726
    147          1           0       16.448803    5.018025   -4.799617
    148          1           0       16.572052    3.390336   -5.440238
    149          1           0       18.013113    4.793038   -3.310008
    150          1           0       18.710711    3.764177   -4.613710
    151          1           0       17.941829    3.037074   -3.132348
    152          1           0       16.371881   -2.412126   -5.537636
    153          1           0       15.767679   -0.734822   -5.732038
    154          1           0       14.609403   -2.034897   -5.241680
    155          1           0       14.927416   -4.568561   -0.793759
    156          1           0       17.286438   -8.053356    0.141161
    157          1           0       17.525004   -6.993130    1.671830
    158          1           0       18.531188   -6.921245    0.203953
 ---------------------------------------------------------------------

 SCF Done:  E(RCAM-B3LYP) =  -4069.81178219     A.U. after   19 cycles

 Excitation energies and oscillator strengths:

 Excited State   1:      Singlet-A      1.6753 eV  740.06 nm  f=0.2130  <S**2>=0.000
     310 -> 316        0.16862
     311 -> 314        0.16228
     312 -> 313        0.66659
     310 <- 316        0.10166
 This state for optimization and/or second-order correction.
 Total Energy, E(TD-HF/TD-DFT) =  -4069.75021509
 Copying the excited state density for this state as the 1-particle RhoCI density.

 Excited State   2:      Singlet-A      1.6802 eV  737.93 nm  f=0.5643  <S**2>=0.000
     309 -> 315        0.17063
     311 -> 314        0.66622
     312 -> 313       -0.16222
     309 <- 315        0.10216

 Excited State   3:      Singlet-A      2.1861 eV  567.14 nm  f=0.0950  <S**2>=0.000
     310 -> 313        0.64209
     312 -> 316       -0.27295

 Excited State   4:      Singlet-A      2.1926 eV  565.47 nm  f=0.1051  <S**2>=0.000
     309 -> 314        0.64031
     311 -> 315       -0.27815

 Excited State   5:      Singlet-A      3.0659 eV  404.40 nm  f=0.0000  <S**2>=0.000
     311 -> 313        0.70711

 The electronic state is 1-A.
 Alpha  occ. eigenvalues --  -46.87796 -46.87661 -19.26351 -19.26283 -19.19163
 Alpha  occ. eigenvalues --  -19.19019 -19.18813 -19.18712 -19.18170 -19.18053
 Alpha  occ. eigenvalues --  -14.42497 -14.42449 -14.41449 -14.41359 -14.39402
 Alpha  occ. eigenvalues --  -14.39352 -14.38600 -14.38587 -10.39092 -10.39079
 Alpha  occ. eigenvalues --  -10.35446 -10.35389 -10.34390 -10.34230 -10.31758
 Alpha  occ. eigenvalues --  -10.31678 -10.31404 -10.31309 -10.31022 -10.30907
 Alpha  occ. eigenvalues --  -10.30570 -10.30507 -10.30398 -10.30361 -10.30207
 Alpha  occ. eigenvalues --  -10.30141 -10.29921 -10.29896 -10.29630 -10.29436
 Alpha  occ. eigenvalues --  -10.29401 -10.29254 -10.28746 -10.28718 -10.28653
 Alpha  occ. eigenvalues --  -10.28534 -10.28404 -10.28364 -10.28138 -10.28114
 Alpha  occ. eigenvalues --  -10.28001 -10.27793 -10.27726 -10.27668 -10.27583
 Alpha  occ. eigenvalues --  -10.27519 -10.27503 -10.27484 -10.27477 -10.27466
 Alpha  occ. eigenvalues --  -10.27461 -10.27451 -10.27403 -10.27377 -10.27158
 Alpha  occ. eigenvalues --  -10.27051 -10.26701 -10.26691 -10.26410 -10.26405
 Alpha  occ. eigenvalues --  -10.26232 -10.26188 -10.26141 -10.26021 -10.26020
 Alpha  occ. eigenvalues --  -10.25935 -10.25855 -10.25846 -10.25437 -10.25397
 Alpha  occ. eigenvalues --  -10.24873 -10.24833 -10.24787 -10.24734 -10.24692
 Alpha  occ. eigenvalues --  -10.24690  -3.16539  -3.16410  -1.91421  -1.91293
 Alpha  occ. eigenvalues --   -1.91007  -1.90881  -1.90849  -1.90718  -1.16645
 Alpha  occ. eigenvalues --   -1.16632  -1.08660  -1.08628  -1.07214  -1.06964
 Alpha  occ. eigenvalues --   -1.06947  -1.06642  -1.04580  -1.04495  -1.03760
 Alpha  occ. eigenvalues --   -1.03663  -1.03233  -1.03039  -1.02411  -1.02111
 Alpha  occ. eigenvalues --   -0.91987  -0.91972  -0.89521  -0.89495  -0.89186
 Alpha  occ. eigenvalues --   -0.89150  -0.88288  -0.88221  -0.87871  -0.87795
 Alpha  occ. eigenvalues --   -0.87684  -0.87672  -0.87272  -0.87118  -0.84999
 Alpha  occ. eigenvalues --   -0.84980  -0.83938  -0.83877  -0.82965  -0.82929
 Alpha  occ. eigenvalues --   -0.82651  -0.82647  -0.81597  -0.81585  -0.80595
 Alpha  occ. eigenvalues --   -0.80443  -0.78796  -0.78635  -0.77218  -0.77144
 Alpha  occ. eigenvalues --   -0.76933  -0.76898  -0.75922  -0.75838  -0.74899
 Alpha  occ. eigenvalues --   -0.74803  -0.72774  -0.72700  -0.71672  -0.71581
 Alpha  occ. eigenvalues --   -0.69910  -0.69759  -0.68871  -0.68826  -0.67640
 Alpha  occ. eigenvalues --   -0.67602  -0.67217  -0.67198  -0.65285  -0.65271
 Alpha  occ. eigenvalues --   -0.64853  -0.64771  -0.64654  -0.64620  -0.64270
 Alpha  occ. eigenvalues --   -0.64205  -0.62297  -0.62280  -0.60441  -0.60339
 Alpha  occ. eigenvalues --   -0.59803  -0.59796  -0.58993  -0.58987  -0.58503
 Alpha  occ. eigenvalues --   -0.58426  -0.57584  -0.57556  -0.57309  -0.57237
 Alpha  occ. eigenvalues --   -0.56309  -0.56204  -0.55977  -0.55887  -0.55519
 Alpha  occ. eigenvalues --   -0.55451  -0.55340  -0.55249  -0.54524  -0.54489
 Alpha  occ. eigenvalues --   -0.53911  -0.53893  -0.53298  -0.53228  -0.53220
 Alpha  occ. eigenvalues --   -0.53141  -0.52914  -0.52902  -0.52753  -0.52665
 Alpha  occ. eigenvalues --   -0.52441  -0.52403  -0.51916  -0.51888  -0.51657
 Alpha  occ. eigenvalues --   -0.51614  -0.51202  -0.51196  -0.50569  -0.50472
 Alpha  occ. eigenvalues --   -0.50032  -0.49978  -0.49916  -0.49867  -0.49513
 Alpha  occ. eigenvalues --   -0.49486  -0.49214  -0.49202  -0.49104  -0.49095
 Alpha  occ. eigenvalues --   -0.48592  -0.48559  -0.48462  -0.48444  -0.48377
 Alpha  occ. eigenvalues --   -0.48337  -0.47694  -0.47594  -0.47296  -0.47117
 Alpha  occ. eigenvalues --   -0.46797  -0.46709  -0.46553  -0.46553  -0.46359
 Alpha  occ. eigenvalues --   -0.46271  -0.46163  -0.46087  -0.45824  -0.45822
 Alpha  occ. eigenvalues --   -0.45209  -0.45202  -0.44578  -0.44515  -0.44505
 Alpha  occ. eigenvalues --   -0.44475  -0.44145  -0.44127  -0.44086  -0.44078
 Alpha  occ. eigenvalues --   -0.44018  -0.43938  -0.43554  -0.43495  -0.43386
 Alpha  occ. eigenvalues --   -0.43385  -0.43027  -0.42931  -0.42902  -0.42699
 Alpha  occ. eigenvalues --   -0.42656  -0.42554  -0.42010  -0.41965  -0.41704
 Alpha  occ. eigenvalues --   -0.41670  -0.41532  -0.41458  -0.41140  -0.40989
 Alpha  occ. eigenvalues --   -0.40868  -0.40821  -0.40721  -0.40697  -0.40572
 Alpha  occ. eigenvalues --   -0.40494  -0.40231  -0.40225  -0.39444  -0.39427
 Alpha  occ. eigenvalues --   -0.38470  -0.38351  -0.37746  -0.37653  -0.37321
 Alpha  occ. eigenvalues --   -0.37266  -0.37262  -0.37199  -0.36773  -0.36713
 Alpha  occ. eigenvalues --   -0.36218  -0.36192  -0.34286  -0.34254  -0.33863
 Alpha  occ. eigenvalues --   -0.33770  -0.33186  -0.33176  -0.31342  -0.31271
 Alpha  occ. eigenvalues --   -0.31035  -0.30973  -0.30029  -0.29957  -0.29448
 Alpha  occ. eigenvalues --   -0.29327  -0.29322  -0.29212  -0.24080  -0.24036
 Alpha  occ. eigenvalues --   -0.21127  -0.21117
 Alpha virt. eigenvalues --   -0.08792  -0.08774  -0.01749  -0.01684  -0.00056
 Alpha virt. eigenvalues --   -0.00027   0.02200   0.02206   0.03123   0.03225
 Alpha virt. eigenvalues --    0.04719   0.04731   0.05099   0.05164   0.06179

 Mulliken charges:
               1
     1  Mg   0.838715
     2  C   -0.002962
     3  C   -0.094087
     4  C   -0.045888
     5  C   -0.063974
     6  N   -0.256773
     7  C   -0.052461
     8  C   -0.014020
     9  C   -0.087006
    10  C    0.046326
    11  C    0.104805
    12  C    0.053469
    13  C   -0.071831
    14  H    0.036157
    15  N   -0.433139
    16  C    0.168441
    17  C   -0.177129
    18  C   -0.003988
    19  C    0.148721
    20  C    0.110166
    21  C    0.012292
    22  O   -0.249627
    23  C    0.062474
    24  N   -0.341156
    25  C    0.041269
    26  C   -0.028198
    27  C   -0.023961
    28  C    0.074844
    29  C    0.076171
    30  C    0.035141
    31  C   -0.004500
    32  N   -0.310449
    33  C    0.080387
    34  C   -0.169754
    35  C    0.008345
    36  C    0.082960
    37  C    0.127321
    38  C    0.046103
    39  O   -0.188482
    40  C   -0.005318
    41  C    0.212868
    42  O   -0.257113
    43  O   -0.304794
    44  C    0.157698
    45  H   -0.017565
    46  H   -0.016836
    47  H   -0.041540
    48  H    0.000939
    49  H   -0.003994
    50  H    0.025468
    51  H    0.016445
    52  H    0.016688
    53  H    0.011225
    54  H    0.044110
    55  H    0.017870
    56  H    0.017988
    57  H    0.005902
    58  H    0.026853
    59  H    0.039614
    60  H    0.037364
    61  H    0.035682
    62  H    0.031537
    63  H    0.016548
    64  H    0.009442
    65  H    0.023207
    66  H    0.012568
    67  H    0.004739
    68  H    0.006337
    69  H    0.004687
    70  H    0.008788
    71  H    0.018073
    72  H    0.029013
    73  H    0.047524
    74  H    0.009068
    75  H    0.045998
    76  H    0.035154
    77  H    0.042936
    78  H    0.046430
    79  H    0.053675
    80  Mg   0.837883
    81  C   -0.016829
    82  C   -0.087768
    83  C   -0.045497
    84  C   -0.064885
    85  N   -0.254581
    86  C   -0.049853
    87  C   -0.015096
    88  C   -0.090507
    89  C    0.045757
    90  C    0.114359
    91  C    0.062530
    92  C   -0.077907
    93  H    0.034886
    94  N   -0.423506
    95  C    0.162919
    96  C   -0.174567
    97  C   -0.007771
    98  C    0.152139
    99  C    0.099335
   100  C    0.015597
   101  O   -0.253155
   102  C    0.061191
   103  N   -0.350047
   104  C    0.037533
   105  C   -0.019840
   106  C   -0.034823
   107  C    0.088920
   108  C    0.073633
   109  C    0.034763
   110  C   -0.007690
   111  N   -0.324106
   112  C    0.078414
   113  C   -0.163160
   114  C    0.002223
   115  C    0.096189
   116  C    0.131495
   117  C    0.042363
   118  O   -0.187925
   119  C    0.000913
   120  C    0.211254
   121  O   -0.251028
   122  O   -0.305624
   123  C    0.152043
   124  H   -0.019581
   125  H   -0.015535
   126  H   -0.040496
   127  H   -0.000647
   128  H   -0.004290
   129  H    0.022457
   130  H    0.014462
   131  H    0.016355
   132  H    0.013924
   133  H    0.037658
   134  H    0.020804
   135  H    0.019624
   136  H    0.008805
   137  H    0.026245
   138  H    0.039827
   139  H    0.038318
   140  H    0.036440
   141  H    0.033892
   142  H    0.014407
   143  H    0.012405
   144  H    0.025171
   145  H    0.011699
   146  H    0.005675
   147  H    0.006259
   148  H    0.003610
   149  H    0.010951
   150  H    0.017907
   151  H    0.030112
   152  H    0.045969
   153  H    0.008484
   154  H    0.046915
   155  H    0.035030
   156  H    0.043891
   157  H    0.049515
   158  H    0.053565
 Sum of Mulliken charges =  -0.00000

 Dipole moment (field-independent basis, Debye):
    X=             -3.9696    Y=             -0.7187    Z=              0.0351  Tot=              4.0343
 Quadrupole moment (field-independent basis, Debye-Ang):
   XX=           -519.0623   YY=           -551.3063   ZZ=           -447.3569
   XY=             40.6793   XZ=            127.0686   YZ=            -47.9575

 Normal termination of Gaussian 16 at Sat Sep  4 17:52:33 2021.
