 Gaussian 16, Revision A.03,
 Gaussian 16:  ES64L-G16RevA.03 25-Dec-2016

 -----------------------------------
 #p cam-b3lyp/Def2SVP td=(nstates=5)
 -----------------------------------

 --------------------------------
 TDDFT excited states in gaussian
 --------------------------------
 Symbolic Z-matrix:
 Charge =  0 Multiplicity = 1

                         Standard orientation:
 ---------------------------------------------------------------------
 Center     Atomic      Atomic             Coordinates (Angstroms)
 Number     Number       Type             X           Y           Z
 ---------------------------------------------------------------------
      1         12           0        3.892249   -0.333162   -0.636943
      2          6           0        3.852013    3.147545    0.196887
      3          6           0        5.299014   -0.896775    2.420248
      4          6           0        4.355751   -3.341788   -1.525741
      5          6           0        3.558152    0.613659   -3.974243
      6          7           0        4.453815    1.033450    1.011590
      7          6           0        4.330827    2.338937    1.230103
      8          6           0        4.687789    2.757704    2.687699
      9          6           0        5.640720    1.539069    3.073508
     10          6           0        5.076104    0.483855    2.138813
     11          6           0        7.105501    1.775400    2.719862
     12          6           0        3.427591    2.815444    3.615220
     13          6           0        3.635408    3.524865    4.956447
     14          1           0        2.541427    4.307338    5.511686
     15          7           0        4.246059   -1.948424    0.444074
     16          6           0        4.810137   -1.991540    1.675027
     17          6           0        4.856461   -3.420595    2.052302
     18          6           0        4.448089   -4.218651    0.863002
     19          6           0        4.357728   -3.189672   -0.141196
     20          6           0        5.208900   -3.897446    3.427857
     21          6           0        4.191761   -5.678624    0.660745
     22          8           0        4.073196   -6.193488   -0.503485
     23          6           0        4.170889   -6.516147    1.873659
     24          7           0        4.171195   -1.237263   -2.497702
     25          6           0        4.290490   -2.564811   -2.608927
     26          6           0        4.196037   -3.003500   -4.040210
     27          6           0        3.741907   -1.715874   -4.868181
     28          6           0        3.733400   -0.683810   -3.713606
     29          6           0        5.482735   -3.575441   -4.651194
     30          6           0        2.470628   -1.854624   -5.742832
     31          6           0        1.256358   -2.031607   -4.858907
     32          7           0        3.554119    1.521353   -1.712807
     33          6           0        3.471708    1.686642   -3.102973
     34          6           0        3.344616    3.133100   -3.359242
     35          6           0        3.378813    3.713870   -2.092995
     36          6           0        3.544792    2.696948   -1.109830
     37          6           0        3.275978    3.749718   -4.639673
     38          6           0        3.338483    4.959060   -1.343507
     39          8           0        3.119981    6.137021   -1.630140
     40          6           0        3.765437    4.653092    0.159796
     41          6           0        2.764443    5.322281    1.061742
     42          8           0        1.578751    4.934963    1.100275
     43          8           0        3.406149    6.146979    1.903543
     44          6           0        2.473366    6.820804    2.845896
     45          1           0        5.954862   -1.167085    3.250150
     46          1           0        4.402212   -4.376905   -1.870431
     47          1           0        3.364589    0.976604   -4.985310
     48          1           0        5.233790    3.697692    2.769730
     49          1           0        5.511185    1.234050    4.111731
     50          1           0        7.233251    2.690991    2.142545
     51          1           0        7.406164    0.908793    2.130720
     52          1           0        7.727572    1.759516    3.615156
     53          1           0        3.196398    1.811215    3.970374
     54          1           0        2.585021    3.270534    3.093401
     55          1           0        4.559972    4.102839    4.962582
     56          1           0        3.785180    2.766080    5.724570
     57          1           0        5.621821   -3.094086    4.036670
     58          1           0        6.030351   -4.605273    3.318735
     59          1           0        4.367577   -4.383937    3.921653
     60          1           0        5.129496   -6.431524    2.385968
     61          1           0        3.885593   -7.514756    1.544664
     62          1           0        3.420456   -6.123966    2.560676
     63          1           0        3.449233   -3.787229   -4.160536
     64          1           0        4.511092   -1.386958   -5.567355
     65          1           0        5.367598   -4.583645   -5.049909
     66          1           0        6.261066   -3.542718   -3.889340
     67          1           0        5.924823   -2.966020   -5.438964
     68          1           0        2.539526   -2.739828   -6.374190
     69          1           0        2.299519   -0.996297   -6.392637
     70          1           0        1.262636   -3.100354   -4.647787
     71          1           0        0.350838   -1.744783   -5.394609
     72          1           0        1.376447   -1.511031   -3.908609
     73          1           0        2.495264    4.507261   -4.571961
     74          1           0        3.054130    3.020797   -5.418814
     75          1           0        4.283994    4.155787   -4.722542
     76          1           0        4.768469    5.058355    0.289456
     77          1           0        2.627683    7.894434    2.737555
     78          1           0        2.652219    6.380374    3.826935
     79          1           0        1.411104    6.740975    2.612303
     80         12           0       -3.921802   -1.160431    0.536782
     81          6           0       -4.268249    2.138715   -0.832407
     82          6           0       -2.760135    0.306913    3.388456
     83          6           0       -3.182094   -4.054612    1.606331
     84          6           0       -4.008839   -2.374345   -2.728881
     85          7           0       -3.601904    0.958075    1.086216
     86          6           0       -3.827142    2.127878    0.507276
     87          6           0       -3.641730    3.353949    1.441039
     88          6           0       -2.639511    2.694056    2.508254
     89          6           0       -3.043618    1.229691    2.350084
     90          6           0       -1.175739    2.829861    2.123189
     91          6           0       -4.986300    3.800410    2.115443
     92          6           0       -4.941362    5.171473    2.793616
     93          1           0       -6.136751    6.009093    2.749973
     94          7           0       -3.561995   -1.794253    2.382690
     95          6           0       -3.115948   -1.059296    3.422957
     96          6           0       -2.994649   -1.993486    4.552892
     97          6           0       -3.247938   -3.371566    4.051445
     98          6           0       -3.321625   -3.123825    2.625511
     99          6           0       -2.745376   -1.538644    5.961586
    100          6           0       -3.386533   -4.695475    4.740104
    101          8           0       -3.367365   -5.798854    4.088168
    102          6           0       -3.451513   -4.666963    6.208588
    103          7           0       -3.423943   -2.934663   -0.425797
    104          6           0       -3.199741   -4.061126    0.273310
    105          6           0       -3.132114   -5.263900   -0.637272
    106          6           0       -3.600203   -4.741543   -2.074494
    107          6           0       -3.779836   -3.241729   -1.752475
    108          6           0       -1.761544   -5.929474   -0.759543
    109          6           0       -4.776496   -5.498619   -2.749655
    110          6           0       -6.051777   -5.270999   -1.970404
    111          7           0       -4.287701   -0.327554   -1.422940
    112          6           0       -4.249912   -1.008155   -2.659647
    113          6           0       -4.450523    0.001979   -3.718798
    114          6           0       -4.569069    1.213088   -3.020491
    115          6           0       -4.430513    0.977382   -1.625955
    116          6           0       -4.454868   -0.251011   -5.119547
    117          6           0       -4.769286    2.638815   -3.146687
    118          8           0       -5.032047    3.400165   -4.076767
    119          6           0       -4.457176    3.319024   -1.744444
    120          6           0       -5.576646    4.273822   -1.431924
    121          8           0       -6.728509    3.852002   -1.227218
    122          8           0       -5.063331    5.498072   -1.212662
    123          6           0       -6.134019    6.477842   -0.887848
    124          1           0       -2.172537    0.649330    4.240729
    125          1           0       -3.036023   -5.088225    1.928509
    126          1           0       -4.146510   -2.686228   -3.766401
    127          1           0       -3.175190    4.213506    0.974911
    128          1           0       -2.851268    3.041309    3.516185
    129          1           0       -1.056341    3.245290    1.133590
    130          1           0       -0.766406    1.829001    2.165272
    131          1           0       -0.638585    3.407278    2.881081
    132          1           0       -5.176818    3.164566    2.989603
    133          1           0       -5.793979    3.772443    1.410119
    134          1           0       -4.056690    5.748612    2.498283
    135          1           0       -4.817606    5.022776    3.869067
    136          1           0       -2.437422   -0.486323    5.995968
    137          1           0       -1.871308   -2.089480    6.325512
    138          1           0       -3.590067   -1.738328    6.624375
    139          1           0       -2.553668   -4.195197    6.600715
    140          1           0       -3.639633   -5.698419    6.512867
    141          1           0       -4.295462   -4.036101    6.509257
    142          1           0       -3.812864   -6.038470   -0.306045
    143          1           0       -2.790655   -4.808968   -2.816053
    144          1           0       -1.771584   -7.002222   -0.489008
    145          1           0       -1.061952   -5.386990   -0.137613
    146          1           0       -1.299748   -5.858441   -1.742856
    147          1           0       -4.591846   -6.575580   -2.734991
    148          1           0       -4.936713   -5.213408   -3.784053
    149          1           0       -5.986614   -6.012405   -1.168444
    150          1           0       -6.921838   -5.446040   -2.600010
    151          1           0       -6.055776   -4.279402   -1.503087
    152          1           0       -5.279744    0.312365   -5.535118
    153          1           0       -4.551611   -1.313825   -5.331312
    154          1           0       -3.467791    0.133280   -5.390209
    155          1           0       -3.497228    3.828961   -1.834133
    156          1           0       -6.039964    7.302178   -1.601509
    157          1           0       -6.001429    6.721161    0.183111
    158          1           0       -7.160430    6.171571   -1.052570
 ---------------------------------------------------------------------

 SCF Done:  E(RCAM-B3LYP) =  -4069.81373084     A.U. after   19 cycles

 Excitation energies and oscillator strengths:

 Excited State   1:      Singlet-A      1.6427 eV  754.76 nm  f=0.0577  <S**2>=0.000
     309 -> 315       -0.10988
     310 -> 316        0.12297
     311 -> 313       -0.45407
     312 -> 314        0.51677
 This state for optimization and/or second-order correction.
 Total Energy, E(TD-HF/TD-DFT) =  -4069.75336313
 Copying the excited state density for this state as the 1-particle RhoCI density.

 Excited State   2:      Singlet-A      1.7011 eV  728.85 nm  f=0.6147  <S**2>=0.000
     309 -> 315        0.13666
     310 -> 316        0.11714
     311 -> 313        0.51382
     312 -> 314        0.45147

 Excited State   3:      Singlet-A      2.1769 eV  569.55 nm  f=0.0388  <S**2>=0.000
     309 -> 313       -0.27672
     310 -> 314        0.58397
     311 -> 315        0.11241
     312 -> 316       -0.23762

 Excited State   4:      Singlet-A      2.1983 eV  564.00 nm  f=0.1366  <S**2>=0.000
     309 -> 313        0.57423
     310 -> 314        0.27037
     311 -> 315       -0.25480
     312 -> 316       -0.12092

 Excited State   5:      Singlet-A      2.2038 eV  562.59 nm  f=0.0013  <S**2>=0.000
     312 -> 313        0.70334

 The electronic state is 1-A.
 Alpha  occ. eigenvalues --  -46.87963 -46.87320 -19.26788 -19.25894 -19.19639
 Alpha  occ. eigenvalues --  -19.18908 -19.18742 -19.18525 -19.18376 -19.17699
 Alpha  occ. eigenvalues --  -14.42637 -14.42093 -14.41615 -14.41024 -14.39560
 Alpha  occ. eigenvalues --  -14.39031 -14.38754 -14.38264 -10.39615 -10.38662
 Alpha  occ. eigenvalues --  -10.35535 -10.35212 -10.34611 -10.33860 -10.32180
 Alpha  occ. eigenvalues --  -10.31610 -10.31333 -10.31124 -10.30864 -10.30745
 Alpha  occ. eigenvalues --  -10.30662 -10.30605 -10.30346 -10.30091 -10.30080
 Alpha  occ. eigenvalues --  -10.30025 -10.29841 -10.29780 -10.29571 -10.29395
 Alpha  occ. eigenvalues --  -10.29134 -10.29112 -10.29060 -10.29021 -10.28548
 Alpha  occ. eigenvalues --  -10.28376 -10.28214 -10.28066 -10.28055 -10.27943
 Alpha  occ. eigenvalues --  -10.27903 -10.27727 -10.27690 -10.27627 -10.27611
 Alpha  occ. eigenvalues --  -10.27599 -10.27587 -10.27458 -10.27372 -10.27308
 Alpha  occ. eigenvalues --  -10.27284 -10.27240 -10.27193 -10.27154 -10.27101
 Alpha  occ. eigenvalues --  -10.27069 -10.26591 -10.26454 -10.26420 -10.26318
 Alpha  occ. eigenvalues --  -10.26300 -10.26204 -10.26166 -10.25909 -10.25905
 Alpha  occ. eigenvalues --  -10.25648 -10.25623 -10.25554 -10.25036 -10.24995
 Alpha  occ. eigenvalues --  -10.24953 -10.24820 -10.24684 -10.24553 -10.24516
 Alpha  occ. eigenvalues --  -10.24367  -3.16705  -3.16070  -1.91587  -1.91174
 Alpha  occ. eigenvalues --   -1.91015  -1.90953  -1.90540  -1.90379  -1.17142
 Alpha  occ. eigenvalues --   -1.16197  -1.08856  -1.08295  -1.07306  -1.07194
 Alpha  occ. eigenvalues --   -1.06786  -1.06525  -1.04776  -1.04092  -1.03928
 Alpha  occ. eigenvalues --   -1.03394  -1.03309  -1.02715  -1.02577  -1.01773
 Alpha  occ. eigenvalues --   -0.92191  -0.91600  -0.89677  -0.89466  -0.89189
 Alpha  occ. eigenvalues --   -0.88508  -0.88440  -0.88008  -0.87908  -0.87872
 Alpha  occ. eigenvalues --   -0.87501  -0.87394  -0.87298  -0.86894  -0.85245
 Alpha  occ. eigenvalues --   -0.84497  -0.84102  -0.83573  -0.83081  -0.82874
 Alpha  occ. eigenvalues --   -0.82734  -0.82184  -0.81885  -0.81206  -0.80815
 Alpha  occ. eigenvalues --   -0.80079  -0.78932  -0.78364  -0.77418  -0.77205
 Alpha  occ. eigenvalues --   -0.76784  -0.76418  -0.76175  -0.75273  -0.75070
 Alpha  occ. eigenvalues --   -0.74430  -0.72935  -0.72357  -0.71869  -0.71114
 Alpha  occ. eigenvalues --   -0.70049  -0.69461  -0.69113  -0.68353  -0.67837
 Alpha  occ. eigenvalues --   -0.67477  -0.67281  -0.66810  -0.65556  -0.65090
 Alpha  occ. eigenvalues --   -0.64851  -0.64785  -0.64433  -0.64402  -0.64226
 Alpha  occ. eigenvalues --   -0.63879  -0.62625  -0.61890  -0.60573  -0.60077
 Alpha  occ. eigenvalues --   -0.60039  -0.59276  -0.59183  -0.58712  -0.58628
 Alpha  occ. eigenvalues --   -0.58067  -0.57901  -0.57484  -0.57161  -0.56917
 Alpha  occ. eigenvalues --   -0.56524  -0.56316  -0.55886  -0.55693  -0.55572
 Alpha  occ. eigenvalues --   -0.55480  -0.55125  -0.54910  -0.54809  -0.54183
 Alpha  occ. eigenvalues --   -0.54130  -0.53487  -0.53438  -0.53347  -0.53189
 Alpha  occ. eigenvalues --   -0.52927  -0.52904  -0.52770  -0.52586  -0.52553
 Alpha  occ. eigenvalues --   -0.52259  -0.52132  -0.52043  -0.51861  -0.51625
 Alpha  occ. eigenvalues --   -0.51409  -0.51209  -0.50831  -0.50665  -0.50274
 Alpha  occ. eigenvalues --   -0.50191  -0.50074  -0.49729  -0.49628  -0.49547
 Alpha  occ. eigenvalues --   -0.49435  -0.49331  -0.49065  -0.48873  -0.48825
 Alpha  occ. eigenvalues --   -0.48660  -0.48580  -0.48440  -0.48116  -0.48064
 Alpha  occ. eigenvalues --   -0.48009  -0.47899  -0.47475  -0.47180  -0.46993
 Alpha  occ. eigenvalues --   -0.46824  -0.46811  -0.46551  -0.46365  -0.46310
 Alpha  occ. eigenvalues --   -0.46068  -0.46026  -0.45946  -0.45748  -0.45411
 Alpha  occ. eigenvalues --   -0.45361  -0.44855  -0.44807  -0.44697  -0.44345
 Alpha  occ. eigenvalues --   -0.44298  -0.44198  -0.44173  -0.44094  -0.43795
 Alpha  occ. eigenvalues --   -0.43775  -0.43614  -0.43591  -0.43528  -0.43231
 Alpha  occ. eigenvalues --   -0.43158  -0.43098  -0.42882  -0.42818  -0.42522
 Alpha  occ. eigenvalues --   -0.42500  -0.42263  -0.42218  -0.41916  -0.41787
 Alpha  occ. eigenvalues --   -0.41614  -0.41340  -0.41271  -0.41114  -0.41012
 Alpha  occ. eigenvalues --   -0.40983  -0.40737  -0.40554  -0.40540  -0.40432
 Alpha  occ. eigenvalues --   -0.40265  -0.40012  -0.39737  -0.39585  -0.39149
 Alpha  occ. eigenvalues --   -0.38651  -0.38091  -0.37992  -0.37510  -0.37490
 Alpha  occ. eigenvalues --   -0.37233  -0.37140  -0.36906  -0.36736  -0.36446
 Alpha  occ. eigenvalues --   -0.36371  -0.35830  -0.34478  -0.34277  -0.33888
 Alpha  occ. eigenvalues --   -0.33460  -0.33374  -0.32836  -0.31447  -0.31222
 Alpha  occ. eigenvalues --   -0.31079  -0.30598  -0.30245  -0.29592  -0.29591
 Alpha  occ. eigenvalues --   -0.29476  -0.29056  -0.28900  -0.24263  -0.23684
 Alpha  occ. eigenvalues --   -0.21293  -0.20767
 Alpha virt. eigenvalues --   -0.08934  -0.08474  -0.01913  -0.01355  -0.00208
 Alpha virt. eigenvalues --    0.00277   0.02018   0.02382   0.02634   0.03660
 Alpha virt. eigenvalues --    0.04408   0.04542   0.05181   0.05590   0.05736

 Mulliken charges:
               1
     1  Mg   0.838997
     2  C   -0.004564
     3  C   -0.094761
     4  C   -0.045458
     5  C   -0.062953
     6  N   -0.256698
     7  C   -0.053453
     8  C   -0.013872
     9  C   -0.086753
    10  C    0.046022
    11  C    0.104733
    12  C    0.050520
    13  C   -0.070821
    14  H    0.031946
    15  N   -0.433368
    16  C    0.168916
    17  C   -0.176633
    18  C   -0.002969
    19  C    0.148940
    20  C    0.110015
    21  C    0.013128
    22  O   -0.249717
    23  C    0.061864
    24  N   -0.340907
    25  C    0.041427
    26  C   -0.028246
    27  C   -0.023924
    28  C    0.074565
    29  C    0.076067
    30  C    0.034955
    31  C   -0.004358
    32  N   -0.310613
    33  C    0.080349
    34  C   -0.168584
    35  C    0.008239
    36  C    0.082638
    37  C    0.127162
    38  C    0.045347
    39  O   -0.188074
    40  C   -0.006095
    41  C    0.214915
    42  O   -0.258280
    43  O   -0.303300
    44  C    0.157272
    45  H   -0.017553
    46  H   -0.016581
    47  H   -0.040544
    48  H    0.001014
    49  H   -0.004576
    50  H    0.025699
    51  H    0.017207
    52  H    0.016899
    53  H    0.010660
    54  H    0.044804
    55  H    0.019659
    56  H    0.018404
    57  H    0.005214
    58  H    0.027297
    59  H    0.040549
    60  H    0.036920
    61  H    0.036607
    62  H    0.033814
    63  H    0.016140
    64  H    0.009951
    65  H    0.023378
    66  H    0.012704
    67  H    0.005189
    68  H    0.006211
    69  H    0.005713
    70  H    0.007028
    71  H    0.017675
    72  H    0.030733
    73  H    0.049062
    74  H    0.010160
    75  H    0.046042
    76  H    0.036014
    77  H    0.044900
    78  H    0.046419
    79  H    0.051605
    80  Mg   0.836141
    81  C   -0.016692
    82  C   -0.088261
    83  C   -0.046940
    84  C   -0.065949
    85  N   -0.255591
    86  C   -0.046825
    87  C   -0.015371
    88  C   -0.093263
    89  C    0.047240
    90  C    0.119788
    91  C    0.062461
    92  C   -0.076908
    93  H    0.032160
    94  N   -0.423422
    95  C    0.163133
    96  C   -0.176026
    97  C   -0.009168
    98  C    0.152248
    99  C    0.100274
   100  C    0.014179
   101  O   -0.254206
   102  C    0.061626
   103  N   -0.350570
   104  C    0.037821
   105  C   -0.019894
   106  C   -0.034403
   107  C    0.089222
   108  C    0.073616
   109  C    0.034893
   110  C   -0.007492
   111  N   -0.324276
   112  C    0.078988
   113  C   -0.164107
   114  C    0.002800
   115  C    0.095962
   116  C    0.131184
   117  C    0.042107
   118  O   -0.188178
   119  C    0.001010
   120  C    0.210645
   121  O   -0.252427
   122  O   -0.303602
   123  C    0.152734
   124  H   -0.020783
   125  H   -0.016863
   126  H   -0.041918
   127  H    0.005766
   128  H   -0.008772
   129  H    0.037540
   130  H    0.006348
   131  H    0.017025
   132  H    0.012126
   133  H    0.036352
   134  H    0.022971
   135  H    0.017725
   136  H    0.008306
   137  H    0.023063
   138  H    0.038919
   139  H    0.036459
   140  H    0.035321
   141  H    0.034058
   142  H    0.013419
   143  H    0.011918
   144  H    0.024635
   145  H    0.012243
   146  H    0.007377
   147  H    0.005883
   148  H    0.002749
   149  H    0.010631
   150  H    0.017142
   151  H    0.030460
   152  H    0.045715
   153  H    0.007625
   154  H    0.045421
   155  H    0.041051
   156  H    0.043745
   157  H    0.049446
   158  H    0.052208
 Sum of Mulliken charges =  -0.00000

 Dipole moment (field-independent basis, Debye):
    X=              5.7638    Y=             -1.3064    Z=              6.2785  Tot=              8.6225
 Quadrupole moment (field-independent basis, Debye-Ang):
   XX=           -518.5901   YY=           -539.3476   ZZ=           -461.0118
   XY=              2.3182   XZ=              1.9143   YZ=             40.0833

 Normal termination of Gaussian 16 at Thu Sep  9 08:07:24 2021.
