 Gaussian 16, Revision A.03,
 Gaussian 16:  ES64L-G16RevA.03 25-Dec-2016

 -----------------------------------
 #p cam-b3lyp/Def2SVP td=(nstates=5)
 -----------------------------------

 --------------------------------
 TDDFT excited states in gaussian
 --------------------------------
 Symbolic Z-matrix:
 Charge =  0 Multiplicity = 1

                         Standard orientation:
 ---------------------------------------------------------------------
 Center     Atomic      Atomic             Coordinates (Angstroms)
 Number     Number       Type             X           Y           Z
 ---------------------------------------------------------------------
      1         12           0       15.911574   -0.637435    0.480998
      2          6           0       16.185235    2.028235   -1.892086
      3          6           0       16.712101    1.632575    2.899525
      4          6           0       16.121889   -3.052546    2.525412
      5          6           0       16.255575   -2.851579   -2.188252
      6          7           0       16.366566    1.527163    0.390753
      7          6           0       16.379174    2.443073   -0.572638
      8          6           0       16.542911    3.897952   -0.039825
      9          6           0       17.253846    3.578167    1.350969
     10          6           0       16.718850    2.175649    1.580413
     11          6           0       18.774915    3.514420    1.257229
     12          6           0       15.165637    4.612176    0.171673
     13          6           0       15.240221    6.128243    0.374981
     14          1           0       14.180354    6.961245   -0.172866
     15          7           0       15.871130   -0.651300    2.456098
     16          6           0       16.214927    0.367395    3.280324
     17          6           0       16.013488   -0.135786    4.656156
     18          6           0       15.706361   -1.590446    4.568231
     19          6           0       15.916014   -1.831665    3.163512
     20          6           0       16.070491    0.740799    5.869457
     21          6           0       15.300175   -2.604747    5.590159
     22          8           0       15.308945   -3.859329    5.344146
     23          6           0       14.972208   -2.090304    6.932108
     24          7           0       16.373184   -2.659780    0.247171
     25          6           0       16.336485   -3.500628    1.286696
     26          6           0       16.422558   -4.928990    0.836905
     27          6           0       16.280967   -4.900978   -0.753353
     28          6           0       16.216385   -3.367222   -0.957543
     29          6           0       17.707262   -5.675585    1.221798
     30          6           0       15.163543   -5.775566   -1.375350
     31          6           0       13.808000   -5.228067   -0.988251
     32          7           0       15.997437   -0.481915   -1.682214
     33          6           0       16.166615   -1.531372   -2.596924
     34          6           0       16.271441   -0.924179   -3.936475
     35          6           0       16.171927    0.446300   -3.704681
     36          6           0       16.041236    0.681872   -2.306211
     37          6           0       16.494408   -1.625484   -5.154215
     38          6           0       16.170336    1.767851   -4.310782
     39          8           0       16.156046    2.191350   -5.467475
     40          6           0       16.301311    2.851165   -3.150997
     41          6           0       15.260766    3.909306   -3.397805
     42          8           0       14.044871    3.646206   -3.299105
     43          8           0       15.856609    5.109060   -3.475941
     44          6           0       14.876729    6.207183   -3.690683
     45          1           0       17.182160    2.198920    3.705899
     46          1           0       16.090130   -3.922354    3.184854
     47          1           0       16.279327   -3.484718   -3.077085
     48          1           0       17.184895    4.535227   -0.648234
     49          1           0       16.917163    4.246488    2.143253
     50          1           0       19.113065    3.571731    0.222680
     51          1           0       19.053689    2.556319    1.696342
     52          1           0       19.234093    4.277338    1.886427
     53          1           0       14.751371    4.315916    1.135351
     54          1           0       14.486256    4.391938   -0.652500
     55          1           0       16.218069    6.520426    0.094063
     56          1           0       15.162385    6.333908    1.442615
     57          1           0       16.478124    1.723325    5.634890
     58          1           0       16.800206    0.298808    6.547593
     59          1           0       15.103735    0.815435    6.367598
     60          1           0       15.836402   -1.562809    7.336420
     61          1           0       14.618164   -2.947069    7.504346
     62          1           0       14.176187   -1.350605    6.841860
     63          1           0       15.610701   -5.520997    1.257431
     64          1           0       17.190549   -5.238187   -1.250972
     65          1           0       17.529831   -6.584343    1.797457
     66          1           0       18.347453   -4.984518    1.769404
     67          1           0       18.347796   -5.945716    0.382655
     68          1           0       15.220205   -6.793267   -0.990617
     69          1           0       15.213945   -5.828876   -2.462947
     70          1           0       13.641280   -5.664324   -0.004018
     71          1           0       13.047586   -5.559563   -1.696129
     72          1           0       13.836608   -4.145352   -0.864167
     73          1           0       15.817761   -1.186520   -5.887310
     74          1           0       16.311235   -2.693174   -5.035522
     75          1           0       17.546263   -1.399053   -5.327959
     76          1           0       17.313269    3.250896   -3.208253
     77          1           0       15.184239    6.740395   -4.590325
     78          1           0       14.833507    6.770619   -2.758440
     79          1           0       13.865998    5.904256   -3.966360
     80         12           0      -15.816268   -0.647474   -0.489790
     81          6           0      -16.638733    1.859344    1.943009
     82          6           0      -16.090951    1.782808   -2.867368
     83          6           0      -15.539630   -2.912208   -2.694753
     84          6           0      -16.720152   -3.041725    1.875861
     85          7           0      -16.306048    1.505277   -0.355476
     86          6           0      -16.539388    2.360766    0.628412
     87          6           0      -16.594152    3.848230    0.187940
     88          6           0      -16.982331    3.628068   -1.354693
     89          6           0      -16.395134    2.232854   -1.557774
     90          6           0      -18.481301    3.554825   -1.593544
     91          6           0      -15.206777    4.566416    0.334296
     92          6           0      -15.256551    6.091403    0.217314
     93          1           0      -14.346163    6.882694    1.040441
     94          7           0      -15.336221   -0.517542   -2.411050
     95          6           0      -15.494681    0.551853   -3.218857
     96          6           0      -15.006930    0.132452   -4.541872
     97          6           0      -14.700813   -1.322961   -4.489229
     98          6           0      -15.211173   -1.652252   -3.173477
     99          6           0      -14.796283    1.095203   -5.674204
    100          6           0      -14.066767   -2.265390   -5.466989
    101          8           0      -14.116464   -3.536069   -5.306580
    102          6           0      -13.467200   -1.660994   -6.665621
    103          7           0      -16.288651   -2.672097   -0.498467
    104          6           0      -16.017941   -3.440575   -1.568098
    105          6           0      -16.188899   -4.905648   -1.244491
    106          6           0      -16.397400   -4.974240    0.339627
    107          6           0      -16.400052   -3.463402    0.660174
    108          6           0      -17.352904   -5.609498   -1.941695
    109          6           0      -15.435495   -5.897280    1.136756
    110          6           0      -14.030429   -5.341354    1.090661
    111          7           0      -16.371005   -0.638877    1.598339
    112          6           0      -16.735517   -1.750908    2.388648
    113          6           0      -17.139365   -1.231388    3.711308
    114          6           0      -17.002653    0.159725    3.590374
    115          6           0      -16.565199    0.485659    2.278164
    116          6           0      -17.608019   -2.013317    4.804496
    117          6           0      -17.139130    1.427281    4.271075
    118          8           0      -17.391147    1.770748    5.425317
    119          6           0      -17.030903    2.592651    3.195632
    120          6           0      -16.079390    3.628938    3.727842
    121          8           0      -14.876410    3.358489    3.890016
    122          8           0      -16.697374    4.823891    3.751332
    123          6           0      -15.790370    5.886395    4.261486
    124          1           0      -16.373166    2.413058   -3.711185
    125          1           0      -15.355757   -3.740681   -3.382720
    126          1           0      -16.921415   -3.731022    2.698671
    127          1           0      -17.355015    4.440550    0.681935
    128          1           0      -16.481315    4.349509   -1.994900
    129          1           0      -19.036803    3.544668   -0.667555
    130          1           0      -18.646986    2.638115   -2.144213
    131          1           0      -18.797531    4.365686   -2.255990
    132          1           0      -14.587612    4.330956   -0.540877
    133          1           0      -14.729838    4.289963    1.254471
    134          1           0      -16.280033    6.477678    0.296183
    135          1           0      -14.940838    6.372639   -0.790280
    136          1           0      -15.263690    2.066165   -5.468878
    137          1           0      -15.350259    0.703515   -6.534182
    138          1           0      -13.744377    1.198794   -5.948850
    139          1           0      -14.227014   -1.102337   -7.206949
    140          1           0      -12.986759   -2.483784   -7.198610
    141          1           0      -12.708753   -0.935996   -6.349791
    142          1           0      -15.299749   -5.465873   -1.506491
    143          1           0      -17.395805   -5.353154    0.603157
    144          1           0      -17.038938   -6.489188   -2.534682
    145          1           0      -17.860615   -4.889292   -2.569443
    146          1           0      -18.151587   -5.944792   -1.282232
    147          1           0      -15.392748   -6.887488    0.676514
    148          1           0      -15.728812   -6.035729    2.172027
    149          1           0      -13.650312   -5.710400    0.133367
    150          1           0      -13.440658   -5.721305    1.922439
    151          1           0      -14.041868   -4.246350    1.040741
    152          1           0      -17.120333   -1.631947    5.691749
    153          1           0      -17.396479   -3.070303    4.656820
    154          1           0      -18.678665   -1.797941    4.753509
    155          1           0      -18.033539    2.995397    3.046978
    156          1           0      -16.298116    6.361199    5.106731
    157          1           0      -15.559009    6.525961    3.389026
    158          1           0      -14.860713    5.573211    4.722025
 ---------------------------------------------------------------------

 SCF Done:  E(RCAM-B3LYP) =  -4069.81177717     A.U. after   19 cycles

 Excitation energies and oscillator strengths:

 Excited State   1:      Singlet-A      1.6753 eV  740.05 nm  f=0.2192  <S**2>=0.000
     310 -> 316        0.16873
     311 -> 313        0.66689
     312 -> 314        0.16102
     310 <- 316        0.10172
 This state for optimization and/or second-order correction.
 Total Energy, E(TD-HF/TD-DFT) =  -4069.75020928
 Copying the excited state density for this state as the 1-particle RhoCI density.

 Excited State   2:      Singlet-A      1.6802 eV  737.93 nm  f=0.5584  <S**2>=0.000
     309 -> 315        0.17073
     311 -> 313       -0.16097
     312 -> 314        0.66652
     309 <- 315        0.10222

 Excited State   3:      Singlet-A      2.1862 eV  567.12 nm  f=0.0956  <S**2>=0.000
     310 -> 313        0.64213
     311 -> 316       -0.27303

 Excited State   4:      Singlet-A      2.1926 eV  565.47 nm  f=0.1045  <S**2>=0.000
     309 -> 314        0.64036
     312 -> 315       -0.27819

 Excited State   5:      Singlet-A      3.0618 eV  404.94 nm  f=0.0000  <S**2>=0.000
     312 -> 313        0.70711

 The electronic state is 1-A.
 Alpha  occ. eigenvalues --  -46.87765 -46.87661 -19.26354 -19.26258 -19.19164
 Alpha  occ. eigenvalues --  -19.18992 -19.18780 -19.18710 -19.18141 -19.18054
 Alpha  occ. eigenvalues --  -14.42498 -14.42418 -14.41418 -14.41360 -14.39370
 Alpha  occ. eigenvalues --  -14.39352 -14.38601 -14.38555 -10.39094 -10.39052
 Alpha  occ. eigenvalues --  -10.35413 -10.35386 -10.34361 -10.34231 -10.31761
 Alpha  occ. eigenvalues --  -10.31654 -10.31374 -10.31310 -10.31023 -10.30877
 Alpha  occ. eigenvalues --  -10.30539 -10.30476 -10.30398 -10.30362 -10.30174
 Alpha  occ. eigenvalues --  -10.30141 -10.29896 -10.29889 -10.29599 -10.29436
 Alpha  occ. eigenvalues --  -10.29401 -10.29222 -10.28720 -10.28718 -10.28654
 Alpha  occ. eigenvalues --  -10.28508 -10.28405 -10.28333 -10.28142 -10.28086
 Alpha  occ. eigenvalues --  -10.28002 -10.27762 -10.27696 -10.27670 -10.27552
 Alpha  occ. eigenvalues --  -10.27519 -10.27485 -10.27469 -10.27466 -10.27461
 Alpha  occ. eigenvalues --  -10.27447 -10.27418 -10.27377 -10.27372 -10.27129
 Alpha  occ. eigenvalues --  -10.27053 -10.26692 -10.26673 -10.26405 -10.26372
 Alpha  occ. eigenvalues --  -10.26205 -10.26151 -10.26138 -10.26028 -10.25988
 Alpha  occ. eigenvalues --  -10.25935 -10.25856 -10.25815 -10.25405 -10.25400
 Alpha  occ. eigenvalues --  -10.24874 -10.24802 -10.24756 -10.24729 -10.24690
 Alpha  occ. eigenvalues --  -10.24652  -3.16507  -3.16411  -1.91389  -1.91293
 Alpha  occ. eigenvalues --   -1.90976  -1.90882  -1.90818  -1.90718  -1.16647
 Alpha  occ. eigenvalues --   -1.16606  -1.08661  -1.08599  -1.07181  -1.06962
 Alpha  occ. eigenvalues --   -1.06949  -1.06615  -1.04549  -1.04496  -1.03729
 Alpha  occ. eigenvalues --   -1.03664  -1.03202  -1.03039  -1.02379  -1.02112
 Alpha  occ. eigenvalues --   -0.91989  -0.91941  -0.89495  -0.89488  -0.89157
 Alpha  occ. eigenvalues --   -0.89152  -0.88255  -0.88221  -0.87840  -0.87796
 Alpha  occ. eigenvalues --   -0.87685  -0.87641  -0.87240  -0.87117  -0.85000
 Alpha  occ. eigenvalues --   -0.84951  -0.83905  -0.83877  -0.82932  -0.82928
 Alpha  occ. eigenvalues --   -0.82652  -0.82617  -0.81599  -0.81557  -0.80565
 Alpha  occ. eigenvalues --   -0.80444  -0.78765  -0.78635  -0.77187  -0.77145
 Alpha  occ. eigenvalues --   -0.76904  -0.76900  -0.75893  -0.75840  -0.74867
 Alpha  occ. eigenvalues --   -0.74804  -0.72743  -0.72700  -0.71641  -0.71582
 Alpha  occ. eigenvalues --   -0.69875  -0.69758  -0.68842  -0.68828  -0.67610
 Alpha  occ. eigenvalues --   -0.67602  -0.67199  -0.67187  -0.65273  -0.65256
 Alpha  occ. eigenvalues --   -0.64823  -0.64771  -0.64655  -0.64590  -0.64238
 Alpha  occ. eigenvalues --   -0.64205  -0.62281  -0.62269  -0.60409  -0.60338
 Alpha  occ. eigenvalues --   -0.59797  -0.59773  -0.58994  -0.58956  -0.58473
 Alpha  occ. eigenvalues --   -0.58427  -0.57557  -0.57555  -0.57277  -0.57237
 Alpha  occ. eigenvalues --   -0.56279  -0.56205  -0.55950  -0.55888  -0.55488
 Alpha  occ. eigenvalues --   -0.55451  -0.55309  -0.55249  -0.54494  -0.54490
 Alpha  occ. eigenvalues --   -0.53913  -0.53864  -0.53267  -0.53228  -0.53190
 Alpha  occ. eigenvalues --   -0.53142  -0.52903  -0.52884  -0.52723  -0.52665
 Alpha  occ. eigenvalues --   -0.52406  -0.52401  -0.51888  -0.51885  -0.51658
 Alpha  occ. eigenvalues --   -0.51585  -0.51203  -0.51165  -0.50537  -0.50471
 Alpha  occ. eigenvalues --   -0.49999  -0.49979  -0.49885  -0.49867  -0.49486
 Alpha  occ. eigenvalues --   -0.49483  -0.49203  -0.49184  -0.49106  -0.49066
 Alpha  occ. eigenvalues --   -0.48563  -0.48560  -0.48429  -0.48413  -0.48377
 Alpha  occ. eigenvalues --   -0.48336  -0.47663  -0.47594  -0.47265  -0.47118
 Alpha  occ. eigenvalues --   -0.46766  -0.46710  -0.46554  -0.46524  -0.46328
 Alpha  occ. eigenvalues --   -0.46271  -0.46132  -0.46088  -0.45825  -0.45793
 Alpha  occ. eigenvalues --   -0.45210  -0.45170  -0.44548  -0.44516  -0.44476
 Alpha  occ. eigenvalues --   -0.44474  -0.44128  -0.44112  -0.44078  -0.44057
 Alpha  occ. eigenvalues --   -0.43988  -0.43938  -0.43556  -0.43465  -0.43387
 Alpha  occ. eigenvalues --   -0.43354  -0.42996  -0.42933  -0.42903  -0.42670
 Alpha  occ. eigenvalues --   -0.42624  -0.42553  -0.41978  -0.41965  -0.41673
 Alpha  occ. eigenvalues --   -0.41671  -0.41502  -0.41459  -0.41110  -0.40991
 Alpha  occ. eigenvalues --   -0.40838  -0.40789  -0.40720  -0.40697  -0.40540
 Alpha  occ. eigenvalues --   -0.40494  -0.40226  -0.40202  -0.39426  -0.39408
 Alpha  occ. eigenvalues --   -0.38437  -0.38351  -0.37717  -0.37654  -0.37289
 Alpha  occ. eigenvalues --   -0.37267  -0.37232  -0.37200  -0.36774  -0.36684
 Alpha  occ. eigenvalues --   -0.36219  -0.36162  -0.34255  -0.34254  -0.33865
 Alpha  occ. eigenvalues --   -0.33742  -0.33176  -0.33155  -0.31310  -0.31269
 Alpha  occ. eigenvalues --   -0.31004  -0.30973  -0.30000  -0.29959  -0.29417
 Alpha  occ. eigenvalues --   -0.29327  -0.29291  -0.29213  -0.24049  -0.24037
 Alpha  occ. eigenvalues --   -0.21118  -0.21096
 Alpha virt. eigenvalues --   -0.08792  -0.08742  -0.01718  -0.01684  -0.00027
 Alpha virt. eigenvalues --   -0.00025   0.02205   0.02231   0.03157   0.03227
 Alpha virt. eigenvalues --    0.04729   0.04749   0.05126   0.05162   0.06182

 Mulliken charges:
               1
     1  Mg   0.838823
     2  C   -0.002958
     3  C   -0.094100
     4  C   -0.045863
     5  C   -0.063976
     6  N   -0.256783
     7  C   -0.052487
     8  C   -0.014018
     9  C   -0.087022
    10  C    0.046337
    11  C    0.104822
    12  C    0.053479
    13  C   -0.071812
    14  H    0.036123
    15  N   -0.433160
    16  C    0.168438
    17  C   -0.177128
    18  C   -0.003976
    19  C    0.148739
    20  C    0.110169
    21  C    0.012317
    22  O   -0.249597
    23  C    0.062461
    24  N   -0.341142
    25  C    0.041242
    26  C   -0.028164
    27  C   -0.023969
    28  C    0.074843
    29  C    0.076173
    30  C    0.035130
    31  C   -0.004507
    32  N   -0.310461
    33  C    0.080414
    34  C   -0.169736
    35  C    0.008326
    36  C    0.082979
    37  C    0.127317
    38  C    0.046090
    39  O   -0.188525
    40  C   -0.005339
    41  C    0.212855
    42  O   -0.257078
    43  O   -0.304802
    44  C    0.157703
    45  H   -0.017600
    46  H   -0.016817
    47  H   -0.041522
    48  H    0.000900
    49  H   -0.004011
    50  H    0.025442
    51  H    0.016443
    52  H    0.016645
    53  H    0.011257
    54  H    0.044125
    55  H    0.017829
    56  H    0.017984
    57  H    0.005873
    58  H    0.026828
    59  H    0.039643
    60  H    0.037327
    61  H    0.035710
    62  H    0.031575
    63  H    0.016592
    64  H    0.009419
    65  H    0.023224
    66  H    0.012531
    67  H    0.004720
    68  H    0.006362
    69  H    0.004694
    70  H    0.008821
    71  H    0.018159
    72  H    0.028996
    73  H    0.047530
    74  H    0.009100
    75  H    0.045958
    76  H    0.035111
    77  H    0.042882
    78  H    0.046417
    79  H    0.053680
    80  Mg   0.837813
    81  C   -0.016825
    82  C   -0.087769
    83  C   -0.045468
    84  C   -0.064883
    85  N   -0.254567
    86  C   -0.049858
    87  C   -0.015091
    88  C   -0.090503
    89  C    0.045770
    90  C    0.114372
    91  C    0.062517
    92  C   -0.077911
    93  H    0.034906
    94  N   -0.423493
    95  C    0.162946
    96  C   -0.174595
    97  C   -0.007752
    98  C    0.152112
    99  C    0.099361
   100  C    0.015618
   101  O   -0.253136
   102  C    0.061167
   103  N   -0.350054
   104  C    0.037507
   105  C   -0.019830
   106  C   -0.034826
   107  C    0.088925
   108  C    0.073661
   109  C    0.034742
   110  C   -0.007694
   111  N   -0.324041
   112  C    0.078411
   113  C   -0.163160
   114  C    0.002237
   115  C    0.096173
   116  C    0.131492
   117  C    0.042346
   118  O   -0.187952
   119  C    0.000938
   120  C    0.211249
   121  O   -0.251000
   122  O   -0.305644
   123  C    0.152040
   124  H   -0.019630
   125  H   -0.015532
   126  H   -0.040488
   127  H   -0.000676
   128  H   -0.004283
   129  H    0.022430
   130  H    0.014421
   131  H    0.016296
   132  H    0.013973
   133  H    0.037676
   134  H    0.020756
   135  H    0.019640
   136  H    0.008775
   137  H    0.026178
   138  H    0.039920
   139  H    0.038252
   140  H    0.036499
   141  H    0.033984
   142  H    0.014453
   143  H    0.012382
   144  H    0.025176
   145  H    0.011627
   146  H    0.005647
   147  H    0.006274
   148  H    0.003620
   149  H    0.010987
   150  H    0.017952
   151  H    0.030112
   152  H    0.045981
   153  H    0.008506
   154  H    0.046893
   155  H    0.034989
   156  H    0.043868
   157  H    0.049512
   158  H    0.053579
 Sum of Mulliken charges =  -0.00000

 Dipole moment (field-independent basis, Debye):
    X=              0.9260    Y=              3.1513    Z=             -0.0339  Tot=              3.2847
 Quadrupole moment (field-independent basis, Debye-Ang):
   XX=           -425.4305   YY=           -460.1894   ZZ=           -538.2157
   XY=              1.7049   XZ=            127.2532   YZ=              3.1427

 Normal termination of Gaussian 16 at Sun Sep 12 12:17:10 2021.
