 Gaussian 16, Revision A.03,
 Gaussian 16:  ES64L-G16RevA.03 25-Dec-2016

 -----------------------------------
 #p cam-b3lyp/Def2SVP td=(nstates=5)
 -----------------------------------

 --------------------------------
 TDDFT excited states in gaussian
 --------------------------------
 Symbolic Z-matrix:
 Charge =  0 Multiplicity = 1

                         Standard orientation:
 ---------------------------------------------------------------------
 Center     Atomic      Atomic             Coordinates (Angstroms)
 Number     Number       Type             X           Y           Z
 ---------------------------------------------------------------------
      1         12           0       16.106366    0.503680    0.713646
      2          6           0       16.395148   -2.393146   -1.368952
      3          6           0       17.082723    2.355130   -1.981150
      4          6           0       16.298431    3.012397    2.643950
      5          6           0       16.265812   -1.636302    3.459682
      6          7           0       16.641060   -0.061896   -1.358761
      7          6           0       16.653520   -1.199470   -2.046467
      8          6           0       16.892923   -0.996277   -3.572499
      9          6           0       17.641784    0.410464   -3.524708
     10          6           0       17.061796    0.950501   -2.229371
     11          6           0       19.154758    0.290426   -3.373038
     12          6           0       15.553030   -0.904954   -4.377532
     13          6           0       15.693617   -1.034114   -5.897040
     14          1           0       14.647257   -1.718436   -6.641474
     15          7           0       16.138303    2.436021    0.303904
     16          6           0       16.551396    3.012388   -0.850410
     17          6           0       16.381545    4.469225   -0.662113
     18          6           0       16.015377    4.704297    0.762231
     19          6           0       16.163587    3.378888    1.306936
     20          6           0       16.517112    5.463913   -1.773854
     21          6           0       15.608258    5.931072    1.515496
     22          8           0       15.559438    5.960072    2.792739
     23          6           0       15.350150    7.139809    0.712141
     24          7           0       16.480509    0.696888    2.758230
     25          6           0       16.449702    1.893339    3.355339
     26          6           0       16.463841    1.758570    4.849185
     27          6           0       16.264871    0.203955    5.154694
     28          6           0       16.252144   -0.322971    3.698515
     29          6           0       17.732044    2.259011    5.554330
     30          6           0       15.092289   -0.184457    6.089897
     31          6           0       13.774128    0.113501    5.411096
     32          7           0       16.118319   -1.643990    1.027358
     33          6           0       16.212942   -2.316323    2.254423
     34          6           0       16.291677   -3.757396    1.952467
     35          6           0       16.253838   -3.822649    0.561009
     36          6           0       16.184029   -2.504320    0.026756
     37          6           0       16.442293   -4.801828    2.906884
     38          6           0       16.280980   -4.698128   -0.599446
     39          8           0       16.240414   -5.917928   -0.766590
     40          6           0       16.496431   -3.802134   -1.898139
     41          6           0       15.489176   -4.241445   -2.925637
     42          8           0       14.268487   -4.054844   -2.745458
     43          8           0       16.127666   -4.591909   -4.052600
     44          6           0       15.183717   -5.010184   -5.123189
     45          1           0       17.603751    3.007705   -2.684439
     46          1           0       16.257417    3.843865    3.350644
     47          1           0       16.232265   -2.368741    4.268299
     48          1           0       17.536182   -1.744922   -4.035286
     49          1           0       17.360646    1.049773   -4.361349
     50          1           0       19.456476   -0.741270   -3.192785
     51          1           0       19.412292    0.917136   -2.518987
     52          1           0       19.665984    0.728118   -4.230856
     53          1           0       15.163452    0.110978   -4.312946
     54          1           0       14.835702   -1.643424   -4.017770
     55          1           0       16.674867   -1.419725   -6.175182
     56          1           0       15.663226   -0.033815   -6.329104
     57          1           0       16.953494    5.012602   -2.664041
     58          1           0       17.253714    6.200626   -1.453884
     59          1           0       15.572999    5.961037   -1.997125
     60          1           0       16.248417    7.397266    0.150552
     61          1           0       14.984600    7.892285    1.409997
     62          1           0       14.580533    6.914943   -0.026827
     63          1           0       15.645770    2.318783    5.300127
     64          1           0       17.141761   -0.234684    5.631490
     65          1           0       17.540970    3.021090    6.310260
     66          1           0       18.418238    2.627452    4.792306
     67          1           0       18.330266    1.480011    6.026249
     68          1           0       15.123718    0.408126    7.003573
     69          1           0       15.100437   -1.236202    6.376285
     70          1           0       13.627088    1.172696    5.619223
     71          1           0       12.975871   -0.485292    5.850921
     72          1           0       13.849129    0.001335    4.329302
     73          1           0       15.756539   -5.593020    2.604019
     74          1           0       16.222483   -4.451582    3.915157
     75          1           0       17.494989   -5.049267    2.771013
     76          1           0       17.520285   -3.971957   -2.229810
     77          1           0       15.478215   -6.011523   -5.437554
     78          1           0       15.196729   -4.219856   -5.873934
     79          1           0       14.152550   -5.186218   -4.814894
     80         12           0      -15.622511    0.446965   -0.503215
     81          6           0      -17.937908   -1.792658    1.078594
     82          6           0      -18.084973    2.806090   -0.429856
     83          6           0      -13.767514    2.295863   -2.294302
     84          6           0      -13.788671   -2.354143   -1.470953
     85          7           0      -17.700365    0.393921    0.253091
     86          6           0      -18.450911   -0.492424    0.889803
     87          6           0      -19.797355    0.068250    1.421107
     88          6           0      -19.962397    1.300679    0.404859
     89          6           0      -18.490992    1.545737    0.076847
     90          6           0      -20.682729    0.928558   -0.880435
     91          6           0      -19.695262    0.559407    2.907840
     92          6           0      -21.038376    0.830953    3.589074
     93          1           0      -21.171402    0.527487    5.011274
     94          7           0      -15.686460    2.404428   -0.823876
     95          6           0      -16.764770    3.210100   -0.726791
     96          6           0      -16.293441    4.557631   -1.082004
     97          6           0      -14.886721    4.452708   -1.556160
     98          6           0      -14.729052    3.012718   -1.597071
     99          6           0      -17.126639    5.790157   -0.881794
    100          6           0      -13.858268    5.478421   -1.925463
    101          8           0      -12.778877    5.159274   -2.538556
    102          6           0      -14.194456    6.879192   -1.631666
    103          7           0      -14.128602    0.027393   -1.886878
    104          6           0      -13.442397    1.017074   -2.484851
    105          6           0      -12.241274    0.478314   -3.224746
    106          6           0      -12.126734   -1.058330   -2.796735
    107          6           0      -13.389321   -1.170000   -1.914232
    108          6           0      -12.298676    0.578884   -4.748876
    109          6           0      -10.768188   -1.524885   -2.205690
    110          6           0      -10.537771   -0.870602   -0.862482
    111          7           0      -15.698007   -1.675230   -0.104895
    112          6           0      -14.849678   -2.672950   -0.633098
    113          6           0      -15.364315   -3.975525   -0.163130
    114          6           0      -16.498779   -3.644163    0.592967
    115          6           0      -16.690117   -2.236102    0.577446
    116          6           0      -14.820542   -5.250566   -0.486695
    117          6           0      -17.584066   -4.166193    1.391919
    118          8           0      -17.888230   -5.277214    1.824194
    119          6           0      -18.636840   -3.000928    1.637336
    120          6           0      -18.988491   -2.993068    3.099795
    121          8           0      -18.131453   -2.707173    3.954407
    122          8           0      -20.322267   -3.110134    3.232922
    123          6           0      -20.721146   -3.096228    4.665584
    124          1           0      -18.853501    3.543677   -0.662723
    125          1           0      -13.035004    2.895876   -2.839170
    126          1           0      -13.216419   -3.267225   -1.648393
    127          1           0      -20.639430   -0.606854    1.326702
    128          1           0      -20.391844    2.167073    0.901141
    129          1           0      -20.860891   -0.134302   -0.949211
    130          1           0      -20.037597    1.256864   -1.684844
    131          1           0      -21.604676    1.509011   -0.977488
    132          1           0      -19.269335    1.570902    2.922334
    133          1           0      -19.123385   -0.129720    3.498329
    134          1           0      -21.879195    0.408416    3.025664
    135          1           0      -21.222033    1.908056    3.577126
    136          1           0      -18.173852    5.538341   -0.673608
    137          1           0      -17.159192    6.313789   -1.843371
    138          1           0      -16.710887    6.461702   -0.127582
    139          1           0      -15.112617    7.146444   -2.149360
    140          1           0      -13.300918    7.453350   -1.884289
    141          1           0      -14.399276    6.972303   -0.559288
    142          1           0      -11.338117    0.995084   -2.924165
    143          1           0      -12.280759   -1.732188   -3.652327
    144          1           0      -11.446781    1.136418   -5.181896
    145          1           0      -13.236384    1.042400   -5.025291
    146          1           0      -12.348643   -0.373991   -5.273023
    147          1           0       -9.945403   -1.207206   -2.850881
    148          1           0      -10.692648   -2.601359   -2.093934
    149          1           0      -10.126811    0.107078   -1.131470
    150          1           0       -9.829153   -1.447653   -0.271800
    151          1           0      -11.486407   -0.697315   -0.341215
    152          1           0      -14.809946   -5.826086    0.429360
    153          1           0      -13.823308   -5.161076   -0.912457
    154          1           0      -15.552113   -5.593363   -1.223286
    155          1           0      -19.504394   -3.205483    1.008767
    156          1           0      -21.298685   -4.008275    4.845296
    157          1           0      -21.240604   -2.132097    4.821713
    158          1           0      -19.935471   -3.194157    5.405565
 ---------------------------------------------------------------------

 SCF Done:  E(RCAM-B3LYP) =  -4069.81177135     A.U. after   19 cycles

 Excitation energies and oscillator strengths:

 Excited State   1:      Singlet-A      1.6753 eV  740.08 nm  f=0.2136  <S**2>=0.000
     310 -> 316        0.16864
     311 -> 313        0.66671
     312 -> 314       -0.16178
     310 <- 316        0.10167
 This state for optimization and/or second-order correction.
 Total Energy, E(TD-HF/TD-DFT) =  -4069.75020551
 Copying the excited state density for this state as the 1-particle RhoCI density.

 Excited State   2:      Singlet-A      1.6801 eV  737.95 nm  f=0.5638  <S**2>=0.000
     309 -> 315        0.17067
     311 -> 313        0.16173
     312 -> 314        0.66634
     309 <- 315        0.10218

 Excited State   3:      Singlet-A      2.1861 eV  567.16 nm  f=0.1011  <S**2>=0.000
     310 -> 313        0.64241
     311 -> 316       -0.27308

 Excited State   4:      Singlet-A      2.1925 eV  565.48 nm  f=0.1001  <S**2>=0.000
     309 -> 314        0.64063
     312 -> 315       -0.27828

 Excited State   5:      Singlet-A      3.0603 eV  405.14 nm  f=0.0000  <S**2>=0.000
     312 -> 313        0.70710

 The electronic state is 1-A.
 Alpha  occ. eigenvalues --  -46.87762 -46.87660 -19.26349 -19.26251 -19.19160
 Alpha  occ. eigenvalues --  -19.18986 -19.18780 -19.18715 -19.18135 -19.18051
 Alpha  occ. eigenvalues --  -14.42498 -14.42416 -14.41415 -14.41359 -14.39368
 Alpha  occ. eigenvalues --  -14.39352 -14.38600 -14.38552 -10.39090 -10.39046
 Alpha  occ. eigenvalues --  -10.35413 -10.35392 -10.34355 -10.34228 -10.31756
 Alpha  occ. eigenvalues --  -10.31646 -10.31371 -10.31309 -10.31024 -10.30875
 Alpha  occ. eigenvalues --  -10.30535 -10.30473 -10.30397 -10.30361 -10.30172
 Alpha  occ. eigenvalues --  -10.30140 -10.29894 -10.29886 -10.29596 -10.29437
 Alpha  occ. eigenvalues --  -10.29401 -10.29220 -10.28720 -10.28715 -10.28655
 Alpha  occ. eigenvalues --  -10.28505 -10.28405 -10.28330 -10.28142 -10.28083
 Alpha  occ. eigenvalues --  -10.28001 -10.27758 -10.27693 -10.27670 -10.27550
 Alpha  occ. eigenvalues --  -10.27514 -10.27484 -10.27469 -10.27466 -10.27466
 Alpha  occ. eigenvalues --  -10.27447 -10.27415 -10.27374 -10.27369 -10.27124
 Alpha  occ. eigenvalues --  -10.27051 -10.26693 -10.26670 -10.26417 -10.26375
 Alpha  occ. eigenvalues --  -10.26202 -10.26147 -10.26129 -10.26028 -10.25984
 Alpha  occ. eigenvalues --  -10.25933 -10.25848 -10.25809 -10.25402 -10.25397
 Alpha  occ. eigenvalues --  -10.24873 -10.24798 -10.24753 -10.24721 -10.24690
 Alpha  occ. eigenvalues --  -10.24648  -3.16504  -3.16410  -1.91386  -1.91293
 Alpha  occ. eigenvalues --   -1.90973  -1.90881  -1.90815  -1.90718  -1.16643
 Alpha  occ. eigenvalues --   -1.16599  -1.08658  -1.08593  -1.07181  -1.06967
 Alpha  occ. eigenvalues --   -1.06945  -1.06608  -1.04547  -1.04496  -1.03726
 Alpha  occ. eigenvalues --   -1.03663  -1.03199  -1.03039  -1.02377  -1.02111
 Alpha  occ. eigenvalues --   -0.91987  -0.91938  -0.89492  -0.89484  -0.89154
 Alpha  occ. eigenvalues --   -0.89152  -0.88252  -0.88218  -0.87836  -0.87793
 Alpha  occ. eigenvalues --   -0.87684  -0.87639  -0.87239  -0.87121  -0.85000
 Alpha  occ. eigenvalues --   -0.84948  -0.83901  -0.83873  -0.82932  -0.82932
 Alpha  occ. eigenvalues --   -0.82653  -0.82614  -0.81596  -0.81552  -0.80562
 Alpha  occ. eigenvalues --   -0.80443  -0.78763  -0.78636  -0.77184  -0.77144
 Alpha  occ. eigenvalues --   -0.76900  -0.76898  -0.75889  -0.75839  -0.74864
 Alpha  occ. eigenvalues --   -0.74802  -0.72740  -0.72699  -0.71638  -0.71581
 Alpha  occ. eigenvalues --   -0.69871  -0.69753  -0.68839  -0.68828  -0.67607
 Alpha  occ. eigenvalues --   -0.67602  -0.67201  -0.67185  -0.65272  -0.65252
 Alpha  occ. eigenvalues --   -0.64819  -0.64770  -0.64654  -0.64586  -0.64234
 Alpha  occ. eigenvalues --   -0.64201  -0.62278  -0.62264  -0.60407  -0.60340
 Alpha  occ. eigenvalues --   -0.59797  -0.59770  -0.58993  -0.58953  -0.58469
 Alpha  occ. eigenvalues --   -0.58425  -0.57554  -0.57550  -0.57274  -0.57236
 Alpha  occ. eigenvalues --   -0.56275  -0.56204  -0.55945  -0.55886  -0.55486
 Alpha  occ. eigenvalues --   -0.55452  -0.55305  -0.55246  -0.54489  -0.54486
 Alpha  occ. eigenvalues --   -0.53914  -0.53861  -0.53264  -0.53227  -0.53188
 Alpha  occ. eigenvalues --   -0.53142  -0.52902  -0.52880  -0.52722  -0.52669
 Alpha  occ. eigenvalues --   -0.52402  -0.52395  -0.51884  -0.51880  -0.51660
 Alpha  occ. eigenvalues --   -0.51582  -0.51200  -0.51161  -0.50537  -0.50476
 Alpha  occ. eigenvalues --   -0.49996  -0.49980  -0.49884  -0.49866  -0.49488
 Alpha  occ. eigenvalues --   -0.49480  -0.49203  -0.49180  -0.49105  -0.49062
 Alpha  occ. eigenvalues --   -0.48559  -0.48559  -0.48427  -0.48411  -0.48375
 Alpha  occ. eigenvalues --   -0.48339  -0.47660  -0.47595  -0.47263  -0.47119
 Alpha  occ. eigenvalues --   -0.46762  -0.46708  -0.46555  -0.46521  -0.46324
 Alpha  occ. eigenvalues --   -0.46270  -0.46128  -0.46085  -0.45822  -0.45788
 Alpha  occ. eigenvalues --   -0.45208  -0.45167  -0.44543  -0.44514  -0.44476
 Alpha  occ. eigenvalues --   -0.44472  -0.44128  -0.44110  -0.44076  -0.44054
 Alpha  occ. eigenvalues --   -0.43985  -0.43940  -0.43552  -0.43461  -0.43386
 Alpha  occ. eigenvalues --   -0.43351  -0.42993  -0.42930  -0.42901  -0.42665
 Alpha  occ. eigenvalues --   -0.42620  -0.42551  -0.41974  -0.41962  -0.41670
 Alpha  occ. eigenvalues --   -0.41669  -0.41499  -0.41458  -0.41107  -0.40990
 Alpha  occ. eigenvalues --   -0.40835  -0.40788  -0.40723  -0.40698  -0.40536
 Alpha  occ. eigenvalues --   -0.40491  -0.40228  -0.40200  -0.39420  -0.39405
 Alpha  occ. eigenvalues --   -0.38434  -0.38349  -0.37714  -0.37654  -0.37285
 Alpha  occ. eigenvalues --   -0.37264  -0.37229  -0.37200  -0.36770  -0.36679
 Alpha  occ. eigenvalues --   -0.36216  -0.36158  -0.34253  -0.34251  -0.33861
 Alpha  occ. eigenvalues --   -0.33736  -0.33175  -0.33152  -0.31310  -0.31274
 Alpha  occ. eigenvalues --   -0.31001  -0.30973  -0.29995  -0.29955  -0.29414
 Alpha  occ. eigenvalues --   -0.29328  -0.29287  -0.29211  -0.24046  -0.24036
 Alpha  occ. eigenvalues --   -0.21117  -0.21093
 Alpha virt. eigenvalues --   -0.08792  -0.08740  -0.01715  -0.01684  -0.00030
 Alpha virt. eigenvalues --   -0.00023   0.02207   0.02235   0.03158   0.03228
 Alpha virt. eigenvalues --    0.04729   0.04752   0.05132   0.05166   0.06182

 Mulliken charges:
               1
     1  Mg   0.838708
     2  C   -0.002962
     3  C   -0.094114
     4  C   -0.045840
     5  C   -0.063966
     6  N   -0.256765
     7  C   -0.052471
     8  C   -0.014007
     9  C   -0.087011
    10  C    0.046322
    11  C    0.104823
    12  C    0.053468
    13  C   -0.071807
    14  H    0.036143
    15  N   -0.433114
    16  C    0.168433
    17  C   -0.177153
    18  C   -0.004000
    19  C    0.148711
    20  C    0.110187
    21  C    0.012303
    22  O   -0.249622
    23  C    0.062460
    24  N   -0.341126
    25  C    0.041230
    26  C   -0.028172
    27  C   -0.023981
    28  C    0.074854
    29  C    0.076182
    30  C    0.035131
    31  C   -0.004511
    32  N   -0.310481
    33  C    0.080425
    34  C   -0.169712
    35  C    0.008347
    36  C    0.083007
    37  C    0.127309
    38  C    0.046121
    39  O   -0.188454
    40  C   -0.005326
    41  C    0.212859
    42  O   -0.257072
    43  O   -0.304811
    44  C    0.157696
    45  H   -0.017625
    46  H   -0.016840
    47  H   -0.041488
    48  H    0.000914
    49  H   -0.004031
    50  H    0.025458
    51  H    0.016437
    52  H    0.016632
    53  H    0.011231
    54  H    0.044137
    55  H    0.017840
    56  H    0.017954
    57  H    0.005862
    58  H    0.026797
    59  H    0.039583
    60  H    0.037319
    61  H    0.035660
    62  H    0.031545
    63  H    0.016578
    64  H    0.009437
    65  H    0.023206
    66  H    0.012522
    67  H    0.004731
    68  H    0.006362
    69  H    0.004732
    70  H    0.008796
    71  H    0.018193
    72  H    0.028988
    73  H    0.047584
    74  H    0.009124
    75  H    0.045978
    76  H    0.035122
    77  H    0.042922
    78  H    0.046396
    79  H    0.053704
    80  Mg   0.837873
    81  C   -0.016815
    82  C   -0.087808
    83  C   -0.045481
    84  C   -0.064867
    85  N   -0.254592
    86  C   -0.049828
    87  C   -0.015123
    88  C   -0.090482
    89  C    0.045752
    90  C    0.114375
    91  C    0.062522
    92  C   -0.077905
    93  H    0.034932
    94  N   -0.423475
    95  C    0.162909
    96  C   -0.174638
    97  C   -0.007801
    98  C    0.152091
    99  C    0.099369
   100  C    0.015577
   101  O   -0.253169
   102  C    0.061187
   103  N   -0.350059
   104  C    0.037513
   105  C   -0.019810
   106  C   -0.034873
   107  C    0.088933
   108  C    0.073659
   109  C    0.034728
   110  C   -0.007703
   111  N   -0.324109
   112  C    0.078465
   113  C   -0.163089
   114  C    0.002238
   115  C    0.096217
   116  C    0.131475
   117  C    0.042406
   118  O   -0.187851
   119  C    0.000903
   120  C    0.211284
   121  O   -0.250991
   122  O   -0.305656
   123  C    0.152018
   124  H   -0.019680
   125  H   -0.015569
   126  H   -0.040389
   127  H   -0.000660
   128  H   -0.004325
   129  H    0.022449
   130  H    0.014412
   131  H    0.016267
   132  H    0.013931
   133  H    0.037697
   134  H    0.020770
   135  H    0.019590
   136  H    0.008753
   137  H    0.026118
   138  H    0.039805
   139  H    0.038226
   140  H    0.036394
   141  H    0.033918
   142  H    0.014442
   143  H    0.012430
   144  H    0.025154
   145  H    0.011587
   146  H    0.005678
   147  H    0.006329
   148  H    0.003721
   149  H    0.010944
   150  H    0.018069
   151  H    0.030055
   152  H    0.046062
   153  H    0.008585
   154  H    0.046924
   155  H    0.035003
   156  H    0.043914
   157  H    0.049486
   158  H    0.053610
 Sum of Mulliken charges =  -0.00000

 Dipole moment (field-independent basis, Debye):
    X=             -0.2822    Y=              6.9718    Z=             -3.5992  Tot=              7.8511
 Quadrupole moment (field-independent basis, Debye-Ang):
   XX=           -349.4536   YY=           -541.8668   ZZ=           -480.4268
   XY=            -27.2698   XZ=            -21.2088   YZ=             -1.6856

 Normal termination of Gaussian 16 at Sun Sep 12 10:31:21 2021.
