 Gaussian 16, Revision A.03,
 Gaussian 16:  ES64L-G16RevA.03 25-Dec-2016

 -----------------------------------
 #p cam-b3lyp/Def2SVP td=(nstates=5)
 -----------------------------------

 --------------------------------
 TDDFT excited states in gaussian
 --------------------------------
 Symbolic Z-matrix:
 Charge =  0 Multiplicity = 1

                         Standard orientation:
 ---------------------------------------------------------------------
 Center     Atomic      Atomic             Coordinates (Angstroms)
 Number     Number       Type             X           Y           Z
 ---------------------------------------------------------------------
      1         12           0       -4.044568    0.330483    0.484833
      2          6           0       -3.189400    3.691560    1.370305
      3          6           0       -5.047995    1.541477   -2.543317
      4          6           0       -5.224649   -2.543404   -0.151413
      5          6           0       -4.046940   -0.409523    3.890423
      6          7           0       -4.064699    2.376029   -0.361323
      7          6           0       -3.653980    3.568443    0.058950
      8          6           0       -3.692739    4.661595   -1.050506
      9          6           0       -4.796899    4.015502   -2.002028
     10          6           0       -4.602533    2.553216   -1.641662
     11          6           0       -6.222657    4.423869   -1.645726
     12          6           0       -2.318703    4.810840   -1.786360
     13          6           0       -2.173501    6.066574   -2.650884
     14          1           0       -0.874352    6.717453   -2.727789
     15          7           0       -4.540234   -0.498149   -1.238691
     16          6           0       -4.905650    0.147438   -2.372259
     17          6           0       -5.174992   -0.907220   -3.373174
     18          6           0       -5.120196   -2.221682   -2.675119
     19          6           0       -4.983671   -1.799977   -1.304388
     20          6           0       -5.399023   -0.624022   -4.826914
     21          6           0       -5.191722   -3.633597   -3.164519
     22          8           0       -5.357668   -4.621318   -2.369885
     23          6           0       -5.150631   -3.825326   -4.625544
     24          7           0       -4.779367   -1.202850    1.695864
     25          6           0       -5.174379   -2.367801    1.170662
     26          6           0       -5.389660   -3.401862    2.235703
     27          6           0       -4.822739   -2.768766    3.587569
     28          6           0       -4.433017   -1.370452    3.048029
     29          6           0       -6.842340   -3.848296    2.451178
     30          6           0       -3.753833   -3.587987    4.353557
     31          6           0       -2.477362   -3.649173    3.544869
     32          7           0       -3.515996    1.371642    2.314489
     33          6           0       -3.617225    0.879726    3.623858
     34          6           0       -3.247647    1.982968    4.529582
     35          6           0       -2.971312    3.051837    3.679285
     36          6           0       -3.181897    2.649863    2.329336
     37          6           0       -3.256125    1.932261    5.951479
     38          6           0       -2.570920    4.447189    3.598448
     39          8           0       -2.170586    5.282888    4.410134
     40          6           0       -2.813676    4.952590    2.107990
     41          6           0       -1.573650    5.681829    1.667699
     42          8           0       -0.496372    5.072727    1.506974
     43          8           0       -1.902496    6.923207    1.278619
     44          6           0       -0.721380    7.691098    0.801687
     45          1           0       -5.608815    1.836487   -3.432356
     46          1           0       -5.527228   -3.577182   -0.330817
     47          1           0       -3.943214   -0.590814    4.961791
     48          1           0       -4.022925    5.643175   -0.710062
     49          1           0       -4.572196    4.179188   -3.055801
     50          1           0       -6.254090    4.990082   -0.714954
     51          1           0       -6.775606    3.490055   -1.542122
     52          1           0       -6.690431    4.958929   -2.472572
     53          1           0       -2.238793    4.044531   -2.557363
     54          1           0       -1.493228    4.765358   -1.075130
     55          1           0       -2.953416    6.795567   -2.429049
     56          1           0       -2.350423    5.788276   -3.689850
     57          1           0       -5.546403    0.439665   -5.009650
     58          1           0       -6.350996   -1.080525   -5.097214
     59          1           0       -4.604767   -1.032719   -5.451779
     60          1           0       -5.983221   -3.289893   -5.082329
     61          1           0       -5.122393   -4.902381   -4.786806
     62          1           0       -4.240978   -3.368295   -5.016188
     63          1           0       -4.840066   -4.315020    2.010949
     64          1           0       -5.609872   -2.604506    4.323853
     65          1           0       -6.991454   -4.922526    2.339368
     66          1           0       -7.472298   -3.291778    1.757831
     67          1           0       -7.270967   -3.561762    3.411175
     68          1           0       -4.092566   -4.613574    4.496304
     69          1           0       -3.518391   -3.176801    5.335261
     70          1           0       -2.662252   -4.476290    2.860380
     71          1           0       -1.626338   -3.861444    4.192873
     72          1           0       -2.344648   -2.750669    2.941906
     73          1           0       -2.340130    2.423387    6.279682
     74          1           0       -3.305199    0.904590    6.310767
     75          1           0       -4.164496    2.494192    6.168162
     76          1           0       -3.684712    5.606497    2.136682
     77          1           0       -0.675206    8.607388    1.390341
     78          1           0       -0.830798    7.788657   -0.278552
     79          1           0        0.255353    7.257414    1.019057
     80         12           0        3.532315   -1.792494   -0.590181
     81          6           0        5.625529    1.085977   -0.129842
     82          6           0        1.673065    0.089418   -2.743368
     83          6           0        1.417037   -4.156015   -0.672690
     84          6           0        4.835358   -3.044148    2.389941
     85          7           0        3.725212    0.303956   -1.268388
     86          6           0        4.595770    1.282953   -1.073368
     87          6           0        4.396283    2.514511   -1.996964
     88          6           0        2.837535    2.316451   -2.328538
     89          6           0        2.737359    0.804359   -2.138184
     90          6           0        1.918078    2.986614   -1.321159
     91          6           0        5.274116    2.436504   -3.295168
     92          6           0        5.364568    3.741232   -4.089681
     93          1           0        6.620361    4.060405   -4.763170
     94          7           0        2.098548   -2.187495   -1.904273
     95          6           0        1.470869   -1.307908   -2.712740
     96          6           0        0.485007   -2.092294   -3.472328
     97          6           0        0.468089   -3.477442   -2.928457
     98          6           0        1.331102   -3.318380   -1.775200
     99          6           0       -0.268407   -1.535589   -4.645299
    100          6           0       -0.222126   -4.733885   -3.365684
    101          8           0       -0.285175   -5.765991   -2.608311
    102          6           0       -0.902309   -4.688939   -4.668303
    103          7           0        3.017447   -3.272229    0.776436
    104          6           0        2.101854   -4.208004    0.469962
    105          6           0        2.097012   -5.321229    1.490303
    106          6           0        3.372200   -5.058382    2.418964
    107          6           0        3.864465   -3.730393    1.802916
    108          6           0        0.844930   -5.419678    2.361496
    109          6           0        4.386805   -6.225020    2.567930
    110          6           0        5.082018   -6.475946    1.249184
    111          7           0        5.096396   -1.219117    0.785658
    112          6           0        5.458304   -1.870481    1.985171
    113          6           0        6.497248   -1.043907    2.633094
    114          6           0        6.652465    0.051441    1.770184
    115          6           0        5.757994   -0.072799    0.672914
    116          6           0        7.121488   -1.320729    3.882014
    117          6           0        7.362049    1.289900    1.543460
    118          8           0        8.300073    1.866644    2.092282
    119          6           0        6.639070    2.078665    0.368070
    120          6           0        7.694901    2.545498   -0.596200
    121          8           0        8.360450    1.724045   -1.251077
    122          8           0        7.595617    3.878868   -0.746731
    123          6           0        8.615098    4.387690   -1.702550
    124          1           0        0.893991    0.654292   -3.256052
    125          1           0        0.785409   -5.046717   -0.706888
    126          1           0        5.361760   -3.415365    3.271852
    127          1           0        4.555522    3.472711   -1.517117
    128          1           0        2.615132    2.586779   -3.357529
    129          1           0        2.465032    3.386912   -0.480482
    130          1           0        1.230377    2.217916   -0.993696
    131          1           0        1.306929    3.746819   -1.816042
    132          1           0        4.766511    1.801994   -4.033052
    133          1           0        6.260908    2.083119   -3.067169
    134          1           0        5.009644    4.602156   -3.510203
    135          1           0        4.672666    3.682434   -4.933375
    136          1           0       -0.170307   -0.444632   -4.705313
    137          1           0       -1.333228   -1.702198   -4.449646
    138          1           0       -0.001728   -2.021501   -5.586277
    139          1           0       -1.650797   -3.900191   -4.657842
    140          1           0       -1.259275   -5.705112   -4.846794
    141          1           0       -0.169593   -4.417315   -5.436388
    142          1           0        2.204727   -6.286193    1.010357
    143          1           0        3.081866   -4.835108    3.456110
    144          1           0        0.349747   -6.407383    2.303984
    145          1           0        0.161728   -4.634078    2.067244
    146          1           0        0.999621   -5.207579    3.418042
    147          1           0        3.865052   -7.150214    2.824710
    148          1           0        5.133524   -6.052628    3.335836
    149          1           0        4.372119   -7.113086    0.713279
    150          1           0        6.029768   -6.986789    1.406876
    151          1           0        5.188054   -5.546879    0.677141
    152          1           0        8.177656   -1.125362    3.752257
    153          1           0        6.941942   -2.346395    4.197550
    154          1           0        6.607024   -0.598500    4.521523
    155          1           0        6.097683    2.912100    0.817357
    156          1           0        9.182543    5.164564   -1.180866
    157          1           0        8.052412    4.694571   -2.604185
    158          1           0        9.407218    3.709831   -1.998365
 ---------------------------------------------------------------------

 SCF Done:  E(RCAM-B3LYP) =  -4069.81185433     A.U. after   19 cycles

 Excitation energies and oscillator strengths:

 Excited State   1:      Singlet-A      1.6290 eV  761.12 nm  f=0.0777  <S**2>=0.000
     309 -> 315       -0.11281
     310 -> 316       -0.11680
     311 -> 313       -0.47643
     312 -> 314        0.49724
 This state for optimization and/or second-order correction.
 Total Energy, E(TD-HF/TD-DFT) =  -4069.75199079
 Copying the excited state density for this state as the 1-particle RhoCI density.

 Excited State   2:      Singlet-A      1.7111 eV  724.61 nm  f=0.6249  <S**2>=0.000
     309 -> 315        0.13373
     310 -> 316       -0.12569
     311 -> 313        0.49346
     312 -> 314        0.47292

 Excited State   3:      Singlet-A      2.1758 eV  569.84 nm  f=0.0053  <S**2>=0.000
     309 -> 313        0.37541
     310 -> 314        0.52597
     311 -> 315       -0.15311
     312 -> 316        0.21454

 Excited State   4:      Singlet-A      2.1804 eV  568.63 nm  f=0.0002  <S**2>=0.000
     312 -> 313        0.70512

 Excited State   5:      Singlet-A      2.1966 eV  564.43 nm  f=0.1616  <S**2>=0.000
     309 -> 313        0.51864
     310 -> 314       -0.37044
     311 -> 315       -0.23042
     312 -> 316       -0.16403

 The electronic state is 1-A.
 Alpha  occ. eigenvalues --  -46.88028 -46.87413 -19.26619 -19.26128 -19.19384
 Alpha  occ. eigenvalues --  -19.18999 -19.18937 -19.18499 -19.18408 -19.17801
 Alpha  occ. eigenvalues --  -14.42708 -14.42220 -14.41670 -14.41125 -14.39638
 Alpha  occ. eigenvalues --  -14.39117 -14.38821 -14.38348 -10.39425 -10.38859
 Alpha  occ. eigenvalues --  -10.35636 -10.35190 -10.34633 -10.33972 -10.32015
 Alpha  occ. eigenvalues --  -10.31676 -10.31573 -10.31202 -10.31017 -10.30829
 Alpha  occ. eigenvalues --  -10.30756 -10.30716 -10.30423 -10.30160 -10.30127
 Alpha  occ. eigenvalues --  -10.30101 -10.29928 -10.29887 -10.29662 -10.29495
 Alpha  occ. eigenvalues --  -10.29209 -10.29188 -10.29126 -10.29067 -10.28622
 Alpha  occ. eigenvalues --  -10.28488 -10.28447 -10.28376 -10.28155 -10.28037
 Alpha  occ. eigenvalues --  -10.27987 -10.27857 -10.27835 -10.27766 -10.27700
 Alpha  occ. eigenvalues --  -10.27660 -10.27649 -10.27559 -10.27433 -10.27423
 Alpha  occ. eigenvalues --  -10.27411 -10.27349 -10.27261 -10.27240 -10.27221
 Alpha  occ. eigenvalues --  -10.27195 -10.26767 -10.26724 -10.26512 -10.26458
 Alpha  occ. eigenvalues --  -10.26385 -10.26311 -10.26246 -10.26031 -10.25996
 Alpha  occ. eigenvalues --  -10.25710 -10.25624 -10.25532 -10.25241 -10.25237
 Alpha  occ. eigenvalues --  -10.25073 -10.24983 -10.24794 -10.24628 -10.24590
 Alpha  occ. eigenvalues --  -10.24453  -3.16769  -3.16162  -1.91649  -1.91237
 Alpha  occ. eigenvalues --   -1.91079  -1.91044  -1.90633  -1.90470  -1.16970
 Alpha  occ. eigenvalues --   -1.16421  -1.08869  -1.08406  -1.07382  -1.06989
 Alpha  occ. eigenvalues --   -1.06738  -1.06722  -1.04847  -1.04220  -1.03987
 Alpha  occ. eigenvalues --   -1.03466  -1.03416  -1.02805  -1.02642  -1.01867
 Alpha  occ. eigenvalues --   -0.92229  -0.91724  -0.89713  -0.89534  -0.89288
 Alpha  occ. eigenvalues --   -0.88781  -0.88463  -0.88101  -0.88024  -0.87949
 Alpha  occ. eigenvalues --   -0.87558  -0.87553  -0.87437  -0.86960  -0.85313
 Alpha  occ. eigenvalues --   -0.84700  -0.84110  -0.83690  -0.83223  -0.82948
 Alpha  occ. eigenvalues --   -0.82798  -0.82381  -0.81867  -0.81364  -0.80867
 Alpha  occ. eigenvalues --   -0.80215  -0.79061  -0.78444  -0.77495  -0.77217
 Alpha  occ. eigenvalues --   -0.76907  -0.76629  -0.76209  -0.75510  -0.75090
 Alpha  occ. eigenvalues --   -0.74591  -0.73009  -0.72457  -0.71910  -0.71296
 Alpha  occ. eigenvalues --   -0.70069  -0.69571  -0.69184  -0.68541  -0.67895
 Alpha  occ. eigenvalues --   -0.67580  -0.67381  -0.66983  -0.65610  -0.65107
 Alpha  occ. eigenvalues --   -0.64986  -0.64885  -0.64529  -0.64464  -0.64398
 Alpha  occ. eigenvalues --   -0.63993  -0.62574  -0.62057  -0.60680  -0.60167
 Alpha  occ. eigenvalues --   -0.60113  -0.59479  -0.59224  -0.58755  -0.58746
 Alpha  occ. eigenvalues --   -0.58191  -0.57862  -0.57530  -0.57303  -0.57035
 Alpha  occ. eigenvalues --   -0.56566  -0.56294  -0.55985  -0.55782  -0.55666
 Alpha  occ. eigenvalues --   -0.55550  -0.55248  -0.55043  -0.54762  -0.54285
 Alpha  occ. eigenvalues --   -0.54244  -0.53617  -0.53557  -0.53515  -0.53214
 Alpha  occ. eigenvalues --   -0.53122  -0.53018  -0.52895  -0.52655  -0.52595
 Alpha  occ. eigenvalues --   -0.52426  -0.52230  -0.52131  -0.51954  -0.51651
 Alpha  occ. eigenvalues --   -0.51444  -0.51410  -0.50969  -0.50884  -0.50388
 Alpha  occ. eigenvalues --   -0.50250  -0.50154  -0.49806  -0.49754  -0.49648
 Alpha  occ. eigenvalues --   -0.49483  -0.49384  -0.49223  -0.48948  -0.48867
 Alpha  occ. eigenvalues --   -0.48726  -0.48674  -0.48644  -0.48277  -0.48186
 Alpha  occ. eigenvalues --   -0.48120  -0.47961  -0.47541  -0.47358  -0.47050
 Alpha  occ. eigenvalues --   -0.46937  -0.46875  -0.46600  -0.46472  -0.46386
 Alpha  occ. eigenvalues --   -0.46251  -0.46088  -0.46061  -0.45872  -0.45569
 Alpha  occ. eigenvalues --   -0.45396  -0.44992  -0.44843  -0.44774  -0.44401
 Alpha  occ. eigenvalues --   -0.44359  -0.44285  -0.44276  -0.44211  -0.43893
 Alpha  occ. eigenvalues --   -0.43789  -0.43751  -0.43723  -0.43653  -0.43321
 Alpha  occ. eigenvalues --   -0.43267  -0.43112  -0.42989  -0.42834  -0.42706
 Alpha  occ. eigenvalues --   -0.42652  -0.42363  -0.42237  -0.41960  -0.41836
 Alpha  occ. eigenvalues --   -0.41749  -0.41410  -0.41387  -0.41211  -0.41171
 Alpha  occ. eigenvalues --   -0.41085  -0.40765  -0.40689  -0.40648  -0.40489
 Alpha  occ. eigenvalues --   -0.40427  -0.40241  -0.39976  -0.39568  -0.39239
 Alpha  occ. eigenvalues --   -0.38675  -0.38141  -0.38135  -0.37575  -0.37525
 Alpha  occ. eigenvalues --   -0.37410  -0.37043  -0.37007  -0.36923  -0.36555
 Alpha  occ. eigenvalues --   -0.36441  -0.35981  -0.34526  -0.34103  -0.34000
 Alpha  occ. eigenvalues --   -0.33634  -0.33430  -0.32934  -0.31521  -0.31271
 Alpha  occ. eigenvalues --   -0.31051  -0.30715  -0.30269  -0.29702  -0.29699
 Alpha  occ. eigenvalues --   -0.29558  -0.29107  -0.28967  -0.24317  -0.23785
 Alpha  occ. eigenvalues --   -0.21372  -0.20871
 Alpha virt. eigenvalues --   -0.09020  -0.08555  -0.01978  -0.01452  -0.00317
 Alpha virt. eigenvalues --    0.00204   0.01966   0.02307   0.02544   0.03554
 Alpha virt. eigenvalues --    0.04372   0.04687   0.04990   0.05388   0.05650

 Mulliken charges:
               1
     1  Mg   0.838566
     2  C   -0.003770
     3  C   -0.096773
     4  C   -0.042723
     5  C   -0.063330
     6  N   -0.256692
     7  C   -0.053863
     8  C   -0.012532
     9  C   -0.086460
    10  C    0.045457
    11  C    0.104746
    12  C    0.047257
    13  C   -0.072246
    14  H    0.034298
    15  N   -0.432941
    16  C    0.167404
    17  C   -0.179341
    18  C   -0.007480
    19  C    0.151462
    20  C    0.109490
    21  C    0.013395
    22  O   -0.244149
    23  C    0.061912
    24  N   -0.341041
    25  C    0.040806
    26  C   -0.029163
    27  C   -0.024914
    28  C    0.075181
    29  C    0.075857
    30  C    0.045170
    31  C   -0.021833
    32  N   -0.310801
    33  C    0.080980
    34  C   -0.169026
    35  C    0.008617
    36  C    0.083443
    37  C    0.127198
    38  C    0.046502
    39  O   -0.187509
    40  C   -0.005937
    41  C    0.213550
    42  O   -0.258667
    43  O   -0.304366
    44  C    0.157311
    45  H   -0.017773
    46  H   -0.014650
    47  H   -0.040843
    48  H    0.001633
    49  H   -0.005145
    50  H    0.025948
    51  H    0.017200
    52  H    0.016949
    53  H    0.007778
    54  H    0.048090
    55  H    0.020240
    56  H    0.017737
    57  H    0.005759
    58  H    0.028130
    59  H    0.035627
    60  H    0.037114
    61  H    0.039612
    62  H    0.024802
    63  H    0.019554
    64  H    0.009850
    65  H    0.024358
    66  H    0.012322
    67  H    0.004796
    68  H    0.006352
    69  H    0.003067
    70  H    0.016868
    71  H    0.019207
    72  H    0.031455
    73  H    0.048243
    74  H    0.009547
    75  H    0.046485
    76  H    0.035651
    77  H    0.044506
    78  H    0.045563
    79  H    0.053241
    80  Mg   0.838236
    81  C   -0.016417
    82  C   -0.089617
    83  C   -0.045985
    84  C   -0.065000
    85  N   -0.255054
    86  C   -0.047040
    87  C   -0.014996
    88  C   -0.093007
    89  C    0.048059
    90  C    0.116526
    91  C    0.062807
    92  C   -0.076876
    93  H    0.033393
    94  N   -0.423385
    95  C    0.162396
    96  C   -0.174640
    97  C   -0.007368
    98  C    0.150263
    99  C    0.099263
   100  C    0.018318
   101  O   -0.250411
   102  C    0.059189
   103  N   -0.349978
   104  C    0.036054
   105  C   -0.017254
   106  C   -0.035330
   107  C    0.089192
   108  C    0.067144
   109  C    0.034862
   110  C   -0.007389
   111  N   -0.324338
   112  C    0.079118
   113  C   -0.162930
   114  C    0.002946
   115  C    0.096550
   116  C    0.131217
   117  C    0.042797
   118  O   -0.188021
   119  C    0.000605
   120  C    0.210932
   121  O   -0.251710
   122  O   -0.305071
   123  C    0.152353
   124  H   -0.020334
   125  H   -0.014939
   126  H   -0.041057
   127  H    0.000182
   128  H   -0.008068
   129  H    0.030815
   130  H    0.017873
   131  H    0.015186
   132  H    0.012932
   133  H    0.037082
   134  H    0.020656
   135  H    0.018269
   136  H    0.007436
   137  H    0.024720
   138  H    0.037344
   139  H    0.033435
   140  H    0.038331
   141  H    0.032565
   142  H    0.013713
   143  H    0.011580
   144  H    0.023991
   145  H    0.017994
   146  H    0.004968
   147  H    0.005516
   148  H    0.003343
   149  H    0.010810
   150  H    0.017474
   151  H    0.030416
   152  H    0.045520
   153  H    0.007807
   154  H    0.048074
   155  H    0.038008
   156  H    0.043569
   157  H    0.049010
   158  H    0.053058
 Sum of Mulliken charges =  -0.00000

 Dipole moment (field-independent basis, Debye):
    X=             -6.4645    Y=              1.5797    Z=             -5.1050  Tot=              8.3873
 Quadrupole moment (field-independent basis, Debye-Ang):
   XX=           -543.8959   YY=           -510.8766   ZZ=           -475.7719
   XY=            -17.9185   XZ=              1.4122   YZ=            -58.3425

 Normal termination of Gaussian 16 at Thu Sep  9 05:47:10 2021.
