 Gaussian 16, Revision A.03,
 Gaussian 16:  ES64L-G16RevA.03 25-Dec-2016

 -----------------------------------
 #p cam-b3lyp/Def2SVP td=(nstates=5)
 -----------------------------------

 --------------------------------
 TDDFT excited states in gaussian
 --------------------------------
 Symbolic Z-matrix:
 Charge =  0 Multiplicity = 1

                         Standard orientation:
 ---------------------------------------------------------------------
 Center     Atomic      Atomic             Coordinates (Angstroms)
 Number     Number       Type             X           Y           Z
 ---------------------------------------------------------------------
      1         12           0        7.649151   -0.914393    0.208546
      2          6           0        7.994535    2.129761   -1.642413
      3          6           0        8.515621    0.855457    2.994211
      4          6           0        7.794184   -3.665720    1.778828
      5          6           0        7.928035   -2.614989   -2.820621
      6          7           0        8.164398    1.217309    0.510232
      7          6           0        8.201512    2.292391   -0.270788
      8          6           0        8.406484    3.621158    0.516446
      9          6           0        9.109791    3.034605    1.821556
     10          6           0        8.536043    1.628877    1.795697
     11          6           0       10.628374    2.947470    1.708350
     12          6           0        7.049967    4.322357    0.862730
     13          6           0        7.167154    5.773599    1.337618
     14          1           0        6.130370    6.720920    0.956816
     15          7           0        7.610598   -1.285946    2.148472
     16          6           0        7.983695   -0.443817    3.141902
     17          6           0        7.769839   -1.183021    4.404647
     18          6           0        7.422049   -2.588530    4.055819
     19          6           0        7.623265   -2.576015    2.629378
     20          6           0        7.852725   -0.543479    5.756633
     21          6           0        6.988827   -3.760226    4.878971
     22          8           0        6.962225   -4.948950    4.409076
     23          6           0        6.676914   -3.489533    6.294060
     24          7           0        8.053754   -2.872372   -0.391659
     25          6           0        7.994744   -3.886854    0.478013
     26          6           0        8.040321   -5.211465   -0.224316
     27          6           0        7.897746   -4.890993   -1.782111
     28          6           0        7.875850   -3.344492   -1.703853
     29          6           0        9.304083   -6.050367    0.010549
     30          6           0        6.755588   -5.607117   -2.545695
     31          6           0        5.416332   -5.102316   -2.057161
     32          7           0        7.736850   -0.370643   -1.890904
     33          6           0        7.875564   -1.240562   -2.982084
     34          6           0        7.995795   -0.403076   -4.189656
     35          6           0        7.934914    0.904632   -3.712124
     36          6           0        7.812465    0.885547   -2.293345
     37          6           0        8.197666   -0.877160   -5.515901
     38          6           0        7.969587    2.313884   -4.068025
     39          8           0        7.965822    2.940817   -5.128418
     40          6           0        8.132137    3.164342   -2.731565
     41          6           0        7.121311    4.277717   -2.775562
     42          8           0        5.898646    4.034343   -2.718754
     43          8           0        7.750383    5.454969   -2.638131
     44          6           0        6.801352    6.600160   -2.643709
     45          1           0        9.002258    1.252742    3.887122
     46          1           0        7.738867   -4.639712    2.269458
     47          1           0        7.933052   -3.076419   -3.809818
     48          1           0        9.065342    4.340648    0.029963
     49          1           0        8.792839    3.556708    2.724148
     50          1           0       10.966808    3.182632    0.699350
     51          1           0       10.880746    1.918264    1.964353
     52          1           0       11.109429    3.570481    2.462817
     53          1           0        6.628682    3.867276    1.759101
     54          1           0        6.363747    4.274229    0.016496
     55          1           0        8.155265    6.183476    1.126557
     56          1           0        7.096323    5.783812    2.425312
     57          1           0        8.287408    0.453820    5.701942
     58          1           0        8.570571   -1.121125    6.338639
     59          1           0        6.889006   -0.534280    6.266038
     60          1           0        7.555985   -3.068107    6.782101
     61          1           0        6.299703   -4.426057    6.703310
     62          1           0        5.901788   -2.724307    6.344644
     63          1           0        7.212708   -5.847669    0.086693
     64          1           0        8.796971   -5.156826   -2.338350
     65          1           0        9.101966   -7.043439    0.412620
     66          1           0        9.963978   -5.488090    0.670604
     67          1           0        9.935850   -6.180840   -0.867668
     68          1           0        6.784207   -6.678960   -2.352615
     69          1           0        6.803233   -5.463194   -3.625171
     70          1           0        5.238605   -5.705501   -1.167547
     71          1           0        4.646133   -5.278734   -2.808748
     72          1           0        5.475350   -4.061386   -1.738620
     73          1           0        7.532720   -0.293948   -6.152831
     74          1           0        7.984840   -1.943234   -5.592021
     75          1           0        9.255242   -0.651713   -5.652146
     76          1           0        9.154813    3.540050   -2.721531
     77          1           0        7.122623    7.279428   -3.433401
     78          1           0        6.774973    6.985714   -1.624367
     79          1           0        5.782230    6.380091   -2.963551
     80         12           0       -8.215950   -0.393162   -0.176972
     81          6           0       -5.710259    1.969858    0.831378
     82          6           0      -10.548864    1.827302    0.946244
     83          6           0      -10.420233   -2.628672   -0.636378
     84          6           0       -5.727186   -2.832661   -0.152067
     85          7           0       -8.029887    1.607206    0.748317
     86          6           0       -7.029436    2.429743    1.025584
     87          6           0       -7.469112    3.852387    1.464149
     88          6           0       -8.938938    3.494409    2.002959
     89          6           0       -9.212816    2.251543    1.158597
     90          6           0       -8.961193    3.090998    3.467918
     91          6           0       -7.527500    4.857522    0.260693
     92          6           0       -7.647997    6.330353    0.658187
     93          1           0       -6.969149    7.330279   -0.161435
     94          7           0      -10.186949   -0.237237   -0.348417
     95          6           0      -10.972193    0.740945    0.149409
     96          6           0      -12.347928    0.385601   -0.231742
     97          6           0      -12.328171   -0.966636   -0.852846
     98          6           0      -10.950614   -1.347006   -0.612514
     99          6           0      -13.506133    1.326645   -0.069237
    100          6           0      -13.378978   -1.787507   -1.537087
    101          8           0      -13.203288   -3.031921   -1.788861
    102          6           0      -14.655452   -1.114966   -1.819553
    103          7           0       -8.141558   -2.470806   -0.161981
    104          6           0       -9.232857   -3.203702   -0.444542
    105          6           0       -8.876862   -4.657608   -0.644086
    106          6           0       -7.278724   -4.708239   -0.675274
    107          6           0       -6.972769   -3.222176   -0.386489
    108          6           0       -9.395620   -5.621940    0.422369
    109          6           0       -6.619667   -5.371050   -1.915838
    110          6           0       -6.869804   -4.527872   -3.145419
    111          7           0       -6.070218   -0.423547    0.073978
    112          6           0       -5.227449   -1.556603    0.074496
    113          6           0       -3.864793   -1.085516    0.396504
    114          6           0       -4.014743    0.296671    0.585130
    115          6           0       -5.378383    0.658212    0.414008
    116          6           0       -2.709965   -1.907189    0.528171
    117          6           0       -3.331366    1.530450    0.900538
    118          8           0       -2.155697    1.855915    1.060527
    119          6           0       -4.420245    2.649359    1.198461
    120          6           0       -4.037089    3.885966    0.432613
    121          8           0       -4.045902    3.887314   -0.810989
    122          8           0       -3.935034    4.919846    1.287620
    123          6           0       -3.567573    6.171588    0.573542
    124          1           0      -11.348713    2.348938    1.472582
    125          1           0      -11.120944   -3.424073   -0.900606
    126          1           0       -4.878776   -3.516822   -0.221344
    127          1           0       -6.876349    4.285641    2.260826
    128          1           0       -9.649582    4.281512    1.764575
    129          1           0       -7.965445    2.997260    3.875156
    130          1           0       -9.475517    2.139539    3.503250
    131          1           0       -9.578079    3.788556    4.041670
    132          1           0       -8.480120    4.727263   -0.268728
    133          1           0       -6.682563    4.725981   -0.386918
    134          1           0       -7.427092    6.489970    1.720578
    135          1           0       -8.692452    6.633826    0.553079
    136          1           0      -13.243817    2.181408    0.566357
    137          1           0      -14.275340    0.791963    0.498480
    138          1           0      -13.928653    1.643589   -1.025109
    139          1           0      -15.087291   -0.754322   -0.889005
    140          1           0      -15.245077   -1.834986   -2.390338
    141          1           0      -14.456535   -0.232037   -2.437190
    142          1           0       -9.258548   -5.022970   -1.589571
    143          1           0       -6.872695   -5.282742    0.170262
    144          1           0      -10.020470   -6.435647    0.008219
    145          1           0       -9.950183   -5.052727    1.156537
    146          1           0       -8.626515   -6.095594    1.030093
    147          1           0       -7.073624   -6.345852   -2.110358
    148          1           0       -5.552127   -5.529310   -1.804950
    149          1           0       -7.868602   -4.843115   -3.461810
    150          1           0       -6.127636   -4.739518   -3.912510
    151          1           0       -6.926057   -3.463780   -2.888150
    152          1           0       -1.904233   -1.395789    0.018499
    153          1           0       -2.878085   -2.898737    0.113039
    154          1           0       -2.609534   -1.929495    1.616604
    155          1           0       -4.427635    2.820755    2.275563
    156          1           0       -2.662302    6.558229    1.051749
    157          1           0       -4.469024    6.811774    0.609669
    158          1           0       -3.241783    6.083926   -0.456323
 ---------------------------------------------------------------------

 SCF Done:  E(RCAM-B3LYP) =  -4069.81140654     A.U. after   19 cycles

 Excitation energies and oscillator strengths:

 Excited State   1:      Singlet-A      1.6754 eV  740.01 nm  f=0.3971  <S**2>=0.000
     309 -> 315        0.17212
     311 -> 313        0.68049
     309 <- 315        0.10375
 This state for optimization and/or second-order correction.
 Total Energy, E(TD-HF/TD-DFT) =  -4069.74983509
 Copying the excited state density for this state as the 1-particle RhoCI density.

 Excited State   2:      Singlet-A      1.6800 eV  738.01 nm  f=0.3890  <S**2>=0.000
     310 -> 316        0.17385
     312 -> 314        0.68012
     310 <- 316        0.10406

 Excited State   3:      Singlet-A      2.1855 eV  567.30 nm  f=0.0395  <S**2>=0.000
     309 -> 313        0.60861
     310 -> 314       -0.20709
     311 -> 315       -0.25819

 Excited State   4:      Singlet-A      2.1921 eV  565.61 nm  f=0.1519  <S**2>=0.000
     309 -> 313        0.20590
     310 -> 314        0.60663
     312 -> 316       -0.26328

 Excited State   5:      Singlet-A      2.7242 eV  455.12 nm  f=0.0000  <S**2>=0.000
     312 -> 313        0.70676

 The electronic state is 1-A.
 Alpha  occ. eigenvalues --  -46.87587 -46.87528 -19.26252 -19.25988 -19.19048
 Alpha  occ. eigenvalues --  -19.18698 -19.18648 -19.18585 -19.17952 -19.17907
 Alpha  occ. eigenvalues --  -14.42427 -14.42185 -14.41287 -14.41196 -14.39279
 Alpha  occ. eigenvalues --  -14.39139 -14.38522 -14.38319 -10.38984 -10.38766
 Alpha  occ. eigenvalues --  -10.35327 -10.35221 -10.34130 -10.34125 -10.31661
 Alpha  occ. eigenvalues --  -10.31394 -10.31235 -10.31140 -10.30956 -10.30642
 Alpha  occ. eigenvalues --  -10.30320 -10.30306 -10.30282 -10.30251 -10.30074
 Alpha  occ. eigenvalues --  -10.29966 -10.29819 -10.29675 -10.29377 -10.29366
 Alpha  occ. eigenvalues --  -10.29324 -10.29001 -10.28658 -10.28596 -10.28472
 Alpha  occ. eigenvalues --  -10.28330 -10.28243 -10.28100 -10.28083 -10.27921
 Alpha  occ. eigenvalues --  -10.27856 -10.27600 -10.27537 -10.27470 -10.27452
 Alpha  occ. eigenvalues --  -10.27410 -10.27405 -10.27391 -10.27330 -10.27311
 Alpha  occ. eigenvalues --  -10.27292 -10.27242 -10.27239 -10.27139 -10.26966
 Alpha  occ. eigenvalues --  -10.26886 -10.26625 -10.26381 -10.26358 -10.26194
 Alpha  occ. eigenvalues --  -10.26068 -10.26003 -10.25990 -10.25982 -10.25860
 Alpha  occ. eigenvalues --  -10.25772 -10.25746 -10.25608 -10.25343 -10.25251
 Alpha  occ. eigenvalues --  -10.24791 -10.24654 -10.24617 -10.24574 -10.24539
 Alpha  occ. eigenvalues --  -10.24485  -3.16337  -3.16269  -1.91219  -1.91151
 Alpha  occ. eigenvalues --   -1.90807  -1.90738  -1.90644  -1.90580  -1.16543
 Alpha  occ. eigenvalues --   -1.16333  -1.08556  -1.08362  -1.06989  -1.06902
 Alpha  occ. eigenvalues --   -1.06835  -1.06326  -1.04424  -1.04316  -1.03591
 Alpha  occ. eigenvalues --   -1.03506  -1.02975  -1.02965  -1.02153  -1.02037
 Alpha  occ. eigenvalues --   -0.91909  -0.91708  -0.89422  -0.89286  -0.89089
 Alpha  occ. eigenvalues --   -0.88918  -0.88151  -0.88059  -0.87707  -0.87618
 Alpha  occ. eigenvalues --   -0.87613  -0.87412  -0.87052  -0.87028  -0.84933
 Alpha  occ. eigenvalues --   -0.84716  -0.83805  -0.83714  -0.82866  -0.82738
 Alpha  occ. eigenvalues --   -0.82585  -0.82391  -0.81513  -0.81318  -0.80366
 Alpha  occ. eigenvalues --   -0.80336  -0.78562  -0.78548  -0.77075  -0.76972
 Alpha  occ. eigenvalues --   -0.76827  -0.76675  -0.75767  -0.75664  -0.74734
 Alpha  occ. eigenvalues --   -0.74670  -0.72623  -0.72524  -0.71512  -0.71425
 Alpha  occ. eigenvalues --   -0.69691  -0.69688  -0.68759  -0.68614  -0.67526
 Alpha  occ. eigenvalues --   -0.67388  -0.67133  -0.66946  -0.65202  -0.65016
 Alpha  occ. eigenvalues --   -0.64695  -0.64596  -0.64579  -0.64364  -0.64132
 Alpha  occ. eigenvalues --   -0.64033  -0.62193  -0.62026  -0.60270  -0.60200
 Alpha  occ. eigenvalues --   -0.59729  -0.59539  -0.58918  -0.58734  -0.58348
 Alpha  occ. eigenvalues --   -0.58249  -0.57464  -0.57312  -0.57162  -0.57062
 Alpha  occ. eigenvalues --   -0.56127  -0.56059  -0.55804  -0.55701  -0.55377
 Alpha  occ. eigenvalues --   -0.55275  -0.55170  -0.55100  -0.54407  -0.54270
 Alpha  occ. eigenvalues --   -0.53848  -0.53624  -0.53154  -0.53068  -0.53054
 Alpha  occ. eigenvalues --   -0.52963  -0.52822  -0.52650  -0.52605  -0.52509
 Alpha  occ. eigenvalues --   -0.52327  -0.52219  -0.51790  -0.51667  -0.51590
 Alpha  occ. eigenvalues --   -0.51349  -0.51119  -0.50942  -0.50412  -0.50338
 Alpha  occ. eigenvalues --   -0.49915  -0.49810  -0.49799  -0.49674  -0.49420
 Alpha  occ. eigenvalues --   -0.49260  -0.49127  -0.49031  -0.48958  -0.48840
 Alpha  occ. eigenvalues --   -0.48479  -0.48336  -0.48302  -0.48266  -0.48231
 Alpha  occ. eigenvalues --   -0.48199  -0.47524  -0.47446  -0.47053  -0.47048
 Alpha  occ. eigenvalues --   -0.46637  -0.46550  -0.46488  -0.46287  -0.46195
 Alpha  occ. eigenvalues --   -0.46110  -0.46006  -0.45912  -0.45736  -0.45564
 Alpha  occ. eigenvalues --   -0.45140  -0.44977  -0.44438  -0.44404  -0.44320
 Alpha  occ. eigenvalues --   -0.44265  -0.44056  -0.44004  -0.43905  -0.43865
 Alpha  occ. eigenvalues --   -0.43834  -0.43765  -0.43471  -0.43313  -0.43232
 Alpha  occ. eigenvalues --   -0.43134  -0.42848  -0.42814  -0.42776  -0.42483
 Alpha  occ. eigenvalues --   -0.42455  -0.42389  -0.41893  -0.41767  -0.41589
 Alpha  occ. eigenvalues --   -0.41450  -0.41392  -0.41271  -0.40921  -0.40893
 Alpha  occ. eigenvalues --   -0.40658  -0.40634  -0.40618  -0.40583  -0.40424
 Alpha  occ. eigenvalues --   -0.40338  -0.40164  -0.39943  -0.39355  -0.39226
 Alpha  occ. eigenvalues --   -0.38284  -0.38237  -0.37587  -0.37468  -0.37195
 Alpha  occ. eigenvalues --   -0.37129  -0.37082  -0.36988  -0.36676  -0.36435
 Alpha  occ. eigenvalues --   -0.36139  -0.35926  -0.34177  -0.34025  -0.33755
 Alpha  occ. eigenvalues --   -0.33458  -0.33099  -0.32923  -0.31208  -0.31116
 Alpha  occ. eigenvalues --   -0.30900  -0.30778  -0.29856  -0.29765  -0.29253
 Alpha  occ. eigenvalues --   -0.29193  -0.29129  -0.29061  -0.23963  -0.23819
 Alpha  occ. eigenvalues --   -0.21043  -0.20871
 Alpha virt. eigenvalues --   -0.08716  -0.08518  -0.01613  -0.01496   0.00042
 Alpha virt. eigenvalues --    0.00193   0.02293   0.02456   0.03311   0.03474
 Alpha virt. eigenvalues --    0.04796   0.04982   0.05269   0.05403   0.06246

 Mulliken charges:
               1
     1  Mg   0.840505
     2  C   -0.002157
     3  C   -0.093706
     4  C   -0.046104
     5  C   -0.064248
     6  N   -0.256700
     7  C   -0.052060
     8  C   -0.014265
     9  C   -0.087137
    10  C    0.046738
    11  C    0.104957
    12  C    0.053375
    13  C   -0.071611
    14  H    0.036363
    15  N   -0.433000
    16  C    0.168839
    17  C   -0.177010
    18  C   -0.004061
    19  C    0.148934
    20  C    0.110285
    21  C    0.012343
    22  O   -0.250282
    23  C    0.062371
    24  N   -0.341185
    25  C    0.041221
    26  C   -0.028003
    27  C   -0.023914
    28  C    0.074979
    29  C    0.076360
    30  C    0.035242
    31  C   -0.004463
    32  N   -0.310534
    33  C    0.080762
    34  C   -0.169636
    35  C    0.008332
    36  C    0.083608
    37  C    0.127241
    38  C    0.046530
    39  O   -0.188608
    40  C   -0.005580
    41  C    0.212471
    42  O   -0.255225
    43  O   -0.305279
    44  C    0.157691
    45  H   -0.018046
    46  H   -0.017417
    47  H   -0.041938
    48  H    0.000484
    49  H   -0.004033
    50  H    0.025207
    51  H    0.016140
    52  H    0.016158
    53  H    0.012327
    54  H    0.045555
    55  H    0.016973
    56  H    0.017719
    57  H    0.005752
    58  H    0.026154
    59  H    0.039911
    60  H    0.036999
    61  H    0.034985
    62  H    0.032134
    63  H    0.016174
    64  H    0.009040
    65  H    0.022671
    66  H    0.012445
    67  H    0.004366
    68  H    0.005651
    69  H    0.004538
    70  H    0.008278
    71  H    0.017689
    72  H    0.030135
    73  H    0.047798
    74  H    0.008802
    75  H    0.045518
    76  H    0.034588
    77  H    0.042191
    78  H    0.046127
    79  H    0.054547
    80  Mg   0.837884
    81  C   -0.016715
    82  C   -0.087867
    83  C   -0.045540
    84  C   -0.064919
    85  N   -0.254508
    86  C   -0.049861
    87  C   -0.015063
    88  C   -0.090478
    89  C    0.045689
    90  C    0.114462
    91  C    0.062557
    92  C   -0.077827
    93  H    0.035063
    94  N   -0.423419
    95  C    0.162849
    96  C   -0.174778
    97  C   -0.007903
    98  C    0.152048
    99  C    0.099437
   100  C    0.015516
   101  O   -0.253326
   102  C    0.061216
   103  N   -0.350084
   104  C    0.037418
   105  C   -0.019764
   106  C   -0.034840
   107  C    0.088994
   108  C    0.073720
   109  C    0.034721
   110  C   -0.007654
   111  N   -0.324200
   112  C    0.078568
   113  C   -0.162712
   114  C    0.002463
   115  C    0.096396
   116  C    0.131292
   117  C    0.042780
   118  O   -0.186951
   119  C    0.000660
   120  C    0.211602
   121  O   -0.250214
   122  O   -0.306075
   123  C    0.151919
   124  H   -0.019915
   125  H   -0.015713
   126  H   -0.040303
   127  H   -0.000899
   128  H   -0.004429
   129  H    0.022208
   130  H    0.014361
   131  H    0.015997
   132  H    0.013958
   133  H    0.038055
   134  H    0.020443
   135  H    0.019445
   136  H    0.008608
   137  H    0.025912
   138  H    0.039707
   139  H    0.038123
   140  H    0.036265
   141  H    0.033919
   142  H    0.014368
   143  H    0.012338
   144  H    0.025009
   145  H    0.011505
   146  H    0.005556
   147  H    0.006091
   148  H    0.003754
   149  H    0.010811
   150  H    0.018094
   151  H    0.030295
   152  H    0.047207
   153  H    0.008595
   154  H    0.046519
   155  H    0.034427
   156  H    0.043529
   157  H    0.049046
   158  H    0.054553
 Sum of Mulliken charges =  -0.00000

 Dipole moment (field-independent basis, Debye):
    X=             -1.8501    Y=              2.0774    Z=              5.9599  Tot=              6.5772
 Quadrupole moment (field-independent basis, Debye-Ang):
   XX=           -443.9307   YY=           -474.4355   ZZ=           -513.7300
   XY=            -31.9338   XZ=             11.1568   YZ=             40.1231

 Normal termination of Gaussian 16 at Sun Sep 12 02:03:06 2021.
