 Gaussian 16, Revision A.03,
 Gaussian 16:  ES64L-G16RevA.03 25-Dec-2016

 -----------------------------------
 #p cam-b3lyp/Def2SVP td=(nstates=5)
 -----------------------------------

 --------------------------------
 TDDFT excited states in gaussian
 --------------------------------
 Symbolic Z-matrix:
 Charge =  0 Multiplicity = 1

                         Standard orientation:
 ---------------------------------------------------------------------
 Center     Atomic      Atomic             Coordinates (Angstroms)
 Number     Number       Type             X           Y           Z
 ---------------------------------------------------------------------
      1         12           0        6.886590    0.367226    0.561595
      2          6           0        7.106648   -2.723614   -1.230190
      3          6           0        7.940977    1.921897   -2.286971
      4          6           0        7.136866    3.043373    2.244515
      5          6           0        6.958397   -1.502417    3.501823
      6          7           0        7.421980   -0.410278   -1.440776
      7          6           0        7.406381   -1.608608   -2.016044
      8          6           0        7.664878   -1.560142   -3.551688
      9          6           0        8.454980   -0.177560   -3.630446
     10          6           0        7.880247    0.501101   -2.399582
     11          6           0        9.962332   -0.326130   -3.450665
     12          6           0        6.335292   -1.507989   -4.377045
     13          6           0        6.485039   -1.786712   -5.875458
     14          1           0        5.425157   -2.508937   -6.562765
     15          7           0        6.979752    2.249462   -0.031158
     16          6           0        7.419800    2.699948   -1.230619
     17          6           0        7.291920    4.172440   -1.184840
     18          6           0        6.920684    4.553906    0.206117
     19          6           0        7.024546    3.283308    0.877064
     20          6           0        7.466703    5.051248   -2.385214
     21          6           0        6.543914    5.858698    0.833568
     22          8           0        6.484986    6.011814    2.101502
     23          6           0        6.328950    6.991512   -0.084890
     24          7           0        7.248715    0.745302    2.582377
     25          6           0        7.248516    1.994027    3.061615
     26          6           0        7.245758    2.003216    4.561564
     27          6           0        6.997823    0.491597    5.012441
     28          6           0        6.981904   -0.172359    3.613449
     29          6           0        8.522223    2.532298    5.229936
     30          6           0        5.806153    0.228990    5.967102
     31          6           0        4.503373    0.498248    5.247823
     32          7           0        6.831692   -1.739756    1.079916
     33          6           0        6.895623   -2.293400    2.366799
     34          6           0        6.933880   -3.758505    2.205339
     35          6           0        6.906093   -3.956172    0.826209
     36          6           0        6.880292   -2.693879    0.167239
     37          6           0        7.045010   -4.710209    3.257168
     38          6           0        6.917067   -4.939627   -0.244563
     39          8           0        6.841529   -6.168164   -0.294424
     40          6           0        7.170358   -4.179305   -1.620638
     41          6           0        6.159317   -4.686114   -2.612731
     42          8           0        4.943239   -4.447847   -2.465254
     43          8           0        6.796736   -5.161655   -3.693518
     44          6           0        5.849970   -5.653509   -4.729794
     45          1           0        8.487300    2.488469   -3.043588
     46          1           0        7.114619    3.939796    2.867707
     47          1           0        6.896029   -2.152406    4.376510
     48          1           0        8.289452   -2.368106   -3.933166
     49          1           0        8.200276    0.386170   -4.527695
     50          1           0       10.231539   -1.343991   -3.168873
     51          1           0       10.231104    0.372116   -2.657754
     52          1           0       10.493770    0.012065   -4.340595
     53          1           0        5.975688   -0.479722   -4.414635
     54          1           0        5.593157   -2.187389   -3.956360
     55          1           0        7.456693   -2.225486   -6.104098
     56          1           0        6.488259   -0.832151   -6.401769
     57          1           0        7.897060    4.503984   -3.222973
     58          1           0        8.222196    5.793724   -2.128956
     59          1           0        6.539816    5.551669   -2.665912
     60          1           0        7.239308    7.167690   -0.658265
     61          1           0        5.980040    7.817871    0.533367
     62          1           0        5.559353    6.718948   -0.807647
     63          1           0        6.440931    2.627613    4.947320
     64          1           0        7.857083    0.075693    5.539101
     65          1           0        8.347492    3.368756    5.907071
     66          1           0        9.225652    2.805749    4.443994
     67          1           0        9.092826    1.785339    5.781191
     68          1           0        5.847398    0.905550    6.820045
     69          1           0        5.780419   -0.790126    6.353096
     70          1           0        4.386247    1.576356    5.351729
     71          1           0        3.683832   -0.032142    5.733877
     72          1           0        4.584304    0.280429    4.182698
     73          1           0        6.338566   -5.506712    3.023740
     74          1           0        6.827085   -4.258401    4.224629
     75          1           0        8.090978   -4.999890    3.157702
     76          1           0        8.191501   -4.409762   -1.922761
     77          1           0        6.117126   -6.688534   -4.943302
     78          1           0        5.893045   -4.939764   -5.552665
     79          1           0        4.811389   -5.769198   -4.417856
     80         12           0       -6.329807    0.680067   -0.089771
     81          6           0       -8.984744   -1.704254    0.291560
     82          6           0       -8.585787    2.721504   -1.631739
     83          6           0       -3.923283    2.606509   -0.841324
     84          6           0       -4.090023   -1.939906    0.424840
     85          7           0       -8.478558    0.429632   -0.550673
     86          6           0       -9.395940   -0.493054   -0.302887
     87          6           0      -10.848448   -0.063292   -0.642122
     88          6           0      -10.516321    1.063311   -1.737263
     89          6           0       -9.120037    1.461055   -1.263056
     90          6           0      -10.402729    0.514560   -3.149817
     91          6           0      -11.597201    0.542692    0.596497
     92          6           0      -13.109508    0.697472    0.421236
     93          1           0      -13.970153    0.483578    1.581416
     94          7           0       -6.334762    2.586936   -0.639649
     95          6           0       -7.343274    3.260471   -1.231711
     96          6           0       -6.841602    4.626106   -1.449754
     97          6           0       -5.398376    4.658964   -1.088175
     98          6           0       -5.152369    3.249653   -0.857088
     99          6           0       -7.727310    5.759437   -1.879279
    100          6           0       -4.401143    5.772713   -0.982020
    101          8           0       -3.143898    5.543687   -0.883444
    102          6           0       -4.931066    7.139772   -1.090794
    103          7           0       -4.302067    0.346354   -0.404791
    104          6           0       -3.466173    1.366319   -0.667254
    105          6           0       -2.024319    0.925519   -0.582721
    106          6           0       -2.061692   -0.550862    0.030866
    107          6           0       -3.590786   -0.751131    0.115432
    108          6           0       -1.255509    0.908044   -1.903712
    109          6           0       -1.211335   -0.804921    1.305632
    110          6           0       -1.785253   -0.032209    2.471354
    111          7           0       -6.473341   -1.401231    0.472092
    112          6           0       -5.412682   -2.323959    0.605011
    113          6           0       -6.015544   -3.642062    0.890620
    114          6           0       -7.397037   -3.397316    0.881201
    115          6           0       -7.638778   -2.027767    0.588963
    116          6           0       -5.303354   -4.861578    1.068633
    117          6           0       -8.706118   -3.988311    1.041522
    118          8           0       -9.124196   -5.093926    1.382957
    119          6           0       -9.796217   -2.944989    0.541975
    120          6           0      -10.881864   -2.874339    1.580681
    121          8           0      -10.642585   -2.425435    2.715512
    122          8           0      -12.065512   -3.142713    0.999891
    123          6           0      -13.175071   -3.073974    1.987810
    124          1           0       -9.151783    3.341455   -2.327576
    125          1           0       -3.052437    3.250184   -0.985512
    126          1           0       -3.455908   -2.787081    0.694762
    127          1           0      -11.461100   -0.840782   -1.082519
    128          1           0      -11.199889    1.904651   -1.658256
    129          1           0      -10.447471   -0.564240   -3.167746
    130          1           0       -9.447718    0.859890   -3.523645
    131          1           0      -11.160842    0.970121   -3.793300
    132          1           0      -11.311972    1.596842    0.706771
    133          1           0      -11.392494   -0.027365    1.481793
    134          1           0      -13.483803    0.136303   -0.443607
    135          1           0      -13.325686    1.740564    0.177848
    136          1           0       -8.702480    5.397905   -2.228184
    137          1           0       -7.268459    6.204422   -2.768838
    138          1           0       -7.828617    6.529239   -1.111285
    139          1           0       -5.438823    7.255358   -2.045400
    140          1           0       -4.081337    7.798512   -0.901329
    141          1           0       -5.688189    7.284492   -0.312059
    142          1           0       -1.461722    1.568583    0.082906
    143          1           0       -1.685846   -1.298442   -0.683062
    144          1           0       -0.342206    1.532251   -1.885468
    145          1           0       -1.922498    1.232986   -2.691163
    146          1           0       -0.953658   -0.079180   -2.249342
    147          1           0       -0.192584   -0.437029    1.160828
    148          1           0       -1.139839   -1.853338    1.575284
    149          1           0       -1.357291    0.966173    2.340286
    150          1           0       -1.473044   -0.474690    3.415156
    151          1           0       -2.873889    0.061675    2.383528
    152          1           0       -5.752736   -5.363879    1.914948
    153          1           0       -4.242249   -4.682524    1.229111
    154          1           0       -5.497482   -5.343045    0.106458
    155          1           0      -10.171602   -3.298320   -0.419179
    156          1           0      -13.698761   -4.034082    1.947411
    157          1           0      -13.756628   -2.171398    1.721567
    158          1           0      -12.909328   -3.021996    3.037160
 ---------------------------------------------------------------------

 SCF Done:  E(RCAM-B3LYP) =  -4069.81201844     A.U. after   19 cycles

 Excitation energies and oscillator strengths:

 Excited State   1:      Singlet-A      1.6642 eV  745.00 nm  f=0.0103  <S**2>=0.000
     309 -> 315       -0.10776
     310 -> 316        0.13301
     311 -> 313       -0.43071
     312 -> 314        0.53480
 This state for optimization and/or second-order correction.
 Total Energy, E(TD-HF/TD-DFT) =  -4069.75085921
 Copying the excited state density for this state as the 1-particle RhoCI density.

 Excited State   2:      Singlet-A      1.6898 eV  733.74 nm  f=0.7302  <S**2>=0.000
     309 -> 315        0.13892
     310 -> 316        0.11114
     311 -> 313        0.53359
     312 -> 314        0.42977

 Excited State   3:      Singlet-A      2.1851 eV  567.41 nm  f=0.1074  <S**2>=0.000
     310 -> 314        0.64262
     312 -> 316       -0.27255

 Excited State   4:      Singlet-A      2.1942 eV  565.05 nm  f=0.0952  <S**2>=0.000
     309 -> 313        0.64053
     311 -> 315       -0.27900

 Excited State   5:      Singlet-A      2.6483 eV  468.17 nm  f=0.0000  <S**2>=0.000
     312 -> 313        0.70680

 The electronic state is 1-A.
 Alpha  occ. eigenvalues --  -46.87830 -46.87530 -19.26342 -19.26259 -19.19090
 Alpha  occ. eigenvalues --  -19.19065 -19.18784 -19.18620 -19.18200 -19.17934
 Alpha  occ. eigenvalues --  -14.42479 -14.42373 -14.41476 -14.41216 -14.39427
 Alpha  occ. eigenvalues --  -14.39227 -14.38622 -14.38468 -10.39145 -10.38993
 Alpha  occ. eigenvalues --  -10.35414 -10.35301 -10.34423 -10.34112 -10.31734
 Alpha  occ. eigenvalues --  -10.31677 -10.31440 -10.31183 -10.30932 -10.30913
 Alpha  occ. eigenvalues --  -10.30601 -10.30532 -10.30263 -10.30228 -10.30221
 Alpha  occ. eigenvalues --  -10.29988 -10.29949 -10.29741 -10.29649 -10.29309
 Alpha  occ. eigenvalues --  -10.29273 -10.29270 -10.28782 -10.28623 -10.28580
 Alpha  occ. eigenvalues --  -10.28579 -10.28390 -10.28286 -10.28145 -10.28041
 Alpha  occ. eigenvalues --  -10.27874 -10.27813 -10.27751 -10.27595 -10.27546
 Alpha  occ. eigenvalues --  -10.27517 -10.27462 -10.27461 -10.27432 -10.27378
 Alpha  occ. eigenvalues --  -10.27360 -10.27345 -10.27287 -10.27197 -10.27184
 Alpha  occ. eigenvalues --  -10.26940 -10.26752 -10.26606 -10.26350 -10.26331
 Alpha  occ. eigenvalues --  -10.26255 -10.26207 -10.26044 -10.25936 -10.25869
 Alpha  occ. eigenvalues --  -10.25867 -10.25773 -10.25669 -10.25437 -10.25206
 Alpha  occ. eigenvalues --  -10.24858 -10.24809 -10.24746 -10.24734 -10.24556
 Alpha  occ. eigenvalues --  -10.24515  -3.16574  -3.16280  -1.91456  -1.91162
 Alpha  occ. eigenvalues --   -1.91042  -1.90884  -1.90751  -1.90588  -1.16692
 Alpha  occ. eigenvalues --   -1.16552  -1.08662  -1.08542  -1.07182  -1.06875
 Alpha  occ. eigenvalues --   -1.06849  -1.06709  -1.04609  -1.04373  -1.03786
 Alpha  occ. eigenvalues --   -1.03532  -1.03260  -1.02900  -1.02438  -1.01977
 Alpha  occ. eigenvalues --   -0.92003  -0.91863  -0.89544  -0.89325  -0.89219
 Alpha  occ. eigenvalues --   -0.89045  -0.88307  -0.88040  -0.87896  -0.87699
 Alpha  occ. eigenvalues --   -0.87650  -0.87555  -0.87267  -0.87014  -0.85008
 Alpha  occ. eigenvalues --   -0.84890  -0.83960  -0.83697  -0.82948  -0.82819
 Alpha  occ. eigenvalues --   -0.82663  -0.82542  -0.81622  -0.81480  -0.80619
 Alpha  occ. eigenvalues --   -0.80326  -0.78803  -0.78515  -0.77240  -0.77019
 Alpha  occ. eigenvalues --   -0.76966  -0.76768  -0.75953  -0.75727  -0.74918
 Alpha  occ. eigenvalues --   -0.74644  -0.72798  -0.72560  -0.71695  -0.71449
 Alpha  occ. eigenvalues --   -0.69933  -0.69555  -0.68894  -0.68715  -0.67660
 Alpha  occ. eigenvalues --   -0.67476  -0.67237  -0.67102  -0.65318  -0.65161
 Alpha  occ. eigenvalues --   -0.64884  -0.64649  -0.64636  -0.64530  -0.64293
 Alpha  occ. eigenvalues --   -0.64031  -0.62339  -0.62157  -0.60444  -0.60215
 Alpha  occ. eigenvalues --   -0.59832  -0.59685  -0.59013  -0.58857  -0.58529
 Alpha  occ. eigenvalues --   -0.58293  -0.57624  -0.57439  -0.57328  -0.57093
 Alpha  occ. eigenvalues --   -0.56328  -0.56076  -0.56019  -0.55780  -0.55523
 Alpha  occ. eigenvalues --   -0.55369  -0.55346  -0.55092  -0.54560  -0.54336
 Alpha  occ. eigenvalues --   -0.53926  -0.53809  -0.53312  -0.53231  -0.53100
 Alpha  occ. eigenvalues --   -0.53028  -0.52947  -0.52785  -0.52747  -0.52577
 Alpha  occ. eigenvalues --   -0.52464  -0.52191  -0.51943  -0.51728  -0.51634
 Alpha  occ. eigenvalues --   -0.51559  -0.51226  -0.51065  -0.50543  -0.50376
 Alpha  occ. eigenvalues --   -0.50046  -0.49916  -0.49869  -0.49705  -0.49524
 Alpha  occ. eigenvalues --   -0.49384  -0.49233  -0.49120  -0.49093  -0.48987
 Alpha  occ. eigenvalues --   -0.48624  -0.48480  -0.48445  -0.48437  -0.48239
 Alpha  occ. eigenvalues --   -0.48214  -0.47710  -0.47472  -0.47308  -0.46993
 Alpha  occ. eigenvalues --   -0.46823  -0.46583  -0.46566  -0.46444  -0.46383
 Alpha  occ. eigenvalues --   -0.46191  -0.46131  -0.45937  -0.45856  -0.45691
 Alpha  occ. eigenvalues --   -0.45219  -0.45053  -0.44607  -0.44511  -0.44404
 Alpha  occ. eigenvalues --   -0.44346  -0.44164  -0.44111  -0.44029  -0.44015
 Alpha  occ. eigenvalues --   -0.43931  -0.43835  -0.43529  -0.43430  -0.43410
 Alpha  occ. eigenvalues --   -0.43262  -0.43052  -0.42820  -0.42768  -0.42742
 Alpha  occ. eigenvalues --   -0.42685  -0.42389  -0.42040  -0.41809  -0.41730
 Alpha  occ. eigenvalues --   -0.41560  -0.41541  -0.41334  -0.41163  -0.40896
 Alpha  occ. eigenvalues --   -0.40864  -0.40805  -0.40626  -0.40594  -0.40575
 Alpha  occ. eigenvalues --   -0.40316  -0.40263  -0.40137  -0.39468  -0.39222
 Alpha  occ. eigenvalues --   -0.38491  -0.38183  -0.37782  -0.37550  -0.37343
 Alpha  occ. eigenvalues --   -0.37295  -0.37110  -0.37080  -0.36762  -0.36657
 Alpha  occ. eigenvalues --   -0.36229  -0.36070  -0.34315  -0.34121  -0.33833
 Alpha  occ. eigenvalues --   -0.33760  -0.33215  -0.33043  -0.31317  -0.31178
 Alpha  occ. eigenvalues --   -0.31058  -0.30845  -0.30062  -0.29838  -0.29462
 Alpha  occ. eigenvalues --   -0.29348  -0.29209  -0.29083  -0.24110  -0.23904
 Alpha  occ. eigenvalues --   -0.21152  -0.20985
 Alpha virt. eigenvalues --   -0.08793  -0.08666  -0.01771  -0.01551  -0.00059
 Alpha virt. eigenvalues --    0.00078   0.02174   0.02337   0.03000   0.03352
 Alpha virt. eigenvalues --    0.04687   0.04848   0.05039   0.05265   0.06139

 Mulliken charges:
               1
     1  Mg   0.837298
     2  C   -0.003359
     3  C   -0.093985
     4  C   -0.045732
     5  C   -0.064050
     6  N   -0.256833
     7  C   -0.052783
     8  C   -0.013892
     9  C   -0.087001
    10  C    0.046260
    11  C    0.104758
    12  C    0.053406
    13  C   -0.071823
    14  H    0.035886
    15  N   -0.433350
    16  C    0.168459
    17  C   -0.176797
    18  C   -0.003573
    19  C    0.148681
    20  C    0.110077
    21  C    0.012936
    22  O   -0.249219
    23  C    0.062151
    24  N   -0.341053
    25  C    0.041168
    26  C   -0.028297
    27  C   -0.023916
    28  C    0.074452
    29  C    0.076093
    30  C    0.035151
    31  C   -0.004557
    32  N   -0.310309
    33  C    0.079753
    34  C   -0.170177
    35  C    0.008282
    36  C    0.082272
    37  C    0.127413
    38  C    0.045663
    39  O   -0.188557
    40  C   -0.005148
    41  C    0.213117
    42  O   -0.258180
    43  O   -0.304559
    44  C    0.157712
    45  H   -0.017357
    46  H   -0.016418
    47  H   -0.041483
    48  H    0.001002
    49  H   -0.003879
    50  H    0.025532
    51  H    0.016561
    52  H    0.016818
    53  H    0.011189
    54  H    0.043404
    55  H    0.018074
    56  H    0.018217
    57  H    0.005809
    58  H    0.027005
    59  H    0.040531
    60  H    0.036999
    61  H    0.036363
    62  H    0.032731
    63  H    0.016879
    64  H    0.009619
    65  H    0.023529
    66  H    0.012599
    67  H    0.004850
    68  H    0.006839
    69  H    0.004758
    70  H    0.009502
    71  H    0.017780
    72  H    0.027814
    73  H    0.047231
    74  H    0.009098
    75  H    0.046188
    76  H    0.035347
    77  H    0.043223
    78  H    0.046527
    79  H    0.053258
    80  Mg   0.837626
    81  C   -0.017083
    82  C   -0.088103
    83  C   -0.045577
    84  C   -0.064563
    85  N   -0.254580
    86  C   -0.049844
    87  C   -0.015077
    88  C   -0.090477
    89  C    0.045684
    90  C    0.114482
    91  C    0.062573
    92  C   -0.077745
    93  H    0.034652
    94  N   -0.423377
    95  C    0.162776
    96  C   -0.175023
    97  C   -0.008121
    98  C    0.152076
    99  C    0.099525
   100  C    0.015340
   101  O   -0.253610
   102  C    0.061283
   103  N   -0.350123
   104  C    0.037546
   105  C   -0.020054
   106  C   -0.035642
   107  C    0.088653
   108  C    0.073509
   109  C    0.034972
   110  C   -0.007760
   111  N   -0.324178
   112  C    0.078486
   113  C   -0.162762
   114  C    0.002168
   115  C    0.096336
   116  C    0.131394
   117  C    0.042456
   118  O   -0.187911
   119  C    0.000907
   120  C    0.211217
   121  O   -0.251076
   122  O   -0.305650
   123  C    0.152091
   124  H   -0.020162
   125  H   -0.015935
   126  H   -0.038633
   127  H   -0.000800
   128  H   -0.004611
   129  H    0.022399
   130  H    0.014368
   131  H    0.015897
   132  H    0.013885
   133  H    0.037669
   134  H    0.020680
   135  H    0.019432
   136  H    0.008527
   137  H    0.025551
   138  H    0.039454
   139  H    0.037863
   140  H    0.035874
   141  H    0.033959
   142  H    0.014182
   143  H    0.015301
   144  H    0.024050
   145  H    0.010508
   146  H    0.008152
   147  H    0.007235
   148  H    0.005738
   149  H    0.010583
   150  H    0.017580
   151  H    0.029252
   152  H    0.045873
   153  H    0.009947
   154  H    0.047274
   155  H    0.034863
   156  H    0.043791
   157  H    0.049349
   158  H    0.053513
 Sum of Mulliken charges =  -0.00000

 Dipole moment (field-independent basis, Debye):
    X=              0.9949    Y=              6.2383    Z=             -5.3364  Tot=              8.2694
 Quadrupole moment (field-independent basis, Debye-Ang):
   XX=           -440.9642   YY=           -548.3879   ZZ=           -477.5142
   XY=            -29.1813   XZ=             10.4103   YZ=            -11.3994

 Normal termination of Gaussian 16 at Sat Sep 11 18:06:24 2021.
