 Gaussian 16, Revision A.03,
 Gaussian 16:  ES64L-G16RevA.03 25-Dec-2016

 -----------------------------------
 #p cam-b3lyp/Def2SVP td=(nstates=5)
 -----------------------------------

 --------------------------------
 TDDFT excited states in gaussian
 --------------------------------
 Symbolic Z-matrix:
 Charge =  0 Multiplicity = 1

                         Standard orientation:
 ---------------------------------------------------------------------
 Center     Atomic      Atomic             Coordinates (Angstroms)
 Number     Number       Type             X           Y           Z
 ---------------------------------------------------------------------
      1         12           0       -6.237202    0.775258   -0.225048
      2          6           0       -6.629099   -2.318965    1.531202
      3          6           0       -7.115959    2.356998    2.667866
      4          6           0       -6.340546    3.486571   -1.866609
      5          6           0       -6.505521   -1.041884   -3.186747
      6          7           0       -6.778915    0.007258    1.779290
      7          6           0       -6.832947   -1.197580    2.338411
      8          6           0       -7.052147   -1.153882    3.880298
      9          6           0       -7.742813    0.278467    3.995874
     10          6           0       -7.150975    0.933896    2.760534
     11          6           0       -9.260557    0.236554    3.850279
     12          6           0       -5.703535   -1.205350    4.674230
     13          6           0       -5.837736   -1.494966    6.172050
     14          1           0       -4.814788   -2.298332    6.824377
     15          7           0       -6.186450    2.650588    0.394154
     16          6           0       -6.566660    3.112706    1.609544
     17          6           0       -6.338427    4.573428    1.579845
     18          6           0       -5.973759    4.948732    0.185478
     19          6           0       -6.180546    3.698218   -0.499235
     20          6           0       -6.424460    5.444553    2.795366
     21          6           0       -5.522240    6.233546   -0.433808
     22          8           0       -5.482003    6.400746   -1.700694
     23          6           0       -5.208483    7.335360    0.493879
     24          7           0       -6.618645    1.206812   -2.231512
     25          6           0       -6.543168    2.459432   -2.694362
     26          6           0       -6.574226    2.490312   -4.193703
     27          6           0       -6.441750    0.971967   -4.669970
     28          6           0       -6.439625    0.288129   -3.280498
     29          6           0       -7.826093    3.115631   -4.824430
     30          6           0       -5.293310    0.641996   -5.656187
     31          6           0       -3.958867    0.810488   -4.964833
     32          7           0       -6.339938   -1.322717   -0.771849
     33          6           0       -6.471503   -1.851801   -2.063915
     34          6           0       -6.607185   -3.313008   -1.920625
     35          6           0       -6.561461   -3.532237   -0.545236
     36          6           0       -6.433377   -2.284464    0.129263
     37          6           0       -6.807933   -4.239354   -2.981765
     38          6           0       -6.615772   -4.528140    0.512631
     39          8           0       -6.624177   -5.759559    0.544714
     40          6           0       -6.784257   -3.772374    1.904126
     41          6           0       -5.788138   -4.361948    2.865093
     42          8           0       -4.562211   -4.205750    2.691682
     43          8           0       -6.431905   -4.808259    3.954548
     44          6           0       -5.497842   -5.379140    4.961412
     45          1           0       -7.604309    2.948691    3.444625
     46          1           0       -6.270729    4.388346   -2.478463
     47          1           0       -6.508314   -1.681781   -4.071042
     48          1           0       -7.722132   -1.922463    4.266080
     49          1           0       -7.429230    0.810182    4.894020
     50          1           0       -9.605851   -0.756159    3.561813
     51          1           0       -9.498577    0.963135    3.073156
     52          1           0       -9.746781    0.597465    4.756980
     53          1           0       -5.272973   -0.204907    4.716558
     54          1           0       -5.019974   -1.927964    4.227130
     55          1           0       -6.831878   -1.869170    6.418144
     56          1           0       -5.762905   -0.550232    6.710638
     57          1           0       -6.872252    4.916006    3.636000
     58          1           0       -7.132530    6.240891    2.566911
     59          1           0       -5.459010    5.875892    3.060291
     60          1           0       -6.091085    7.565338    1.091100
     61          1           0       -4.817598    8.144708   -0.121763
     62          1           0       -4.443165    6.999990    1.194424
     63          1           0       -5.737249    3.063447   -4.590455
     64          1           0       -7.339559    0.623876   -5.181287
     65          1           0       -7.609578    3.947890   -5.494632
     66          1           0       -8.490712    3.425305   -4.018407
     67          1           0       -8.459451    2.417812   -5.371534
     68          1           0       -5.307283    1.332174   -6.499042
     69          1           0       -5.346925   -0.370731   -6.055886
     70          1           0       -3.769944    1.879390   -5.057502
     71          1           0       -3.189309    0.232146   -5.477193
     72          1           0       -4.030175    0.583220   -3.900995
     73          1           0       -6.153039   -5.085879   -2.775660
     74          1           0       -6.581583   -3.789524   -3.948212
     75          1           0       -7.868856   -4.457837   -2.861083
     76          1           0       -7.811676   -3.936446    2.227566
     77          1           0       -5.830903   -6.396348    5.167790
     78          1           0       -5.472590   -4.676215    5.794276
     79          1           0       -4.477175   -5.561413    4.623250
     80         12           0        6.964966    0.166083    0.125677
     81          6           0        4.483995   -1.864135   -1.487414
     82          6           0        5.065245    2.877302   -0.695873
     83          6           0        9.339760    2.011803    1.136182
     84          6           0        9.166773   -2.516586   -0.192228
     85          7           0        5.042844    0.354096   -0.952446
     86          6           0        4.161514   -0.491196   -1.465365
     87          6           0        2.826497    0.163431   -1.911190
     88          6           0        3.358604    1.660718   -2.143289
     89          6           0        4.543780    1.651005   -1.179995
     90          6           0        3.886682    1.900793   -3.547864
     91          6           0        1.730928    0.110634   -0.789160
     92          6           0        0.314222    0.450755   -1.257152
     93          1           0       -0.808733   -0.256067   -0.647357
     94          7           0        6.970652    2.080833    0.647459
     95          6           0        6.112481    3.038425    0.237771
     96          6           0        6.554609    4.280702    0.890015
     97          6           0        7.841399    4.011947    1.587617
     98          6           0        8.117091    2.667133    1.123321
     99          6           0        5.737640    5.540026    0.880550
    100          6           0        8.690595    4.834514    2.508724
    101          8           0        9.888247    4.489751    2.808056
    102          6           0        8.112385    6.103009    2.975700
    103          7           0        9.021362   -0.118031    0.239080
    104          6           0        9.821353    0.824480    0.767882
    105          6           0       11.215356    0.290925    0.996968
    106          6           0       11.120925   -1.283980    0.735576
    107          6           0        9.643854   -1.379169    0.294439
    108          6           0       12.309954    0.888513    0.113158
    109          6           0       11.613573   -2.217326    1.875246
    110          6           0       10.693513   -2.103760    3.069379
    111          7           0        6.826010   -1.892654   -0.514919
    112          6           0        7.875549   -2.834102   -0.593854
    113          6           0        7.314637   -4.062147   -1.193604
    114          6           0        5.972572   -3.739589   -1.445185
    115          6           0        5.720259   -2.398066   -1.050037
    116          6           0        8.038710   -5.253694   -1.480069
    117          6           0        4.714601   -4.225438   -1.964973
    118          8           0        4.300900   -5.314222   -2.361368
    119          6           0        3.726594   -2.991633   -2.132161
    120          6           0        2.399661   -3.375137   -1.536586
    121          8           0        2.292328   -3.586946   -0.315839
    122          8           0        1.438055   -3.216896   -2.464298
    123          6           0        0.101932   -3.574293   -1.917603
    124          1           0        4.663871    3.807220   -1.099645
    125          1           0       10.168642    2.568836    1.579056
    126          1           0        9.764364   -3.429706   -0.234433
    127          1           0        2.412308   -0.230805   -2.831403
    128          1           0        2.620203    2.395018   -1.831955
    129          1           0        3.926197    0.988791   -4.124787
    130          1           0        4.879583    2.312471   -3.422473
    131          1           0        3.298550    2.678172   -4.043963
    132          1           0        1.899381    0.935691   -0.085136
    133          1           0        1.730775   -0.844747   -0.301459
    134          1           0        0.227410    0.439416   -2.350438
    135          1           0        0.096852    1.485605   -0.981759
    136          1           0        4.920693    5.484054    0.150566
    137          1           0        6.385313    6.338517    0.502660
    138          1           0        5.378597    5.816668    1.874143
    139          1           0        7.872770    6.727864    2.118605
    140          1           0        8.830258    6.504714    3.693444
    141          1           0        7.165508    5.889700    3.484181
    142          1           0       11.530646    0.459175    2.019412
    143          1           0       11.727545   -1.590569   -0.129204
    144          1           0       13.137390    1.342820    0.690248
    145          1           0       11.857421    1.620112   -0.542962
    146          1           0       12.763821    0.194770   -0.592481
    147          1           0       12.604540   -1.907909    2.216421
    148          1           0       11.685282   -3.258806    1.580002
    149          1           0       11.067919   -1.214778    3.585736
    150          1           0       10.771727   -2.988003    3.698700
    151          1           0        9.664653   -1.893489    2.754908
    152          1           0        7.415879   -6.080033   -1.164248
    153          1           0        9.001954   -5.264889   -0.974300
    154          1           0        8.145384   -5.161230   -2.564198
    155          1           0        3.649654   -2.775711   -3.198475
    156          1           0       -0.321117   -4.335682   -2.580175
    157          1           0       -0.450141   -2.619670   -1.830099
    158          1           0        0.071552   -4.084854   -0.962171
 ---------------------------------------------------------------------

 SCF Done:  E(RCAM-B3LYP) =  -4069.81188952     A.U. after   19 cycles

 Excitation energies and oscillator strengths:

 Excited State   1:      Singlet-A      1.6636 eV  745.29 nm  f=0.0062  <S**2>=0.000
     309 -> 315       -0.11386
     310 -> 316        0.12677
     311 -> 313       -0.45739
     312 -> 314        0.51230
 This state for optimization and/or second-order correction.
 Total Energy, E(TD-HF/TD-DFT) =  -4069.75075452
 Copying the excited state density for this state as the 1-particle RhoCI density.

 Excited State   2:      Singlet-A      1.6902 eV  733.54 nm  f=0.7299  <S**2>=0.000
     309 -> 315        0.13253
     310 -> 316        0.11778
     311 -> 313        0.51094
     312 -> 314        0.45629

 Excited State   3:      Singlet-A      2.1846 eV  567.55 nm  f=0.0993  <S**2>=0.000
     309 -> 313        0.10543
     310 -> 314        0.63416
     312 -> 316       -0.26828

 Excited State   4:      Singlet-A      2.1921 eV  565.60 nm  f=0.1022  <S**2>=0.000
     309 -> 313        0.63219
     310 -> 314       -0.10453
     311 -> 315       -0.27386

 Excited State   5:      Singlet-A      2.6009 eV  476.70 nm  f=0.0000  <S**2>=0.000
     312 -> 313        0.70681

 The electronic state is 1-A.
 Alpha  occ. eigenvalues --  -46.87974 -46.87514 -19.26298 -19.25921 -19.19057
 Alpha  occ. eigenvalues --  -19.19022 -19.18776 -19.18605 -19.18292 -19.17853
 Alpha  occ. eigenvalues --  -14.42610 -14.42346 -14.41623 -14.41216 -14.39579
 Alpha  occ. eigenvalues --  -14.39209 -14.38763 -14.38448 -10.39123 -10.38723
 Alpha  occ. eigenvalues --  -10.35656 -10.35286 -10.34509 -10.34023 -10.31640
 Alpha  occ. eigenvalues --  -10.31552 -10.31177 -10.31143 -10.31056 -10.30862
 Alpha  occ. eigenvalues --  -10.30733 -10.30685 -10.30389 -10.30252 -10.30203
 Alpha  occ. eigenvalues --  -10.30097 -10.30017 -10.29806 -10.29752 -10.29432
 Alpha  occ. eigenvalues --  -10.29304 -10.29256 -10.28844 -10.28559 -10.28529
 Alpha  occ. eigenvalues --  -10.28521 -10.28393 -10.28248 -10.28224 -10.27960
 Alpha  occ. eigenvalues --  -10.27958 -10.27885 -10.27853 -10.27762 -10.27693
 Alpha  occ. eigenvalues --  -10.27650 -10.27640 -10.27556 -10.27522 -10.27409
 Alpha  occ. eigenvalues --  -10.27361 -10.27327 -10.27318 -10.27265 -10.27259
 Alpha  occ. eigenvalues --  -10.26811 -10.26765 -10.26633 -10.26451 -10.26406
 Alpha  occ. eigenvalues --  -10.26340 -10.26332 -10.26195 -10.26040 -10.25991
 Alpha  occ. eigenvalues --  -10.25866 -10.25797 -10.25710 -10.25604 -10.25301
 Alpha  occ. eigenvalues --  -10.24996 -10.24968 -10.24963 -10.24717 -10.24634
 Alpha  occ. eigenvalues --  -10.24547  -3.16717  -3.16264  -1.91599  -1.91185
 Alpha  occ. eigenvalues --   -1.91146  -1.91027  -1.90734  -1.90571  -1.16652
 Alpha  occ. eigenvalues --   -1.16227  -1.08742  -1.08444  -1.07426  -1.06860
 Alpha  occ. eigenvalues --   -1.06679  -1.06563  -1.04737  -1.04339  -1.03931
 Alpha  occ. eigenvalues --   -1.03516  -1.03409  -1.02896  -1.02583  -1.01964
 Alpha  occ. eigenvalues --   -0.92116  -0.91807  -0.89705  -0.89358  -0.89296
 Alpha  occ. eigenvalues --   -0.88967  -0.88471  -0.88094  -0.88030  -0.87822
 Alpha  occ. eigenvalues --   -0.87644  -0.87526  -0.87456  -0.86998  -0.85102
 Alpha  occ. eigenvalues --   -0.84818  -0.84122  -0.83740  -0.83164  -0.82820
 Alpha  occ. eigenvalues --   -0.82777  -0.82471  -0.81680  -0.81321  -0.80728
 Alpha  occ. eigenvalues --   -0.80216  -0.78968  -0.78500  -0.77375  -0.77043
 Alpha  occ. eigenvalues --   -0.76986  -0.76682  -0.76032  -0.75614  -0.75058
 Alpha  occ. eigenvalues --   -0.74642  -0.72937  -0.72551  -0.71818  -0.71414
 Alpha  occ. eigenvalues --   -0.70112  -0.69638  -0.69004  -0.68649  -0.67799
 Alpha  occ. eigenvalues --   -0.67435  -0.67338  -0.67019  -0.65405  -0.65074
 Alpha  occ. eigenvalues --   -0.64996  -0.64752  -0.64602  -0.64446  -0.64425
 Alpha  occ. eigenvalues --   -0.64054  -0.62381  -0.61973  -0.60624  -0.60212
 Alpha  occ. eigenvalues --   -0.59932  -0.59624  -0.59142  -0.58828  -0.58654
 Alpha  occ. eigenvalues --   -0.58247  -0.57696  -0.57460  -0.57310  -0.57071
 Alpha  occ. eigenvalues --   -0.56465  -0.56048  -0.56043  -0.55678  -0.55598
 Alpha  occ. eigenvalues --   -0.55488  -0.55256  -0.55054  -0.54644  -0.54253
 Alpha  occ. eigenvalues --   -0.54004  -0.53722  -0.53465  -0.53357  -0.53070
 Alpha  occ. eigenvalues --   -0.53040  -0.52954  -0.52911  -0.52671  -0.52639
 Alpha  occ. eigenvalues --   -0.52530  -0.52273  -0.52068  -0.51735  -0.51726
 Alpha  occ. eigenvalues --   -0.51466  -0.51335  -0.51007  -0.50764  -0.50368
 Alpha  occ. eigenvalues --   -0.50218  -0.50086  -0.49836  -0.49743  -0.49651
 Alpha  occ. eigenvalues --   -0.49355  -0.49333  -0.49207  -0.49015  -0.48922
 Alpha  occ. eigenvalues --   -0.48711  -0.48641  -0.48587  -0.48342  -0.48242
 Alpha  occ. eigenvalues --   -0.48171  -0.47840  -0.47448  -0.47419  -0.46957
 Alpha  occ. eigenvalues --   -0.46955  -0.46666  -0.46549  -0.46521  -0.46369
 Alpha  occ. eigenvalues --   -0.46305  -0.46115  -0.45930  -0.45893  -0.45590
 Alpha  occ. eigenvalues --   -0.45375  -0.45069  -0.44703  -0.44674  -0.44322
 Alpha  occ. eigenvalues --   -0.44320  -0.44305  -0.44206  -0.44151  -0.43963
 Alpha  occ. eigenvalues --   -0.43922  -0.43756  -0.43599  -0.43530  -0.43296
 Alpha  occ. eigenvalues --   -0.43176  -0.43172  -0.42877  -0.42744  -0.42717
 Alpha  occ. eigenvalues --   -0.42543  -0.42425  -0.42174  -0.41848  -0.41807
 Alpha  occ. eigenvalues --   -0.41652  -0.41489  -0.41284  -0.41280  -0.41021
 Alpha  occ. eigenvalues --   -0.40998  -0.40829  -0.40734  -0.40586  -0.40537
 Alpha  occ. eigenvalues --   -0.40346  -0.40321  -0.40026  -0.39657  -0.39311
 Alpha  occ. eigenvalues --   -0.38640  -0.38216  -0.37852  -0.37494  -0.37448
 Alpha  occ. eigenvalues --   -0.37381  -0.37123  -0.37013  -0.36802  -0.36462
 Alpha  occ. eigenvalues --   -0.36303  -0.35988  -0.34451  -0.34097  -0.33835
 Alpha  occ. eigenvalues --   -0.33522  -0.33343  -0.33009  -0.31550  -0.31195
 Alpha  occ. eigenvalues --   -0.31162  -0.30815  -0.30148  -0.29750  -0.29628
 Alpha  occ. eigenvalues --   -0.29491  -0.29190  -0.29058  -0.24245  -0.23882
 Alpha  occ. eigenvalues --   -0.21297  -0.20972
 Alpha virt. eigenvalues --   -0.08944  -0.08645  -0.01925  -0.01543  -0.00232
 Alpha virt. eigenvalues --    0.00110   0.02040   0.02337   0.02499   0.03378
 Alpha virt. eigenvalues --    0.04583   0.04985   0.05045   0.05507   0.06078

 Mulliken charges:
               1
     1  Mg   0.836246
     2  C   -0.002585
     3  C   -0.093706
     4  C   -0.046449
     5  C   -0.064390
     6  N   -0.256819
     7  C   -0.052214
     8  C   -0.013960
     9  C   -0.087019
    10  C    0.046334
    11  C    0.104725
    12  C    0.053307
    13  C   -0.072352
    14  H    0.037810
    15  N   -0.433212
    16  C    0.168197
    17  C   -0.177071
    18  C   -0.004417
    19  C    0.148544
    20  C    0.110076
    21  C    0.011449
    22  O   -0.250102
    23  C    0.062764
    24  N   -0.341077
    25  C    0.041300
    26  C   -0.028176
    27  C   -0.023939
    28  C    0.074622
    29  C    0.076071
    30  C    0.035234
    31  C   -0.005052
    32  N   -0.310411
    33  C    0.079730
    34  C   -0.170905
    35  C    0.008396
    36  C    0.082031
    37  C    0.127422
    38  C    0.045903
    39  O   -0.187145
    40  C   -0.005226
    41  C    0.213113
    42  O   -0.256773
    43  O   -0.304974
    44  C    0.157049
    45  H   -0.017187
    46  H   -0.017143
    47  H   -0.041376
    48  H    0.001434
    49  H   -0.003686
    50  H    0.025731
    51  H    0.016298
    52  H    0.017051
    53  H    0.010980
    54  H    0.044753
    55  H    0.017907
    56  H    0.017865
    57  H    0.006369
    58  H    0.027071
    59  H    0.039162
    60  H    0.037995
    61  H    0.035188
    62  H    0.030718
    63  H    0.015764
    64  H    0.010044
    65  H    0.023167
    66  H    0.012889
    67  H    0.005180
    68  H    0.006654
    69  H    0.005379
    70  H    0.007842
    71  H    0.017828
    72  H    0.028634
    73  H    0.047483
    74  H    0.009127
    75  H    0.046750
    76  H    0.035624
    77  H    0.043453
    78  H    0.046454
    79  H    0.055258
    80  Mg   0.837604
    81  C   -0.016185
    82  C   -0.087888
    83  C   -0.045799
    84  C   -0.065303
    85  N   -0.254469
    86  C   -0.049784
    87  C   -0.014829
    88  C   -0.090448
    89  C    0.045637
    90  C    0.114366
    91  C    0.062669
    92  C   -0.080474
    93  H    0.039113
    94  N   -0.423389
    95  C    0.162678
    96  C   -0.174897
    97  C   -0.008210
    98  C    0.152009
    99  C    0.099442
   100  C    0.015285
   101  O   -0.253593
   102  C    0.061346
   103  N   -0.350141
   104  C    0.037399
   105  C   -0.019685
   106  C   -0.034834
   107  C    0.089104
   108  C    0.073788
   109  C    0.034813
   110  C   -0.007632
   111  N   -0.324225
   112  C    0.078719
   113  C   -0.163232
   114  C    0.002515
   115  C    0.096254
   116  C    0.131450
   117  C    0.042577
   118  O   -0.186912
   119  C    0.001027
   120  C    0.211414
   121  O   -0.249807
   122  O   -0.307150
   123  C    0.150715
   124  H   -0.019753
   125  H   -0.016027
   126  H   -0.040692
   127  H   -0.000607
   128  H   -0.004061
   129  H    0.022183
   130  H    0.014036
   131  H    0.016313
   132  H    0.013126
   133  H    0.039470
   134  H    0.020836
   135  H    0.019011
   136  H    0.008800
   137  H    0.025795
   138  H    0.038947
   139  H    0.038122
   140  H    0.035899
   141  H    0.033479
   142  H    0.014107
   143  H    0.012217
   144  H    0.024786
   145  H    0.011572
   146  H    0.005433
   147  H    0.005943
   148  H    0.003597
   149  H    0.010698
   150  H    0.017772
   151  H    0.030387
   152  H    0.046394
   153  H    0.008228
   154  H    0.046745
   155  H    0.034426
   156  H    0.043810
   157  H    0.050086
   158  H    0.058874
 Sum of Mulliken charges =  -0.00000

 Dipole moment (field-independent basis, Debye):
    X=             -3.0861    Y=              7.1417    Z=              1.4229  Tot=              7.9090
 Quadrupole moment (field-independent basis, Debye-Ang):
   XX=           -481.6389   YY=           -545.5181   ZZ=           -474.8166
   XY=            -25.0751   XZ=            -26.3859   YZ=              4.5636

 Normal termination of Gaussian 16 at Sat Sep 11 10:17:19 2021.
