 Gaussian 16, Revision A.03,
 Gaussian 16:  ES64L-G16RevA.03 25-Dec-2016

 -----------------------------------
 #p cam-b3lyp/Def2SVP td=(nstates=5)
 -----------------------------------

 --------------------------------
 TDDFT excited states in gaussian
 --------------------------------
 Symbolic Z-matrix:
 Charge =  0 Multiplicity = 1

                         Standard orientation:
 ---------------------------------------------------------------------
 Center     Atomic      Atomic             Coordinates (Angstroms)
 Number     Number       Type             X           Y           Z
 ---------------------------------------------------------------------
      1         12           0        6.444361   -1.075909   -0.008954
      2          6           0        7.211017    2.368295   -0.610544
      3          6           0        7.462956   -0.586171    3.210624
      4          6           0        6.207232   -4.207953    0.427727
      5          6           0        6.575965   -1.554902   -3.458434
      6          7           0        7.216228    0.710300    1.046662
      7          6           0        7.405693    1.984404    0.718130
      8          6           0        7.758021    2.890539    1.935569
      9          6           0        8.352410    1.779601    2.912563
     10          6           0        7.607434    0.566875    2.383193
     11          6           0        9.850203    1.551511    2.736235
     12          6           0        6.492798    3.577354    2.551381
     13          6           0        6.780501    4.722820    3.526312
     14          1           0        5.879749    5.865380    3.549742
     15          7           0        6.315588   -2.131208    1.656162
     16          6           0        6.768900   -1.770372    2.880740
     17          6           0        6.435412   -2.891523    3.785443
     18          6           0        5.921881   -4.012734    2.950419
     19          6           0        6.155292   -3.498341    1.625165
     20          6           0        6.567338   -2.813629    5.275503
     21          6           0        5.326461   -5.341866    3.292495
     22          8           0        5.161450   -6.258847    2.417001
     23          6           0        5.019073   -5.577523    4.714825
     24          7           0        6.613393   -2.706659   -1.301129
     25          6           0        6.407815   -3.955059   -0.867285
     26          6           0        6.302590   -4.920109   -2.010765
     27          6           0        6.236658   -4.030647   -3.335251
     28          6           0        6.407348   -2.633292   -2.689856
     29          6           0        7.445379   -5.937213   -2.135436
     30          6           0        5.031191   -4.264459   -4.280026
     31          6           0        3.755210   -3.813245   -3.605212
     32          7           0        6.647110    0.190808   -1.759773
     33          6           0        6.700148   -0.223388   -3.098542
     34          6           0        6.951867    0.979511   -3.913244
     35          6           0        7.044876    2.014127   -2.984393
     36          6           0        6.888937    1.486678   -1.670706
     37          6           0        7.122565    1.008809   -5.325489
     38          6           0        7.264262    3.438781   -2.794425
     39          8           0        7.363233    4.408878   -3.547161
     40          6           0        7.502034    3.706619   -1.242796
     41          6           0        6.640257    4.874117   -0.845810
     42          8           0        5.395741    4.781862   -0.851728
     43          8           0        7.408895    5.828312   -0.298772
     44          6           0        6.611535    7.003154    0.144079
     45          1           0        7.975300   -0.611804    4.174360
     46          1           0        6.018975   -5.279234    0.524443
     47          1           0        6.545382   -1.614117   -4.547934
     48          1           0        8.512838    3.650582    1.733063
     49          1           0        8.083185    1.965710    3.952084
     50          1           0       10.238224    2.099185    1.877506
     51          1           0        9.965496    0.477803    2.586735
     52          1           0       10.388485    1.785609    3.655054
     53          1           0        5.997538    2.879287    3.226275
     54          1           0        5.825286    3.932059    1.765291
     55          1           0        7.816776    5.054759    3.456595
     56          1           0        6.686926    4.338446    4.542039
     57          1           0        7.124926   -1.929675    5.582529
     58          1           0        7.193623   -3.650516    5.583880
     59          1           0        5.601126   -2.873285    5.776709
     60          1           0        5.932834   -5.480110    5.301426
     61          1           0        4.518098   -6.543961    4.758084
     62          1           0        4.345218   -4.794970    5.064795
     63          1           0        5.394823   -5.517442   -1.936077
     64          1           0        7.107740   -4.181831   -3.973243
     65          1           0        7.111129   -6.974930   -2.124256
     66          1           0        8.155550   -5.746425   -1.331353
     67          1           0        8.075469   -5.811185   -3.015505
     68          1           0        4.920629   -5.326161   -4.497996
     69          1           0        5.120936   -3.738345   -5.230500
     70          1           0        3.483075   -4.675583   -2.997636
     71          1           0        2.986156   -3.601174   -4.348713
     72          1           0        3.937239   -2.980336   -2.925789
     73          1           0        6.550689    1.864539   -5.684172
     74          1           0        6.779345    0.082241   -5.785134
     75          1           0        8.202888    1.134601   -5.395742
     76          1           0        8.563299    3.920943   -1.120713
     77          1           0        7.033333    7.880601   -0.346235
     78          1           0        6.610722    6.984036    1.234051
     79          1           0        5.580344    7.046336   -0.208229
     80         12           0       -6.613111    1.085809    0.187166
     81          6           0       -6.997571   -2.476803   -0.010396
     82          6           0       -5.784767    1.029988   -3.121198
     83          6           0       -5.830559    4.150844    0.433386
     84          6           0       -6.347879    0.726128    3.643468
     85          7           0       -6.448241   -0.570786   -1.269113
     86          6           0       -6.678063   -1.874998   -1.245374
     87          6           0       -6.637457   -2.560690   -2.637405
     88          6           0       -5.703468   -1.500448   -3.400567
     89          6           0       -6.019278   -0.256286   -2.572922
     90          6           0       -4.219581   -1.799439   -3.266282
     91          6           0       -8.057292   -2.655811   -3.298499
     92          6           0       -8.140684   -3.584164   -4.512146
     93          1           0       -9.367129   -4.348962   -4.720468
     94          7           0       -6.389116    2.470835   -1.216438
     95          6           0       -6.074608    2.271400   -2.513581
     96          6           0       -6.009053    3.609220   -3.121946
     97          6           0       -6.148374    4.623161   -2.041563
     98          6           0       -6.106313    3.769136   -0.871536
     99          6           0       -5.909467    3.825097   -4.604139
    100          6           0       -6.282718    6.115770   -2.058125
    101          8           0       -6.151052    6.815548   -0.992386
    102          6           0       -6.480116    6.741676   -3.373712
    103          7           0       -5.944473    2.247005    1.776790
    104          6           0       -5.728562    3.565648    1.626895
    105          6           0       -5.520675    4.239618    2.962162
    106          6           0       -5.883465    3.136202    4.061455
    107          6           0       -6.164730    1.935523    3.131594
    108          6           0       -4.113592    4.775847    3.224771
    109          6           0       -6.955977    3.520618    5.117209
    110          6           0       -8.305490    3.667820    4.451987
    111          7           0       -6.842774   -0.528061    1.605171
    112          6           0       -6.661091   -0.466605    3.004207
    113          6           0       -6.815602   -1.840752    3.524072
    114          6           0       -7.055563   -2.616093    2.379635
    115          6           0       -7.030883   -1.787057    1.225690
    116          6           0       -6.682186   -2.235123    4.885243
    117          6           0       -7.313587   -3.949032    1.884255
    118          8           0       -7.529236   -5.042685    2.404988
    119          6           0       -7.161989   -3.938291    0.302072
    120          6           0       -8.350542   -4.650511   -0.283267
    121          8           0       -9.493938   -4.176542   -0.162451
    122          8           0       -7.919743   -5.652865   -1.070712
    123          6           0       -9.062079   -6.382238   -1.682994
    124          1           0       -5.293320    1.098385   -4.092130
    125          1           0       -5.663224    5.219472    0.586691
    126          1           0       -6.376682    0.546222    4.720256
    127          1           0       -6.173945   -3.539878   -2.648093
    128          1           0       -6.021366   -1.363794   -4.430924
    129          1           0       -4.032734   -2.611132   -2.578991
    130          1           0       -3.766927   -0.885526   -2.904461
    131          1           0       -3.781432   -1.983283   -4.251451
    132          1           0       -8.293722   -1.697425   -3.778444
    133          1           0       -8.796290   -2.939911   -2.574767
    134          1           0       -7.262618   -4.236354   -4.593340
    135          1           0       -8.106461   -2.974551   -5.418360
    136          1           0       -5.657955    2.895781   -5.129986
    137          1           0       -5.045415    4.476294   -4.775087
    138          1           0       -6.799200    4.301732   -5.021095
    139          1           0       -5.645230    6.488719   -4.022899
    140          1           0       -6.643717    7.801926   -3.171314
    141          1           0       -7.377576    6.313315   -3.833816
    142          1           0       -6.189399    5.083768    3.077554
    143          1           0       -5.008490    2.864210    4.669961
    144          1           0       -4.095000    5.857358    3.457289
    145          1           0       -3.499958    4.562291    2.359675
    146          1           0       -3.569740    4.274095    4.023309
    147          1           0       -6.720624    4.491572    5.559931
    148          1           0       -7.036857    2.807010    5.930357
    149          1           0       -8.275926    4.687666    4.056875
    150          1           0       -9.106078    3.549387    5.179364
    151          1           0       -8.400054    2.986302    3.598618
    152          1           0       -7.493289   -2.920680    5.091699
    153          1           0       -6.707204   -1.375993    5.552371
    154          1           0       -5.694958   -2.703974    4.856602
    155          1           0       -6.224125   -4.439392    0.059424
    156          1           0       -8.945238   -7.437962   -1.419422
    157          1           0       -9.037946   -6.126013   -2.758881
    158          1           0      -10.053335   -6.176196   -1.296439
 ---------------------------------------------------------------------

 SCF Done:  E(RCAM-B3LYP) =  -4069.81179735     A.U. after   19 cycles

 Excitation energies and oscillator strengths:

 Excited State   1:      Singlet-A      1.6660 eV  744.21 nm  f=0.0193  <S**2>=0.000
     309 -> 315        0.10948
     310 -> 316        0.13211
     311 -> 313        0.43677
     312 -> 314        0.52976
 This state for optimization and/or second-order correction.
 Total Energy, E(TD-HF/TD-DFT) =  -4069.75057387
 Copying the excited state density for this state as the 1-particle RhoCI density.

 Excited State   2:      Singlet-A      1.6895 eV  733.85 nm  f=0.7231  <S**2>=0.000
     309 -> 315        0.13736
     310 -> 316       -0.11277
     311 -> 313        0.52860
     312 -> 314       -0.43589

 Excited State   3:      Singlet-A      2.1856 eV  567.27 nm  f=0.0413  <S**2>=0.000
     309 -> 313        0.20357
     310 -> 314        0.61008
     312 -> 316       -0.25828

 Excited State   4:      Singlet-A      2.1938 eV  565.16 nm  f=0.1480  <S**2>=0.000
     309 -> 313        0.60761
     310 -> 314       -0.20186
     311 -> 315       -0.26479

 Excited State   5:      Singlet-A      2.6501 eV  467.85 nm  f=0.0000  <S**2>=0.000
     312 -> 313        0.70710

 The electronic state is 1-A.
 Alpha  occ. eigenvalues --  -46.87853 -46.87552 -19.26324 -19.26271 -19.19079
 Alpha  occ. eigenvalues --  -19.19065 -19.18842 -19.18589 -19.18225 -19.17955
 Alpha  occ. eigenvalues --  -14.42504 -14.42388 -14.41508 -14.41254 -14.39456
 Alpha  occ. eigenvalues --  -14.39240 -14.38645 -14.38495 -10.39125 -10.39007
 Alpha  occ. eigenvalues --  -10.35473 -10.35265 -10.34445 -10.34133 -10.31709
 Alpha  occ. eigenvalues --  -10.31687 -10.31462 -10.31205 -10.30955 -10.30908
 Alpha  occ. eigenvalues --  -10.30629 -10.30565 -10.30293 -10.30264 -10.30258
 Alpha  occ. eigenvalues --  -10.30032 -10.29984 -10.29796 -10.29685 -10.29322
 Alpha  occ. eigenvalues --  -10.29307 -10.29294 -10.28792 -10.28615 -10.28574
 Alpha  occ. eigenvalues --  -10.28572 -10.28416 -10.28293 -10.28161 -10.28030
 Alpha  occ. eigenvalues --  -10.27893 -10.27848 -10.27781 -10.27634 -10.27578
 Alpha  occ. eigenvalues --  -10.27555 -10.27517 -10.27515 -10.27456 -10.27435
 Alpha  occ. eigenvalues --  -10.27377 -10.27353 -10.27322 -10.27283 -10.27208
 Alpha  occ. eigenvalues --  -10.26954 -10.26745 -10.26601 -10.26412 -10.26290
 Alpha  occ. eigenvalues --  -10.26275 -10.26275 -10.26083 -10.26077 -10.25925
 Alpha  occ. eigenvalues --  -10.25898 -10.25836 -10.25784 -10.25493 -10.25291
 Alpha  occ. eigenvalues --  -10.24889 -10.24843 -10.24816 -10.24768 -10.24670
 Alpha  occ. eigenvalues --  -10.24581  -3.16596  -3.16302  -1.91478  -1.91184
 Alpha  occ. eigenvalues --   -1.91064  -1.90906  -1.90773  -1.90610  -1.16674
 Alpha  occ. eigenvalues --   -1.16564  -1.08683  -1.08564  -1.07241  -1.06864
 Alpha  occ. eigenvalues --   -1.06840  -1.06687  -1.04634  -1.04386  -1.03817
 Alpha  occ. eigenvalues --   -1.03555  -1.03290  -1.02933  -1.02468  -1.02005
 Alpha  occ. eigenvalues --   -0.92026  -0.91883  -0.89591  -0.89401  -0.89234
 Alpha  occ. eigenvalues --   -0.89046  -0.88356  -0.88127  -0.87934  -0.87726
 Alpha  occ. eigenvalues --   -0.87701  -0.87578  -0.87314  -0.86996  -0.85029
 Alpha  occ. eigenvalues --   -0.84896  -0.84011  -0.83787  -0.83005  -0.82813
 Alpha  occ. eigenvalues --   -0.82692  -0.82544  -0.81635  -0.81506  -0.80645
 Alpha  occ. eigenvalues --   -0.80342  -0.78845  -0.78523  -0.77277  -0.77043
 Alpha  occ. eigenvalues --   -0.76986  -0.76804  -0.75972  -0.75736  -0.74960
 Alpha  occ. eigenvalues --   -0.74704  -0.72834  -0.72597  -0.71725  -0.71475
 Alpha  occ. eigenvalues --   -0.69992  -0.69675  -0.68920  -0.68724  -0.67692
 Alpha  occ. eigenvalues --   -0.67497  -0.67259  -0.67095  -0.65336  -0.65171
 Alpha  occ. eigenvalues --   -0.64909  -0.64675  -0.64671  -0.64556  -0.64337
 Alpha  occ. eigenvalues --   -0.64111  -0.62347  -0.62189  -0.60489  -0.60225
 Alpha  occ. eigenvalues --   -0.59853  -0.59691  -0.59044  -0.58891  -0.58559
 Alpha  occ. eigenvalues --   -0.58324  -0.57636  -0.57461  -0.57365  -0.57135
 Alpha  occ. eigenvalues --   -0.56362  -0.56102  -0.56022  -0.55794  -0.55564
 Alpha  occ. eigenvalues --   -0.55404  -0.55345  -0.55158  -0.54584  -0.54401
 Alpha  occ. eigenvalues --   -0.53940  -0.53808  -0.53351  -0.53263  -0.53126
 Alpha  occ. eigenvalues --   -0.53036  -0.52967  -0.52804  -0.52792  -0.52543
 Alpha  occ. eigenvalues --   -0.52527  -0.52326  -0.51984  -0.51804  -0.51658
 Alpha  occ. eigenvalues --   -0.51552  -0.51256  -0.51107  -0.50603  -0.50348
 Alpha  occ. eigenvalues --   -0.50101  -0.49958  -0.49868  -0.49765  -0.49556
 Alpha  occ. eigenvalues --   -0.49376  -0.49264  -0.49143  -0.49095  -0.49004
 Alpha  occ. eigenvalues --   -0.48645  -0.48519  -0.48483  -0.48459  -0.48281
 Alpha  occ. eigenvalues --   -0.48221  -0.47744  -0.47488  -0.47345  -0.47006
 Alpha  occ. eigenvalues --   -0.46858  -0.46612  -0.46599  -0.46450  -0.46417
 Alpha  occ. eigenvalues --   -0.46222  -0.46167  -0.45992  -0.45879  -0.45735
 Alpha  occ. eigenvalues --   -0.45264  -0.45106  -0.44634  -0.44553  -0.44420
 Alpha  occ. eigenvalues --   -0.44373  -0.44206  -0.44135  -0.44063  -0.44024
 Alpha  occ. eigenvalues --   -0.43979  -0.43827  -0.43547  -0.43466  -0.43439
 Alpha  occ. eigenvalues --   -0.43284  -0.43083  -0.42841  -0.42806  -0.42759
 Alpha  occ. eigenvalues --   -0.42718  -0.42457  -0.42079  -0.41875  -0.41759
 Alpha  occ. eigenvalues --   -0.41582  -0.41569  -0.41361  -0.41192  -0.40926
 Alpha  occ. eigenvalues --   -0.40883  -0.40854  -0.40638  -0.40618  -0.40588
 Alpha  occ. eigenvalues --   -0.40401  -0.40273  -0.40126  -0.39532  -0.39346
 Alpha  occ. eigenvalues --   -0.38535  -0.38256  -0.37793  -0.37558  -0.37385
 Alpha  occ. eigenvalues --   -0.37311  -0.37170  -0.37095  -0.36765  -0.36687
 Alpha  occ. eigenvalues --   -0.36248  -0.36123  -0.34343  -0.34149  -0.33817
 Alpha  occ. eigenvalues --   -0.33775  -0.33242  -0.33070  -0.31373  -0.31149
 Alpha  occ. eigenvalues --   -0.31088  -0.30865  -0.30085  -0.29861  -0.29499
 Alpha  occ. eigenvalues --   -0.29378  -0.29213  -0.29107  -0.24136  -0.23929
 Alpha  occ. eigenvalues --   -0.21184  -0.21009
 Alpha virt. eigenvalues --   -0.08827  -0.08682  -0.01804  -0.01575  -0.00099
 Alpha virt. eigenvalues --    0.00089   0.02143   0.02306   0.03054   0.03324
 Alpha virt. eigenvalues --    0.04667   0.04836   0.05052   0.05251   0.06137

 Mulliken charges:
               1
     1  Mg   0.838545
     2  C   -0.002893
     3  C   -0.094014
     4  C   -0.045848
     5  C   -0.064180
     6  N   -0.256768
     7  C   -0.052516
     8  C   -0.013994
     9  C   -0.087031
    10  C    0.046372
    11  C    0.104776
    12  C    0.053465
    13  C   -0.071920
    14  H    0.036345
    15  N   -0.433216
    16  C    0.168503
    17  C   -0.176990
    18  C   -0.003792
    19  C    0.148751
    20  C    0.110143
    21  C    0.012484
    22  O   -0.249343
    23  C    0.062378
    24  N   -0.341089
    25  C    0.041223
    26  C   -0.028270
    27  C   -0.023864
    28  C    0.074669
    29  C    0.076103
    30  C    0.035220
    31  C   -0.004415
    32  N   -0.310371
    33  C    0.080175
    34  C   -0.170171
    35  C    0.008306
    36  C    0.082771
    37  C    0.127424
    38  C    0.045932
    39  O   -0.188610
    40  C   -0.005246
    41  C    0.212842
    42  O   -0.257176
    43  O   -0.304785
    44  C    0.157610
    45  H   -0.017387
    46  H   -0.016643
    47  H   -0.041897
    48  H    0.001014
    49  H   -0.003918
    50  H    0.025514
    51  H    0.016470
    52  H    0.016822
    53  H    0.011131
    54  H    0.044126
    55  H    0.017942
    56  H    0.017960
    57  H    0.005921
    58  H    0.027088
    59  H    0.039827
    60  H    0.037346
    61  H    0.036291
    62  H    0.031668
    63  H    0.016583
    64  H    0.009493
    65  H    0.023397
    66  H    0.012750
    67  H    0.004746
    68  H    0.006397
    69  H    0.004334
    70  H    0.009113
    71  H    0.016742
    72  H    0.029138
    73  H    0.047088
    74  H    0.008677
    75  H    0.046129
    76  H    0.035236
    77  H    0.043017
    78  H    0.046513
    79  H    0.053837
    80  Mg   0.838041
    81  C   -0.016806
    82  C   -0.087455
    83  C   -0.044997
    84  C   -0.065048
    85  N   -0.254564
    86  C   -0.049911
    87  C   -0.015097
    88  C   -0.090540
    89  C    0.045758
    90  C    0.114212
    91  C    0.062554
    92  C   -0.077743
    93  H    0.034549
    94  N   -0.423679
    95  C    0.163019
    96  C   -0.173791
    97  C   -0.007435
    98  C    0.152308
    99  C    0.099000
   100  C    0.015954
   101  O   -0.253119
   102  C    0.061119
   103  N   -0.349960
   104  C    0.037721
   105  C   -0.019932
   106  C   -0.034590
   107  C    0.088825
   108  C    0.073504
   109  C    0.034834
   110  C   -0.007599
   111  N   -0.323997
   112  C    0.078292
   113  C   -0.163498
   114  C    0.002162
   115  C    0.096016
   116  C    0.131516
   117  C    0.042203
   118  O   -0.188337
   119  C    0.000948
   120  C    0.211187
   121  O   -0.251166
   122  O   -0.305566
   123  C    0.152113
   124  H   -0.019061
   125  H   -0.015382
   126  H   -0.041081
   127  H   -0.000746
   128  H   -0.004440
   129  H    0.022491
   130  H    0.015364
   131  H    0.016119
   132  H    0.013885
   133  H    0.037541
   134  H    0.020702
   135  H    0.019564
   136  H    0.008877
   137  H    0.027455
   138  H    0.039604
   139  H    0.039076
   140  H    0.036322
   141  H    0.033549
   142  H    0.014196
   143  H    0.011894
   144  H    0.024883
   145  H    0.013081
   146  H    0.005109
   147  H    0.005900
   148  H    0.003201
   149  H    0.010925
   150  H    0.017589
   151  H    0.030303
   152  H    0.045705
   153  H    0.008070
   154  H    0.046525
   155  H    0.035141
   156  H    0.043761
   157  H    0.049452
   158  H    0.053423
 Sum of Mulliken charges =  -0.00000

 Dipole moment (field-independent basis, Debye):
    X=              4.1553    Y=              0.1291    Z=              0.3012  Tot=              4.1682
 Quadrupole moment (field-independent basis, Debye-Ang):
   XX=           -522.3364   YY=           -548.1932   ZZ=           -448.8202
   XY=            -21.6011   XZ=             61.1400   YZ=             43.4885

 Normal termination of Gaussian 16 at Sat Sep 11 06:16:38 2021.
