 Gaussian 16, Revision A.03,
 Gaussian 16:  ES64L-G16RevA.03 25-Dec-2016

 -----------------------------------
 #p cam-b3lyp/Def2SVP td=(nstates=5)
 -----------------------------------

 --------------------------------
 TDDFT excited states in gaussian
 --------------------------------
 Symbolic Z-matrix:
 Charge =  0 Multiplicity = 1

                         Standard orientation:
 ---------------------------------------------------------------------
 Center     Atomic      Atomic             Coordinates (Angstroms)
 Number     Number       Type             X           Y           Z
 ---------------------------------------------------------------------
      1         12           0        6.630879   -0.612215    0.633834
      2          6           0        7.046679    2.089617   -1.676887
      3          6           0        7.254494    1.625688    3.133025
      4          6           0        6.718441   -3.056251    2.652656
      5          6           0        7.165636   -2.784869   -2.038107
      6          7           0        7.078019    1.555712    0.605496
      7          6           0        7.149540    2.485834   -0.341568
      8          6           0        7.268661    3.933461    0.221957
      9          6           0        7.886949    3.596654    1.652439
     10          6           0        7.346156    2.188256    1.825299
     11          6           0        9.411234    3.541849    1.659769
     12          6           0        5.876114    4.637636    0.351120
     13          6           0        5.927939    6.150878    0.580830
     14          1           0        4.902123    6.986630   -0.024618
     15          7           0        6.458616   -0.655516    2.601396
     16          6           0        6.740507    0.352560    3.461400
     17          6           0        6.450566   -0.171925    4.813262
     18          6           0        6.158647   -1.626630    4.683991
     19          6           0        6.463135   -1.845986    3.293111
     20          6           0        6.421151    0.686875    6.040188
     21          6           0        5.691107   -2.657951    5.661701
     22          8           0        5.723749   -3.908694    5.398738
     23          6           0        5.271144   -2.165062    6.985987
     24          7           0        7.119087   -2.628561    0.402243
     25          6           0        7.017995   -3.484877    1.424733
     26          6           0        7.142417   -4.905980    0.961133
     27          6           0        7.107252   -4.855133   -0.634464
     28          6           0        7.047351   -3.318862   -0.820352
     29          6           0        8.402938   -5.651809    1.420301
     30          6           0        6.039107   -5.725950   -1.342393
     31          6           0        4.657497   -5.190973   -1.038995
     32          7           0        6.860187   -0.424266   -1.516315
     33          6           0        7.096346   -1.459215   -2.432712
     34          6           0        7.286849   -0.831747   -3.753340
     35          6           0        7.163929    0.534641   -3.508962
     36          6           0        6.938676    0.748834   -2.119115
     37          6           0        7.594858   -1.513834   -4.963432
     38          6           0        7.194996    1.864994   -4.094667
     39          8           0        7.255523    2.305493   -5.243488
     40          6           0        7.241735    2.931658   -2.913197
     41          6           0        6.213745    3.988162   -3.213769
     42          8           0        4.995555    3.717601   -3.200453
     43          8           0        6.806340    5.191882   -3.234533
     44          6           0        5.836496    6.288189   -3.498479
     45          1           0        7.666241    2.182360    3.977136
     46          1           0        6.647850   -3.935872    3.295867
     47          1           0        7.252494   -3.404656   -2.932408
     48          1           0        7.946072    4.582849   -0.332871
     49          1           0        7.494109    4.251496    2.429987
     50          1           0        9.817418    3.616144    0.651099
     51          1           0        9.665725    2.578747    2.102672
     52          1           0        9.822798    4.297637    2.329229
     53          1           0        5.400140    4.325090    1.280542
     54          1           0        5.254649    4.426254   -0.519756
     55          1           0        6.920027    6.552022    0.371659
     56          1           0        5.777708    6.340327    1.643722
     57          1           0        6.837706    1.674776    5.847630
     58          1           0        7.106529    0.238519    6.759175
     59          1           0        5.422840    0.749332    6.473555
     60          1           0        6.103238   -1.639330    7.454788
     61          1           0        4.884745   -3.031950    7.520824
     62          1           0        4.478554   -1.428066    6.853371
     63          1           0        6.307802   -5.508167    1.317806
     64          1           0        8.050042   -5.180423   -1.074926
     65          1           0        8.192834   -6.569858    1.969617
     66          1           0        9.000988   -4.965756    2.019434
     67          1           0        9.099713   -5.906308    0.622083
     68          1           0        6.075975   -6.748942   -0.969466
     69          1           0        6.162394   -5.762905   -2.424838
     70          1           0        4.427970   -5.642574   -0.074523
     71          1           0        3.948072   -5.515722   -1.800876
     72          1           0        4.671317   -4.110085   -0.897655
     73          1           0        6.966120   -1.067428   -5.733743
     74          1           0        7.410507   -2.584060   -4.872688
     75          1           0        8.654609   -1.279641   -5.063122
     76          1           0        8.252866    3.337207   -2.896840
     77          1           0        6.200268    6.836179   -4.367738
     78          1           0        5.727725    6.837542   -2.563179
     79          1           0        4.848265    5.984365   -3.845509
     80         12           0       -6.527571   -0.671932   -0.654774
     81          6           0       -7.525651    1.794487    1.753474
     82          6           0       -6.657170    1.791887   -3.010073
     83          6           0       -6.090741   -2.902377   -2.868763
     84          6           0       -7.573289   -3.105394    1.610274
     85          7           0       -7.038008    1.476138   -0.522473
     86          6           0       -7.341657    2.315801    0.455857
     87          6           0       -7.375696    3.809332    0.034230
     88          6           0       -7.658590    3.610108   -1.533945
     89          6           0       -7.050869    2.220982   -1.717407
     90          6           0       -9.137796    3.532973   -1.873587
     91          6           0       -6.005492    4.532147    0.283428
     92          6           0       -6.056386    6.058434    0.185420
     93          1           0       -5.207765    6.841958    1.078941
     94          7           0       -5.920974   -0.511194   -2.537531
     95          6           0       -6.031453    0.569242   -3.338618
     96          6           0       -5.453885    0.171897   -4.631949
     97          6           0       -5.143343   -1.282610   -4.579952
     98          6           0       -5.738525   -1.633860   -3.306198
     99          6           0       -5.173769    1.152326   -5.733632
    100          6           0       -4.439785   -2.207295   -5.526614
    101          8           0       -4.492544   -3.480440   -5.388242
    102          6           0       -3.765056   -1.582265   -6.673592
    103          7           0       -6.986283   -2.698533   -0.724278
    104          6           0       -6.640139   -3.449731   -1.784374
    105          6           0       -6.823636   -4.920264   -1.494116
    106          6           0       -7.137121   -5.013342    0.071336
    107          6           0       -7.170162   -3.507446    0.412768
    108          6           0       -7.934235   -5.619481   -2.277727
    109          6           0       -6.225173   -5.943288    0.917627
    110          6           0       -4.823493   -5.379787    0.973678
    111          7           0       -7.220653   -0.696999    1.391456
    112          6           0       -7.630554   -1.822401    2.139467
    113          6           0       -8.124968   -1.324527    3.439505
    114          6           0       -7.988745    0.068874    3.348088
    115          6           0       -7.466511    0.416374    2.072931
    116          6           0       -8.660977   -2.124878    4.487484
    117          6           0       -8.177936    1.325533    4.036371
    118          8           0       -8.508557    1.650612    5.175994
    119          6           0       -8.005002    2.507217    2.987508
    120          6           0       -7.097355    3.540220    3.597095
    121          8           0       -5.906307    3.273371    3.835474
    122          8           0       -7.722613    4.731614    3.596435
    123          6           0       -6.858056    5.790936    4.181419
    124          1           0       -6.886101    2.433141   -3.861694
    125          1           0       -5.856386   -3.719662   -3.554765
    126          1           0       -7.824981   -3.807794    2.407748
    127          1           0       -8.171374    4.390493    0.484701
    128          1           0       -7.120214    4.343422   -2.128713
    129          1           0       -9.753859    3.506346   -0.987072
    130          1           0       -9.260863    2.623704   -2.447286
    131          1           0       -9.413850    4.351973   -2.543929
    132          1           0       -5.327837    4.312732   -0.551664
    133          1           0       -5.589478    4.244462    1.229365
    134          1           0       -7.085136    6.438406    0.201200
    135          1           0       -5.675727    6.356106   -0.794639
    136          1           0       -5.659613    2.117813   -5.546032
    137          1           0       -5.666700    0.770678   -6.634315
    138          1           0       -4.106494    1.265189   -5.935758
    139          1           0       -4.490302   -1.019422   -7.256413
    140          1           0       -3.245192   -2.394672   -7.185066
    141          1           0       -3.033732   -0.858268   -6.297280
    142          1           0       -5.915651   -5.472142   -1.704109
    143          1           0       -8.148638   -5.401053    0.261976
    144          1           0       -7.576122   -6.488738   -2.861026
    145          1           0       -8.403136   -4.892600   -2.927585
    146          1           0       -8.773206   -5.968459   -1.678102
    147          1           0       -6.145883   -6.926350    0.447028
    148          1           0       -6.586180   -6.098508    1.928848
    149          1           0       -4.378059   -5.732720    0.038743
    150          1           0       -4.288381   -5.769068    1.837478
    151          1           0       -4.838074   -4.284234    0.938919
    152          1           0       -8.235948   -1.754270    5.410793
    153          1           0       -8.433767   -3.178500    4.339047
    154          1           0       -9.727083   -1.914085    4.368091
    155          1           0       -8.997836    2.907141    2.777933
    156          1           0       -7.423965    6.250651    4.997564
    157          1           0       -6.572710    6.444477    3.335719
    158          1           0       -5.959412    5.475585    4.698567
 ---------------------------------------------------------------------

 SCF Done:  E(RCAM-B3LYP) =  -4069.81201472     A.U. after   19 cycles

 Excitation energies and oscillator strengths:

 Excited State   1:      Singlet-A      1.6659 eV  744.26 nm  f=0.0190  <S**2>=0.000
     309 -> 315        0.11056
     310 -> 316        0.13136
     311 -> 313       -0.44098
     312 -> 314        0.52629
 This state for optimization and/or second-order correction.
 Total Energy, E(TD-HF/TD-DFT) =  -4069.75079502
 Copying the excited state density for this state as the 1-particle RhoCI density.

 Excited State   2:      Singlet-A      1.6895 eV  733.86 nm  f=0.7270  <S**2>=0.000
     309 -> 315       -0.13653
     310 -> 316        0.11388
     311 -> 313        0.52512
     312 -> 314        0.44011

 Excited State   3:      Singlet-A      2.1863 eV  567.09 nm  f=0.0410  <S**2>=0.000
     309 -> 313        0.20156
     310 -> 314        0.61052
     312 -> 316       -0.25909

 Excited State   4:      Singlet-A      2.1938 eV  565.16 nm  f=0.1484  <S**2>=0.000
     309 -> 313        0.60830
     310 -> 314       -0.20009
     311 -> 315        0.26504

 Excited State   5:      Singlet-A      2.7149 eV  456.68 nm  f=0.0000  <S**2>=0.000
     312 -> 313        0.70709

 The electronic state is 1-A.
 Alpha  occ. eigenvalues --  -46.87711 -46.87556 -19.26315 -19.26282 -19.19118
 Alpha  occ. eigenvalues --  -19.19011 -19.18704 -19.18575 -19.18119 -19.17974
 Alpha  occ. eigenvalues --  -14.42396 -14.42368 -14.41364 -14.41260 -14.39314
 Alpha  occ. eigenvalues --  -14.39243 -14.38507 -14.38500 -10.39066 -10.39044
 Alpha  occ. eigenvalues --  -10.35335 -10.35248 -10.34340 -10.34153 -10.31743
 Alpha  occ. eigenvalues --  -10.31700 -10.31332 -10.31217 -10.30917 -10.30827
 Alpha  occ. eigenvalues --  -10.30492 -10.30425 -10.30297 -10.30263 -10.30112
 Alpha  occ. eigenvalues --  -10.30032 -10.29841 -10.29804 -10.29546 -10.29324
 Alpha  occ. eigenvalues --  -10.29293 -10.29163 -10.28684 -10.28631 -10.28585
 Alpha  occ. eigenvalues --  -10.28493 -10.28301 -10.28284 -10.28050 -10.28048
 Alpha  occ. eigenvalues --  -10.27898 -10.27713 -10.27644 -10.27565 -10.27494
 Alpha  occ. eigenvalues --  -10.27427 -10.27408 -10.27386 -10.27364 -10.27361
 Alpha  occ. eigenvalues --  -10.27351 -10.27328 -10.27300 -10.27289 -10.27113
 Alpha  occ. eigenvalues --  -10.26980 -10.26643 -10.26604 -10.26268 -10.26220
 Alpha  occ. eigenvalues --  -10.26171 -10.26080 -10.26049 -10.25946 -10.25933
 Alpha  occ. eigenvalues --  -10.25835 -10.25785 -10.25778 -10.25354 -10.25321
 Alpha  occ. eigenvalues --  -10.24775 -10.24758 -10.24703 -10.24633 -10.24591
 Alpha  occ. eigenvalues --  -10.24566  -3.16453  -3.16306  -1.91335  -1.91188
 Alpha  occ. eigenvalues --   -1.90922  -1.90777  -1.90764  -1.90614  -1.16628
 Alpha  occ. eigenvalues --   -1.16606  -1.08587  -1.08582  -1.07104  -1.06902
 Alpha  occ. eigenvalues --   -1.06826  -1.06633  -1.04501  -1.04394  -1.03676
 Alpha  occ. eigenvalues --   -1.03561  -1.03150  -1.02937  -1.02328  -1.02011
 Alpha  occ. eigenvalues --   -0.91903  -0.91896  -0.89431  -0.89399  -0.89119
 Alpha  occ. eigenvalues --   -0.89062  -0.88199  -0.88128  -0.87798  -0.87703
 Alpha  occ. eigenvalues --   -0.87593  -0.87585  -0.87171  -0.86983  -0.84910
 Alpha  occ. eigenvalues --   -0.84906  -0.83850  -0.83788  -0.82857  -0.82796
 Alpha  occ. eigenvalues --   -0.82573  -0.82546  -0.81540  -0.81527  -0.80527
 Alpha  occ. eigenvalues --   -0.80353  -0.78705  -0.78517  -0.77138  -0.77047
 Alpha  occ. eigenvalues --   -0.76873  -0.76819  -0.75863  -0.75755  -0.74819
 Alpha  occ. eigenvalues --   -0.74716  -0.72694  -0.72601  -0.71598  -0.71491
 Alpha  occ. eigenvalues --   -0.69811  -0.69665  -0.68798  -0.68732  -0.67563
 Alpha  occ. eigenvalues --   -0.67503  -0.67141  -0.67093  -0.65219  -0.65183
 Alpha  occ. eigenvalues --   -0.64786  -0.64680  -0.64568  -0.64551  -0.64184
 Alpha  occ. eigenvalues --   -0.64112  -0.62258  -0.62213  -0.60345  -0.60219
 Alpha  occ. eigenvalues --   -0.59731  -0.59702  -0.58912  -0.58900  -0.58430
 Alpha  occ. eigenvalues --   -0.58335  -0.57538  -0.57484  -0.57230  -0.57137
 Alpha  occ. eigenvalues --   -0.56234  -0.56106  -0.55944  -0.55817  -0.55434
 Alpha  occ. eigenvalues --   -0.55347  -0.55271  -0.55168  -0.54466  -0.54414
 Alpha  occ. eigenvalues --   -0.53827  -0.53822  -0.53215  -0.53143  -0.53127
 Alpha  occ. eigenvalues --   -0.53042  -0.52854  -0.52816  -0.52658  -0.52529
 Alpha  occ. eigenvalues --   -0.52342  -0.52309  -0.51851  -0.51805  -0.51555
 Alpha  occ. eigenvalues --   -0.51541  -0.51128  -0.51116  -0.50454  -0.50324
 Alpha  occ. eigenvalues --   -0.49938  -0.49869  -0.49824  -0.49766  -0.49434
 Alpha  occ. eigenvalues --   -0.49374  -0.49142  -0.49103  -0.49032  -0.49020
 Alpha  occ. eigenvalues --   -0.48536  -0.48477  -0.48387  -0.48353  -0.48293
 Alpha  occ. eigenvalues --   -0.48213  -0.47615  -0.47493  -0.47214  -0.47011
 Alpha  occ. eigenvalues --   -0.46718  -0.46617  -0.46487  -0.46459  -0.46280
 Alpha  occ. eigenvalues --   -0.46172  -0.46094  -0.46002  -0.45772  -0.45751
 Alpha  occ. eigenvalues --   -0.45119  -0.45117  -0.44519  -0.44432  -0.44415
 Alpha  occ. eigenvalues --   -0.44380  -0.44062  -0.44037  -0.44016  -0.43980
 Alpha  occ. eigenvalues --   -0.43942  -0.43820  -0.43487  -0.43446  -0.43308
 Alpha  occ. eigenvalues --   -0.43297  -0.42954  -0.42868  -0.42817  -0.42670
 Alpha  occ. eigenvalues --   -0.42570  -0.42453  -0.41930  -0.41874  -0.41633
 Alpha  occ. eigenvalues --   -0.41582  -0.41462  -0.41367  -0.41066  -0.40899
 Alpha  occ. eigenvalues --   -0.40792  -0.40720  -0.40622  -0.40578  -0.40488
 Alpha  occ. eigenvalues --   -0.40404  -0.40164  -0.40126  -0.39341  -0.39332
 Alpha  occ. eigenvalues --   -0.38384  -0.38260  -0.37683  -0.37568  -0.37235
 Alpha  occ. eigenvalues --   -0.37192  -0.37173  -0.37104  -0.36719  -0.36680
 Alpha  occ. eigenvalues --   -0.36135  -0.36132  -0.34206  -0.34157  -0.33808
 Alpha  occ. eigenvalues --   -0.33748  -0.33109  -0.33077  -0.31236  -0.31138
 Alpha  occ. eigenvalues --   -0.30955  -0.30873  -0.29981  -0.29881  -0.29360
 Alpha  occ. eigenvalues --   -0.29244  -0.29213  -0.29111  -0.24000  -0.23937
 Alpha  occ. eigenvalues --   -0.21044  -0.21014
 Alpha virt. eigenvalues --   -0.08690  -0.08686  -0.01663  -0.01579   0.00034
 Alpha virt. eigenvalues --    0.00091   0.02270   0.02298   0.03228   0.03352
 Alpha virt. eigenvalues --    0.04791   0.04821   0.05118   0.05216   0.06230

 Mulliken charges:
               1
     1  Mg   0.839155
     2  C   -0.003081
     3  C   -0.093904
     4  C   -0.045762
     5  C   -0.063881
     6  N   -0.256798
     7  C   -0.052573
     8  C   -0.014051
     9  C   -0.087057
    10  C    0.046465
    11  C    0.104815
    12  C    0.053375
    13  C   -0.071606
    14  H    0.035387
    15  N   -0.433205
    16  C    0.168727
    17  C   -0.176799
    18  C   -0.003690
    19  C    0.148910
    20  C    0.110110
    21  C    0.012659
    22  O   -0.249616
    23  C    0.062228
    24  N   -0.341174
    25  C    0.041354
    26  C   -0.028194
    27  C   -0.023922
    28  C    0.074821
    29  C    0.076216
    30  C    0.035122
    31  C   -0.004586
    32  N   -0.310349
    33  C    0.080247
    34  C   -0.169946
    35  C    0.008028
    36  C    0.082882
    37  C    0.127404
    38  C    0.045734
    39  O   -0.189293
    40  C   -0.005251
    41  C    0.212758
    42  O   -0.257522
    43  O   -0.304642
    44  C    0.158006
    45  H   -0.017561
    46  H   -0.016745
    47  H   -0.041591
    48  H    0.000625
    49  H   -0.003877
    50  H    0.025313
    51  H    0.016500
    52  H    0.016602
    53  H    0.011852
    54  H    0.043823
    55  H    0.017681
    56  H    0.018306
    57  H    0.005849
    58  H    0.026773
    59  H    0.040605
    60  H    0.037158
    61  H    0.035871
    62  H    0.032530
    63  H    0.016730
    64  H    0.009253
    65  H    0.023198
    66  H    0.012461
    67  H    0.004631
    68  H    0.006259
    69  H    0.004650
    70  H    0.008819
    71  H    0.018735
    72  H    0.029004
    73  H    0.047008
    74  H    0.009203
    75  H    0.045793
    76  H    0.035005
    77  H    0.042586
    78  H    0.046544
    79  H    0.052906
    80  Mg   0.838240
    81  C   -0.016883
    82  C   -0.087370
    83  C   -0.045455
    84  C   -0.064923
    85  N   -0.254602
    86  C   -0.049982
    87  C   -0.015177
    88  C   -0.090588
    89  C    0.045926
    90  C    0.114390
    91  C    0.062384
    92  C   -0.077665
    93  H    0.034110
    94  N   -0.423602
    95  C    0.163364
    96  C   -0.174065
    97  C   -0.007360
    98  C    0.152292
    99  C    0.099210
   100  C    0.015995
   101  O   -0.253469
   102  C    0.060795
   103  N   -0.350063
   104  C    0.037620
   105  C   -0.019827
   106  C   -0.034703
   107  C    0.088785
   108  C    0.073724
   109  C    0.034784
   110  C   -0.007663
   111  N   -0.323952
   112  C    0.078199
   113  C   -0.163456
   114  C    0.001970
   115  C    0.096024
   116  C    0.131569
   117  C    0.042065
   118  O   -0.188649
   119  C    0.000985
   120  C    0.211186
   121  O   -0.251253
   122  O   -0.305568
   123  C    0.152269
   124  H   -0.019555
   125  H   -0.015600
   126  H   -0.040751
   127  H   -0.000999
   128  H   -0.004070
   129  H    0.022254
   130  H    0.014432
   131  H    0.016198
   132  H    0.014767
   133  H    0.037441
   134  H    0.020506
   135  H    0.019970
   136  H    0.008726
   137  H    0.026012
   138  H    0.041786
   139  H    0.038031
   140  H    0.036520
   141  H    0.035844
   142  H    0.014424
   143  H    0.012136
   144  H    0.025014
   145  H    0.011612
   146  H    0.005480
   147  H    0.006015
   148  H    0.003447
   149  H    0.010927
   150  H    0.018010
   151  H    0.030307
   152  H    0.045555
   153  H    0.008383
   154  H    0.046634
   155  H    0.034793
   156  H    0.043538
   157  H    0.049536
   158  H    0.053067
 Sum of Mulliken charges =  -0.00000

 Dipole moment (field-independent basis, Debye):
    X=              0.9710    Y=              3.0919    Z=              0.0404  Tot=              3.2410
 Quadrupole moment (field-independent basis, Debye-Ang):
   XX=           -487.6535   YY=           -460.7973   ZZ=           -534.9813
   XY=              3.1171   XZ=             58.2684   YZ=              4.8750

 Normal termination of Gaussian 16 at Sat Sep 11 06:19:30 2021.
