 Gaussian 16, Revision A.03,
 Gaussian 16:  ES64L-G16RevA.03 25-Dec-2016

 -----------------------------------
 #p cam-b3lyp/Def2SVP td=(nstates=5)
 -----------------------------------

 --------------------------------
 TDDFT excited states in gaussian
 --------------------------------
 Symbolic Z-matrix:
 Charge =  0 Multiplicity = 1

                         Standard orientation:
 ---------------------------------------------------------------------
 Center     Atomic      Atomic             Coordinates (Angstroms)
 Number     Number       Type             X           Y           Z
 ---------------------------------------------------------------------
      1         12           0        4.951402   -1.336203    0.363631
      2          6           0        5.616177    2.098005   -0.395649
      3          6           0        5.679894   -0.603653    3.615667
      4          6           0        4.814009   -4.443751    0.980793
      5          6           0        5.386586   -2.016728   -3.026525
      6          7           0        5.556395    0.545780    1.360009
      7          6           0        5.717291    1.805233    0.966227
      8          6           0        5.929077    2.799443    2.146933
      9          6           0        6.488337    1.779672    3.237480
     10          6           0        5.842210    0.502673    2.729819
     11          6           0        8.003970    1.613529    3.195604
     12          6           0        4.589168    3.460775    2.614923
     13          6           0        4.746258    4.675780    3.533857
     14          1           0        3.798357    5.773059    3.412153
     15          7           0        4.731659   -2.293495    2.077736
     16          6           0        5.066843   -1.837663    3.308652
     17          6           0        4.708609   -2.916583    4.254317
     18          6           0        4.314123   -4.109767    3.455077
     19          6           0        4.633360   -3.666110    2.122173
     20          6           0        4.714129   -2.742177    5.742034
     21          6           0        3.750274   -5.442764    3.833661
     22          8           0        3.697354   -6.418043    3.008673
     23          6           0        3.337418   -5.606186    5.239323
     24          7           0        5.296014   -3.032342   -0.803412
     25          6           0        5.109313   -4.260551   -0.307802
     26          6           0        5.140017   -5.297141   -1.391536
     27          6           0        5.145020   -4.493875   -2.771569
     28          6           0        5.201864   -3.053353   -2.205943
     29          6           0        6.331841   -6.263854   -1.359412
     30          6           0        4.032464   -4.842225   -3.792006
     31          6           0        2.687119   -4.412725   -3.251012
     32          7           0        5.242758   -0.169772   -1.443464
     33          6           0        5.423422   -0.661405   -2.744361
     34          6           0        5.689329    0.500549   -3.612245
     35          6           0        5.661115    1.592887   -2.747464
     36          6           0        5.420526    1.139234   -1.419079
     37          6           0        5.974123    0.452275   -5.005441
     38          6           0        5.802709    3.035334   -2.632775
     39          8           0        5.921437    3.961606   -3.436154
     40          6           0        5.900394    3.407935   -1.087636
     41          6           0        4.959522    4.554615   -0.836251
     42          8           0        3.724823    4.402484   -0.934952
     43          8           0        5.638867    5.576067   -0.292498
     44          6           0        4.758047    6.735946    0.009151
     45          1           0        6.111908   -0.546121    4.616664
     46          1           0        4.664655   -5.514996    1.131014
     47          1           0        5.448241   -2.143339   -4.108940
     48          1           0        6.664621    3.581185    1.956464
     49          1           0        6.126821    2.015359    4.238220
     50          1           0        8.437370    2.126100    2.336910
     51          1           0        8.177202    0.539509    3.125140
     52          1           0        8.454339    1.928534    4.137261
     53          1           0        4.070567    2.781955    3.291914
     54          1           0        3.973910    3.734651    1.757149
     55          1           0        5.769529    5.052281    3.525369
     56          1           0        4.586109    4.349691    4.561582
     57          1           0        5.206083   -1.815457    6.034807
     58          1           0        5.348332   -3.527754    6.152357
     59          1           0        3.713446   -2.817666    6.167788
     60          1           0        4.194832   -5.429573    5.889092
     61          1           0        2.876583   -6.591170    5.304805
     62          1           0        2.604067   -4.837121    5.483626
     63          1           0        4.255697   -5.931764   -1.350825
     64          1           0        6.071289   -4.641464   -3.327372
     65          1           0        6.042713   -7.313839   -1.308025
     66          1           0        6.964651   -5.990732   -0.515465
     67          1           0        7.026143   -6.161329   -2.192990
     68          1           0        3.985926   -5.919280   -3.949276
     69          1           0        4.177343   -4.371045   -4.764246
     70          1           0        2.403274   -5.248687   -2.612709
     71          1           0        1.973385   -4.283349   -4.065296
     72          1           0        2.776714   -3.532346   -2.614308
     73          1           0        5.397420    1.256201   -5.462701
     74          1           0        5.709991   -0.515893   -5.430280
     75          1           0        7.050157    0.625331   -4.997699
     76          1           0        6.937836    3.680012   -0.895775
     77          1           0        5.180621    7.601277   -0.501601
     78          1           0        4.668460    6.782978    1.094585
     79          1           0        3.758408    6.708079   -0.425917
     80         12           0       -5.538546   -0.095629   -0.412422
     81          6           0       -3.529317    2.874680   -0.551392
     82          6           0       -6.344750    0.779063    2.784380
     83          6           0       -6.949876   -2.920276   -0.101032
     84          6           0       -3.707278   -1.294077   -3.124598
     85          7           0       -4.950558    1.627826    0.843054
     86          6           0       -4.231679    2.725554    0.662643
     87          6           0       -4.331831    3.757123    1.818238
     88          6           0       -4.750926    2.754128    3.000275
     89          6           0       -5.423891    1.664007    2.168749
     90          6           0       -3.560949    2.140421    3.719054
     91          6           0       -5.440742    4.837024    1.561027
     92          6           0       -5.386659    6.049078    2.493632
     93          1           0       -5.747449    7.357867    1.955694
     94          7           0       -6.884102   -0.720622    0.905688
     95          6           0       -7.090378   -0.238154    2.149058
     96          6           0       -8.176703   -1.049205    2.720233
     97          6           0       -8.482785   -2.156375    1.774094
     98          6           0       -7.413309   -1.983783    0.811525
     99          6           0       -8.867456   -0.695067    4.005095
    100          6           0       -9.552479   -3.205785    1.747722
    101          8           0       -9.487394   -4.213971    0.958966
    102          6           0      -10.630902   -3.067662    2.737387
    103          7           0       -5.219650   -1.938813   -1.319800
    104          6           0       -6.008908   -2.991540   -1.042752
    105          6           0       -5.767333   -4.124364   -2.011639
    106          6           0       -4.819779   -3.521299   -3.150075
    107          6           0       -4.595222   -2.107696   -2.569841
    108          6           0       -5.120115   -5.377340   -1.422112
    109          6           0       -5.313895   -3.648178   -4.617199
    110          6           0       -6.538782   -2.786993   -4.825550
    111          7           0       -4.040693    0.699636   -1.751095
    112          6           0       -3.388075    0.018725   -2.802059
    113          6           0       -2.370775    0.938476   -3.351225
    114          6           0       -2.487387    2.091496   -2.560367
    115          6           0       -3.491629    1.896147   -1.574040
    116          6           0       -1.465692    0.641959   -4.409063
    117          6           0       -1.981979    3.425528   -2.328845
    118          8           0       -1.186761    4.165602   -2.906471
    119          6           0       -2.546753    3.945407   -0.937029
    120          6           0       -3.073764    5.339364   -1.141116
    121          8           0       -4.057639    5.542066   -1.874277
    122          8           0       -2.469886    6.170375   -0.272142
    123          6           0       -2.967570    7.563122   -0.428344
    124          1           0       -6.479798    0.839895    3.864629
    125          1           0       -7.480806   -3.875026   -0.107655
    126          1           0       -3.162791   -1.557042   -4.034023
    127          1           0       -3.401543    4.254551    2.065011
    128          1           0       -5.467198    3.215973    3.674829
    129          1           0       -2.627033    2.389829    3.237643
    130          1           0       -3.723880    1.070826    3.697510
    131          1           0       -3.570335    2.425500    4.774983
    132          1           0       -6.416450    4.423436    1.846823
    133          1           0       -5.423069    5.165584    0.540069
    134          1           0       -4.437501    6.106592    3.040204
    135          1           0       -6.138769    5.919092    3.275590
    136          1           0       -8.316760    0.075379    4.558764
    137          1           0       -8.818160   -1.579811    4.649043
    138          1           0       -9.914781   -0.422242    3.858961
    139          1           0      -10.205260   -3.070242    3.738032
    140          1           0      -11.345390   -3.859267    2.503420
    141          1           0      -11.108025   -2.090771    2.600865
    142          1           0       -6.695712   -4.451136   -2.463796
    143          1           0       -3.836739   -4.014485   -3.165493
    144          1           0       -5.720842   -6.293298   -1.577694
    145          1           0       -4.949437   -5.209175   -0.367062
    146          1           0       -4.117491   -5.594310   -1.786631
    147          1           0       -5.618256   -4.676587   -4.826703
    148          1           0       -4.561613   -3.379086   -5.351125
    149          1           0       -7.351463   -3.420851   -4.458307
    150          1           0       -6.667121   -2.552244   -5.880284
    151          1           0       -6.504650   -1.893974   -4.190735
    152          1           0       -1.444322    1.510884   -5.053286
    153          1           0       -1.768770   -0.250064   -4.953308
    154          1           0       -0.545884    0.482869   -3.839926
    155          1           0       -1.725446    3.919174   -0.219841
    156          1           0       -2.093122    8.196921   -0.605292
    157          1           0       -3.564636    7.770597    0.479523
    158          1           0       -3.569876    7.785166   -1.301482
 ---------------------------------------------------------------------

 SCF Done:  E(RCAM-B3LYP) =  -4069.81012423     A.U. after   19 cycles

 Excitation energies and oscillator strengths:

 Excited State   1:      Singlet-A      1.6560 eV  748.72 nm  f=0.0883  <S**2>=0.000
     309 -> 315       -0.11524
     310 -> 316       -0.12364
     311 -> 313       -0.46746
     312 -> 314        0.50362
 This state for optimization and/or second-order correction.
 Total Energy, E(TD-HF/TD-DFT) =  -4069.74926900
 Copying the excited state density for this state as the 1-particle RhoCI density.

 Excited State   2:      Singlet-A      1.6989 eV  729.78 nm  f=0.6474  <S**2>=0.000
     309 -> 315        0.13198
     310 -> 316       -0.12172
     311 -> 313        0.50166
     312 -> 314        0.46581

 Excited State   3:      Singlet-A      2.1836 eV  567.81 nm  f=0.0089  <S**2>=0.000
     309 -> 313        0.34915
     310 -> 314        0.54080
     311 -> 315       -0.14656
     312 -> 316        0.22823

 Excited State   4:      Singlet-A      2.1953 eV  564.78 nm  f=0.1696  <S**2>=0.000
     309 -> 313        0.53710
     310 -> 314       -0.34575
     311 -> 315       -0.23668
     312 -> 316       -0.15246

 Excited State   5:      Singlet-A      2.4947 eV  496.98 nm  f=0.0000  <S**2>=0.000
     312 -> 313        0.70694

 The electronic state is 1-A.
 Alpha  occ. eigenvalues --  -46.87722 -46.87434 -19.26054 -19.25994 -19.18860
 Alpha  occ. eigenvalues --  -19.18762 -19.18678 -19.18514 -19.17982 -19.17609
 Alpha  occ. eigenvalues --  -14.42377 -14.42285 -14.41382 -14.41133 -14.39329
 Alpha  occ. eigenvalues --  -14.39123 -14.38497 -14.38350 -10.38785 -10.38763
 Alpha  occ. eigenvalues --  -10.35399 -10.35197 -10.34201 -10.33790 -10.31521
 Alpha  occ. eigenvalues --  -10.31395 -10.31314 -10.31069 -10.30830 -10.30814
 Alpha  occ. eigenvalues --  -10.30476 -10.30423 -10.30164 -10.30148 -10.30100
 Alpha  occ. eigenvalues --  -10.29952 -10.29845 -10.29652 -10.29544 -10.29224
 Alpha  occ. eigenvalues --  -10.29189 -10.29149 -10.28672 -10.28538 -10.28529
 Alpha  occ. eigenvalues --  -10.28493 -10.28269 -10.28153 -10.28047 -10.27971
 Alpha  occ. eigenvalues --  -10.27728 -10.27693 -10.27657 -10.27505 -10.27488
 Alpha  occ. eigenvalues --  -10.27458 -10.27446 -10.27423 -10.27343 -10.27306
 Alpha  occ. eigenvalues --  -10.27293 -10.27243 -10.27225 -10.27185 -10.26970
 Alpha  occ. eigenvalues --  -10.26677 -10.26636 -10.26530 -10.26386 -10.26259
 Alpha  occ. eigenvalues --  -10.26218 -10.26169 -10.25991 -10.25958 -10.25899
 Alpha  occ. eigenvalues --  -10.25718 -10.25715 -10.25505 -10.25408 -10.25213
 Alpha  occ. eigenvalues --  -10.24770 -10.24720 -10.24714 -10.24587 -10.24583
 Alpha  occ. eigenvalues --  -10.24456  -3.16465  -3.16184  -1.91347  -1.91067
 Alpha  occ. eigenvalues --   -1.90933  -1.90775  -1.90655  -1.90491  -1.16346
 Alpha  occ. eigenvalues --   -1.16336  -1.08423  -1.08201  -1.07166  -1.06771
 Alpha  occ. eigenvalues --   -1.06636  -1.06313  -1.04501  -1.04273  -1.03691
 Alpha  occ. eigenvalues --   -1.03435  -1.03153  -1.02806  -1.02331  -1.01873
 Alpha  occ. eigenvalues --   -0.91853  -0.91711  -0.89477  -0.89280  -0.89115
 Alpha  occ. eigenvalues --   -0.88972  -0.88246  -0.88019  -0.87765  -0.87602
 Alpha  occ. eigenvalues --   -0.87512  -0.87464  -0.87212  -0.86910  -0.84909
 Alpha  occ. eigenvalues --   -0.84807  -0.83900  -0.83675  -0.82925  -0.82742
 Alpha  occ. eigenvalues --   -0.82564  -0.82454  -0.81428  -0.81339  -0.80483
 Alpha  occ. eigenvalues --   -0.80206  -0.78723  -0.78402  -0.77157  -0.76943
 Alpha  occ. eigenvalues --   -0.76843  -0.76691  -0.75808  -0.75615  -0.74835
 Alpha  occ. eigenvalues --   -0.74591  -0.72694  -0.72457  -0.71589  -0.71361
 Alpha  occ. eigenvalues --   -0.69901  -0.69578  -0.68797  -0.68626  -0.67549
 Alpha  occ. eigenvalues --   -0.67359  -0.67153  -0.67012  -0.65200  -0.65060
 Alpha  occ. eigenvalues --   -0.64756  -0.64544  -0.64521  -0.64429  -0.64216
 Alpha  occ. eigenvalues --   -0.63993  -0.62112  -0.62018  -0.60383  -0.60124
 Alpha  occ. eigenvalues --   -0.59725  -0.59591  -0.58899  -0.58755  -0.58403
 Alpha  occ. eigenvalues --   -0.58175  -0.57417  -0.57234  -0.57197  -0.56994
 Alpha  occ. eigenvalues --   -0.56218  -0.55963  -0.55791  -0.55641  -0.55439
 Alpha  occ. eigenvalues --   -0.55246  -0.55226  -0.55015  -0.54382  -0.54253
 Alpha  occ. eigenvalues --   -0.53815  -0.53727  -0.53224  -0.53135  -0.53005
 Alpha  occ. eigenvalues --   -0.52922  -0.52779  -0.52695  -0.52674  -0.52486
 Alpha  occ. eigenvalues --   -0.52410  -0.52215  -0.51790  -0.51570  -0.51532
 Alpha  occ. eigenvalues --   -0.51462  -0.51089  -0.50928  -0.50536  -0.50296
 Alpha  occ. eigenvalues --   -0.50008  -0.49858  -0.49792  -0.49667  -0.49433
 Alpha  occ. eigenvalues --   -0.49286  -0.49096  -0.49006  -0.48970  -0.48848
 Alpha  occ. eigenvalues --   -0.48471  -0.48391  -0.48328  -0.48313  -0.48160
 Alpha  occ. eigenvalues --   -0.48071  -0.47615  -0.47380  -0.47214  -0.46910
 Alpha  occ. eigenvalues --   -0.46729  -0.46498  -0.46474  -0.46365  -0.46280
 Alpha  occ. eigenvalues --   -0.46047  -0.46047  -0.45837  -0.45673  -0.45548
 Alpha  occ. eigenvalues --   -0.45151  -0.44998  -0.44464  -0.44437  -0.44312
 Alpha  occ. eigenvalues --   -0.44223  -0.44094  -0.44018  -0.43905  -0.43888
 Alpha  occ. eigenvalues --   -0.43865  -0.43671  -0.43350  -0.43319  -0.43315
 Alpha  occ. eigenvalues --   -0.43158  -0.42932  -0.42683  -0.42659  -0.42616
 Alpha  occ. eigenvalues --   -0.42425  -0.42357  -0.41952  -0.41766  -0.41594
 Alpha  occ. eigenvalues --   -0.41464  -0.41367  -0.41268  -0.41059  -0.40818
 Alpha  occ. eigenvalues --   -0.40776  -0.40768  -0.40538  -0.40520  -0.40519
 Alpha  occ. eigenvalues --   -0.40289  -0.40174  -0.40060  -0.39450  -0.39251
 Alpha  occ. eigenvalues --   -0.38433  -0.38162  -0.37678  -0.37476  -0.37270
 Alpha  occ. eigenvalues --   -0.37180  -0.37062  -0.36988  -0.36524  -0.36504
 Alpha  occ. eigenvalues --   -0.36019  -0.35992  -0.34201  -0.34016  -0.33572
 Alpha  occ. eigenvalues --   -0.33484  -0.33072  -0.32939  -0.31292  -0.31075
 Alpha  occ. eigenvalues --   -0.30947  -0.30742  -0.29838  -0.29512  -0.29370
 Alpha  occ. eigenvalues --   -0.29211  -0.29090  -0.28914  -0.23997  -0.23801
 Alpha  occ. eigenvalues --   -0.21051  -0.20886
 Alpha virt. eigenvalues --   -0.08690  -0.08544  -0.01681  -0.01464   0.00020
 Alpha virt. eigenvalues --    0.00202   0.02328   0.02532   0.03152   0.03443
 Alpha virt. eigenvalues --    0.04786   0.04925   0.05382   0.05477   0.06247

 Mulliken charges:
               1
     1  Mg   0.838253
     2  C   -0.002072
     3  C   -0.094485
     4  C   -0.046140
     5  C   -0.064680
     6  N   -0.256565
     7  C   -0.052680
     8  C   -0.013757
     9  C   -0.086884
    10  C    0.045947
    11  C    0.104886
    12  C    0.053537
    13  C   -0.071325
    14  H    0.035757
    15  N   -0.433054
    16  C    0.167984
    17  C   -0.177610
    18  C   -0.004339
    19  C    0.148527
    20  C    0.110317
    21  C    0.012018
    22  O   -0.250024
    23  C    0.062645
    24  N   -0.341068
    25  C    0.040954
    26  C   -0.028079
    27  C   -0.023932
    28  C    0.074837
    29  C    0.076217
    30  C    0.035289
    31  C   -0.004324
    32  N   -0.310817
    33  C    0.080487
    34  C   -0.169258
    35  C    0.009526
    36  C    0.083499
    37  C    0.126808
    38  C    0.048608
    39  O   -0.186202
    40  C   -0.006138
    41  C    0.212602
    42  O   -0.252272
    43  O   -0.305944
    44  C    0.156703
    45  H   -0.018007
    46  H   -0.017270
    47  H   -0.041689
    48  H    0.001255
    49  H   -0.004673
    50  H    0.025618
    51  H    0.016346
    52  H    0.016276
    53  H    0.009945
    54  H    0.045487
    55  H    0.018047
    56  H    0.016865
    57  H    0.005491
    58  H    0.026574
    59  H    0.038618
    60  H    0.037231
    61  H    0.035397
    62  H    0.030988
    63  H    0.015992
    64  H    0.009587
    65  H    0.022941
    66  H    0.012704
    67  H    0.004659
    68  H    0.006159
    69  H    0.004778
    70  H    0.008633
    71  H    0.015977
    72  H    0.029388
    73  H    0.049539
    74  H    0.008430
    75  H    0.045901
    76  H    0.034618
    77  H    0.042515
    78  H    0.044592
    79  H    0.057324
    80  Mg   0.837026
    81  C   -0.016589
    82  C   -0.088093
    83  C   -0.045780
    84  C   -0.065361
    85  N   -0.254247
    86  C   -0.049968
    87  C   -0.014823
    88  C   -0.090483
    89  C    0.045251
    90  C    0.114404
    91  C    0.062699
    92  C   -0.077340
    93  H    0.034488
    94  N   -0.423319
    95  C    0.162321
    96  C   -0.175337
    97  C   -0.008349
    98  C    0.151688
    99  C    0.099664
   100  C    0.015137
   101  O   -0.253802
   102  C    0.061386
   103  N   -0.350072
   104  C    0.037192
   105  C   -0.019647
   106  C   -0.034769
   107  C    0.089436
   108  C    0.073762
   109  C    0.034834
   110  C   -0.007554
   111  N   -0.324475
   112  C    0.078829
   113  C   -0.163607
   114  C    0.004275
   115  C    0.095489
   116  C    0.131779
   117  C    0.045584
   118  O   -0.180623
   119  C   -0.000038
   120  C    0.211505
   121  O   -0.251920
   122  O   -0.304963
   123  C    0.152460
   124  H   -0.020837
   125  H   -0.016145
   126  H   -0.040866
   127  H   -0.000540
   128  H   -0.005073
   129  H    0.022853
   130  H    0.014010
   131  H    0.014588
   132  H    0.013709
   133  H    0.038003
   134  H    0.020097
   135  H    0.019005
   136  H    0.007997
   137  H    0.025219
   138  H    0.039107
   139  H    0.037820
   140  H    0.035793
   141  H    0.033628
   142  H    0.013936
   143  H    0.012094
   144  H    0.024601
   145  H    0.011826
   146  H    0.005601
   147  H    0.005764
   148  H    0.003182
   149  H    0.010774
   150  H    0.017571
   151  H    0.030464
   152  H    0.046983
   153  H    0.006445
   154  H    0.050303
   155  H    0.039050
   156  H    0.043463
   157  H    0.048151
   158  H    0.053386
 Sum of Mulliken charges =  -0.00000

 Dipole moment (field-independent basis, Debye):
    X=              1.0894    Y=             -0.9350    Z=              7.9818  Tot=              8.1099
 Quadrupole moment (field-independent basis, Debye-Ang):
   XX=           -499.9335   YY=           -525.4146   ZZ=           -469.5919
   XY=            -20.2406   XZ=             -1.6893   YZ=             57.8867

 Normal termination of Gaussian 16 at Fri Sep 10 21:26:00 2021.
