 Gaussian 16, Revision A.03,
 Gaussian 16:  ES64L-G16RevA.03 25-Dec-2016

 -----------------------------------
 #p cam-b3lyp/Def2SVP td=(nstates=5)
 -----------------------------------

 --------------------------------
 TDDFT excited states in gaussian
 --------------------------------
 Symbolic Z-matrix:
 Charge =  0 Multiplicity = 1

                         Standard orientation:
 ---------------------------------------------------------------------
 Center     Atomic      Atomic             Coordinates (Angstroms)
 Number     Number       Type             X           Y           Z
 ---------------------------------------------------------------------
      1         12           0       -6.490371   -0.775056   -0.058335
      2          6           0       -6.783286    1.992281    2.192945
      3          6           0       -7.370197    1.364280   -2.566763
      4          6           0       -6.681605   -3.286176   -1.985593
      5          6           0       -6.752280   -2.868943    2.715237
      6          7           0       -6.987024    1.382251   -0.061309
      7          6           0       -7.004169    2.341538    0.858825
      8          6           0       -7.204382    3.766663    0.261912
      9          6           0       -7.928499    3.368974   -1.101721
     10          6           0       -7.369011    1.967849   -1.274194
     11          6           0       -9.446513    3.280427   -0.982157
     12          6           0       -5.844739    4.496627   -0.003145
     13          6           0       -5.952361    5.999891   -0.275116
     14          1           0       -4.901605    6.877675    0.217584
     15          7           0       -6.477724   -0.879928   -2.031072
     16          6           0       -6.853403    0.092559   -2.896184
     17          6           0       -6.661557   -0.470061   -4.250191
     18          6           0       -6.324322   -1.912890   -4.099817
     19          6           0       -6.509155   -2.092542   -2.682446
     20          6           0       -6.753226    0.347924   -5.501689
     21          6           0       -5.912591   -2.965599   -5.079823
     22          8           0       -5.892894   -4.207326   -4.776016
     23          6           0       -5.614026   -2.507876   -6.448907
     24          7           0       -6.908273   -2.792845    0.275610
     25          6           0       -6.869620   -3.680241   -0.724399
     26          6           0       -6.920850   -5.087543   -0.207859
     27          6           0       -6.757264   -4.982930    1.377086
     28          6           0       -6.720326   -3.440383    1.509210
     29          6           0       -8.195779   -5.875778   -0.538392
     30          6           0       -5.613932   -5.806021    2.021858
     31          6           0       -4.275190   -5.251152    1.589438
     32          7           0       -6.548569   -0.520837    2.096435
     33          6           0       -6.683816   -1.529702    3.061098
     34          6           0       -6.781662   -0.863030    4.372602
     35          6           0       -6.712747    0.496854    4.076272
     36          6           0       -6.606652    0.669638    2.666598
     37          6           0       -6.973305   -1.511133    5.624668
     38          6           0       -6.728845    1.844934    4.620586
     39          8           0       -6.706555    2.321934    5.756133
     40          6           0       -6.897819    2.870452    3.414109
     41          6           0       -5.875138    3.958727    3.596020
     42          8           0       -4.655771    3.714744    3.491213
     43          8           0       -6.493569    5.149140    3.627649
     44          6           0       -5.532785    6.274690    3.776601
     45          1           0       -7.862843    1.883393   -3.391240
     46          1           0       -6.641913   -4.184924   -2.604557
     47          1           0       -6.750797   -3.460424    3.632626
     48          1           0       -7.850212    4.419070    0.849868
     49          1           0       -7.616474    4.006095   -1.929029
     50          1           0       -9.771004    3.379250    0.053633
     51          1           0       -9.712374    2.297770   -1.372280
     52          1           0       -9.929676    4.004307   -1.638912
     53          1           0       -5.438392    4.163912   -0.958260
     54          1           0       -5.149468    4.328033    0.819959
     55          1           0       -6.933731    6.385839    0.002133
     56          1           0       -5.893809    6.157168   -1.352166
     57          1           0       -7.176959    1.332274   -5.306623
     58          1           0       -7.483562   -0.139054   -6.147577
     59          1           0       -5.795322    0.417895   -6.017301
     60          1           0       -6.494203   -2.016453   -6.864046
     61          1           0       -5.251167   -3.383349   -6.986244
     62          1           0       -4.831682   -1.749618   -6.404966
     63          1           0       -6.103428   -5.682741   -0.612812
     64          1           0       -7.652794   -5.314067    1.903441
     65          1           0       -8.008494   -6.806731   -1.074074
     66          1           0       -8.857313   -5.223344   -1.107597
     67          1           0       -8.818824   -6.118876    0.321919
     68          1           0       -5.655789   -6.841406    1.685447
     69          1           0       -5.647806   -5.809682    3.111394
     70          1           0       -4.113822   -5.729399    0.623999
     71          1           0       -3.498349   -5.534710    2.300299
     72          1           0       -4.327100   -4.176125    1.415919
     73          1           0       -6.295181   -1.025644    6.326392
     74          1           0       -6.770624   -2.579468    5.552667
     75          1           0       -8.026883   -1.297132    5.803646
     76          1           0       -7.916616    3.252886    3.468128
     77          1           0       -5.838034    6.843132    4.655198
     78          1           0       -5.514035    6.794913    2.818780
     79          1           0       -4.512411    6.004388    4.050669
     80         12           0        6.729772   -0.501920    0.151438
     81          6           0        5.769208    1.876301   -2.358631
     82          6           0        8.496762    2.007374    1.639980
     83          6           0        7.955328   -2.667354    2.120284
     84          6           0        5.862976   -3.018111   -2.098709
     85          7           0        7.018008    1.624503   -0.384755
     86          6           0        6.553982    2.431862   -1.326666
     87          6           0        6.886756    3.932331   -1.108934
     88          6           0        8.187883    3.758302   -0.183919
     89          6           0        7.872635    2.394581    0.427290
     90          6           0        9.478647    3.639351   -0.977090
     91          6           0        5.742463    4.694797   -0.353124
     92          6           0        5.860217    6.220325   -0.378727
     93          1           0        4.635115    7.011892   -0.449654
     94          7           0        7.621734   -0.279693    1.910305
     95          6           0        8.271995    0.813802    2.360526
     96          6           0        8.765978    0.464463    3.701463
     97          6           0        8.496333   -0.979663    3.939190
     98          6           0        8.022408   -1.378483    2.629067
     99          6           0        9.348529    1.477677    4.643513
    100          6           0        8.652779   -1.859330    5.142478
    101          8           0        8.582565   -3.136264    5.056764
    102          6           0        8.983310   -1.187078    6.407514
    103          7           0        7.088240   -2.540675   -0.041768
    104          6           0        7.580191   -3.256431    0.984689
    105          6           0        7.494719   -4.738292    0.706890
    106          6           0        6.617558   -4.876156   -0.623216
    107          6           0        6.413779   -3.380065   -0.948157
    108          6           0        8.829780   -5.456770    0.512512
    109          6           0        5.366321   -5.793545   -0.549154
    110          6           0        4.333958   -5.184960    0.372390
    111          7           0        5.785676   -0.595068   -1.789713
    112          6           0        5.542709   -1.749689   -2.565530
    113          6           0        4.985655   -1.297272   -3.856826
    114          6           0        4.964488    0.101573   -3.750651
    115          6           0        5.491285    0.494241   -2.490574
    116          6           0        4.624461   -2.137902   -4.947242
    117          6           0        4.626171    1.335788   -4.422193
    118          8           0        4.063766    1.624534   -5.477684
    119          6           0        5.249578    2.545346   -3.600797
    120          6           0        4.183979    3.594406   -3.438034
    121          8           0        3.166585    3.362260   -2.761555
    122          8           0        4.639387    4.764007   -3.922818
    123          6           0        3.621959    5.838467   -3.773824
    124          1           0        9.263193    2.659207    2.060212
    125          1           0        8.263563   -3.461089    2.804723
    126          1           0        5.476176   -3.745867   -2.815244
    127          1           0        7.141526    4.476579   -2.010405
    128          1           0        8.228516    4.522054    0.588338
    129          1           0        9.294272    3.572711   -2.039025
    130          1           0        9.961627    2.739309   -0.619728
    131          1           0       10.152769    4.463217   -0.725835
    132          1           0        5.844835    4.516520    0.725063
    133          1           0        4.779569    4.400427   -0.723012
    134          1           0        6.584521    6.565329   -1.126589
    135          1           0        6.280099    6.551995    0.574009
    136          1           0        9.570598    2.422063    4.131442
    137          1           0       10.328821    1.099683    4.953397
    138          1           0        8.731775    1.630491    5.531729
    139          1           0        9.913554   -0.636076    6.291340
    140          1           0        8.965775   -1.970259    7.167907
    141          1           0        8.204488   -0.447540    6.624598
    142          1           0        6.991332   -5.254816    1.514912
    143          1           0        7.200403   -5.301500   -1.453394
    144          1           0        8.977347   -6.300560    1.212741
    145          1           0        9.625997   -4.731820    0.617479
    146          1           0        9.002874   -5.846642   -0.489112
    147          1           0        5.632241   -6.762830   -0.120290
    148          1           0        4.911744   -5.982909   -1.515849
    149          1           0        4.670656   -5.502212    1.363891
    150          1           0        3.343146   -5.575080    0.148469
    151          1           0        4.377864   -4.090013    0.344080
    152          1           0        3.676527   -1.773702   -5.320430
    153          1           0        4.558240   -3.179838   -4.641056
    154          1           0        5.468893   -1.960214   -5.618536
    155          1           0        6.106768    2.916440   -4.163893
    156          1           0        3.455348    6.260993   -4.769506
    157          1           0        4.018272    6.519590   -2.997451
    158          1           0        2.616483    5.541973   -3.498933
 ---------------------------------------------------------------------

 SCF Done:  E(RCAM-B3LYP) =  -4069.81184725     A.U. after   19 cycles

 Excitation energies and oscillator strengths:

 Excited State   1:      Singlet-A      1.6664 eV  744.01 nm  f=0.0578  <S**2>=0.000
     309 -> 315        0.13410
     310 -> 316        0.10700
     311 -> 313        0.53730
     312 -> 314        0.42746
 This state for optimization and/or second-order correction.
 Total Energy, E(TD-HF/TD-DFT) =  -4069.75060672
 Copying the excited state density for this state as the 1-particle RhoCI density.

 Excited State   2:      Singlet-A      1.6888 eV  734.16 nm  f=0.6939  <S**2>=0.000
     309 -> 315       -0.11020
     310 -> 316        0.13913
     311 -> 313       -0.42661
     312 -> 314        0.53617

 Excited State   3:      Singlet-A      2.1850 eV  567.44 nm  f=0.0411  <S**2>=0.000
     309 -> 313        0.61091
     310 -> 314       -0.20096
     311 -> 315       -0.25856

 Excited State   4:      Singlet-A      2.1935 eV  565.23 nm  f=0.1476  <S**2>=0.000
     309 -> 313        0.19939
     310 -> 314        0.60851
     312 -> 316       -0.26495

 Excited State   5:      Singlet-A      2.6651 eV  465.21 nm  f=0.0000  <S**2>=0.000
     312 -> 313        0.70702

 The electronic state is 1-A.
 Alpha  occ. eigenvalues --  -46.87581 -46.87552 -19.26333 -19.26093 -19.19126
 Alpha  occ. eigenvalues --  -19.18810 -19.18630 -19.18565 -19.18012 -19.17957
 Alpha  occ. eigenvalues --  -14.42421 -14.42210 -14.41284 -14.41218 -14.39273
 Alpha  occ. eigenvalues --  -14.39156 -14.38525 -14.38349 -10.39055 -10.38871
 Alpha  occ. eigenvalues --  -10.35307 -10.35196 -10.34189 -10.34178 -10.31765
 Alpha  occ. eigenvalues --  -10.31513 -10.31240 -10.31174 -10.30948 -10.30664
 Alpha  occ. eigenvalues --  -10.30335 -10.30324 -10.30290 -10.30275 -10.30062
 Alpha  occ. eigenvalues --  -10.29974 -10.29825 -10.29703 -10.29395 -10.29358
 Alpha  occ. eigenvalues --  -10.29328 -10.29012 -10.28650 -10.28586 -10.28513
 Alpha  occ. eigenvalues --  -10.28332 -10.28307 -10.28124 -10.28074 -10.27933
 Alpha  occ. eigenvalues --  -10.27888 -10.27595 -10.27559 -10.27490 -10.27444
 Alpha  occ. eigenvalues --  -10.27413 -10.27390 -10.27379 -10.27340 -10.27306
 Alpha  occ. eigenvalues --  -10.27304 -10.27256 -10.27203 -10.27170 -10.27006
 Alpha  occ. eigenvalues --  -10.26946 -10.26608 -10.26440 -10.26318 -10.26124
 Alpha  occ. eigenvalues --  -10.26055 -10.26031 -10.26002 -10.25973 -10.25859
 Alpha  occ. eigenvalues --  -10.25803 -10.25791 -10.25649 -10.25338 -10.25261
 Alpha  occ. eigenvalues --  -10.24807 -10.24634 -10.24617 -10.24602 -10.24559
 Alpha  occ. eigenvalues --  -10.24497  -3.16330  -3.16294  -1.91212  -1.91175
 Alpha  occ. eigenvalues --   -1.90801  -1.90762  -1.90638  -1.90604  -1.16623
 Alpha  occ. eigenvalues --   -1.16438  -1.08623  -1.08419  -1.06966  -1.06914
 Alpha  occ. eigenvalues --   -1.06882  -1.06435  -1.04420  -1.04342  -1.03588
 Alpha  occ. eigenvalues --   -1.03527  -1.02996  -1.02964  -1.02176  -1.02038
 Alpha  occ. eigenvalues --   -0.91924  -0.91744  -0.89421  -0.89306  -0.89082
 Alpha  occ. eigenvalues --   -0.88955  -0.88147  -0.88077  -0.87731  -0.87649
 Alpha  occ. eigenvalues --   -0.87610  -0.87437  -0.87038  -0.87018  -0.84929
 Alpha  occ. eigenvalues --   -0.84748  -0.83805  -0.83735  -0.82849  -0.82719
 Alpha  occ. eigenvalues --   -0.82583  -0.82416  -0.81551  -0.81376  -0.80382
 Alpha  occ. eigenvalues --   -0.80370  -0.78561  -0.78553  -0.77074  -0.76995
 Alpha  occ. eigenvalues --   -0.76840  -0.76719  -0.75783  -0.75706  -0.74739
 Alpha  occ. eigenvalues --   -0.74694  -0.72630  -0.72548  -0.71516  -0.71453
 Alpha  occ. eigenvalues --   -0.69707  -0.69680  -0.68758  -0.68641  -0.67534
 Alpha  occ. eigenvalues --   -0.67410  -0.67122  -0.66973  -0.65206  -0.65055
 Alpha  occ. eigenvalues --   -0.64705  -0.64632  -0.64593  -0.64401  -0.64133
 Alpha  occ. eigenvalues --   -0.64055  -0.62235  -0.62093  -0.60262  -0.60200
 Alpha  occ. eigenvalues --   -0.59727  -0.59571  -0.58926  -0.58763  -0.58362
 Alpha  occ. eigenvalues --   -0.58279  -0.57508  -0.57370  -0.57168  -0.57088
 Alpha  occ. eigenvalues --   -0.56139  -0.56081  -0.55842  -0.55771  -0.55389
 Alpha  occ. eigenvalues --   -0.55284  -0.55188  -0.55137  -0.54433  -0.54322
 Alpha  occ. eigenvalues --   -0.53843  -0.53661  -0.53159  -0.53077  -0.53070
 Alpha  occ. eigenvalues --   -0.52983  -0.52840  -0.52694  -0.52587  -0.52504
 Alpha  occ. eigenvalues --   -0.52322  -0.52239  -0.51831  -0.51705  -0.51587
 Alpha  occ. eigenvalues --   -0.51375  -0.51143  -0.50980  -0.50389  -0.50305
 Alpha  occ. eigenvalues --   -0.49906  -0.49819  -0.49794  -0.49674  -0.49415
 Alpha  occ. eigenvalues --   -0.49279  -0.49139  -0.49047  -0.48986  -0.48876
 Alpha  occ. eigenvalues --   -0.48504  -0.48380  -0.48317  -0.48264  -0.48254
 Alpha  occ. eigenvalues --   -0.48206  -0.47528  -0.47466  -0.47068  -0.47049
 Alpha  occ. eigenvalues --   -0.46640  -0.46576  -0.46484  -0.46323  -0.46202
 Alpha  occ. eigenvalues --   -0.46133  -0.46025  -0.45951  -0.45775  -0.45617
 Alpha  occ. eigenvalues --   -0.45141  -0.44995  -0.44459  -0.44407  -0.44364
 Alpha  occ. eigenvalues --   -0.44270  -0.44067  -0.44007  -0.43922  -0.43870
 Alpha  occ. eigenvalues --   -0.43867  -0.43788  -0.43509  -0.43321  -0.43287
 Alpha  occ. eigenvalues --   -0.43160  -0.42890  -0.42844  -0.42807  -0.42496
 Alpha  occ. eigenvalues --   -0.42477  -0.42453  -0.41890  -0.41797  -0.41611
 Alpha  occ. eigenvalues --   -0.41482  -0.41387  -0.41304  -0.40925  -0.40920
 Alpha  occ. eigenvalues --   -0.40645  -0.40645  -0.40620  -0.40572  -0.40422
 Alpha  occ. eigenvalues --   -0.40363  -0.40148  -0.39984  -0.39344  -0.39241
 Alpha  occ. eigenvalues --   -0.38277  -0.38258  -0.37582  -0.37511  -0.37193
 Alpha  occ. eigenvalues --   -0.37127  -0.37103  -0.37025  -0.36734  -0.36509
 Alpha  occ. eigenvalues --   -0.36154  -0.35979  -0.34182  -0.34053  -0.33819
 Alpha  occ. eigenvalues --   -0.33555  -0.33104  -0.32954  -0.31190  -0.31097
 Alpha  occ. eigenvalues --   -0.30901  -0.30803  -0.29918  -0.29818  -0.29251
 Alpha  occ. eigenvalues --   -0.29205  -0.29143  -0.29087  -0.23962  -0.23845
 Alpha  occ. eigenvalues --   -0.21043  -0.20892
 Alpha virt. eigenvalues --   -0.08719  -0.08536  -0.01607  -0.01513   0.00047
 Alpha virt. eigenvalues --    0.00188   0.02266   0.02422   0.03351   0.03434
 Alpha virt. eigenvalues --    0.04801   0.04949   0.05201   0.05308   0.06246

 Mulliken charges:
               1
     1  Mg   0.840148
     2  C   -0.002592
     3  C   -0.093440
     4  C   -0.045961
     5  C   -0.064178
     6  N   -0.256748
     7  C   -0.052306
     8  C   -0.014268
     9  C   -0.087174
    10  C    0.046774
    11  C    0.104912
    12  C    0.053296
    13  C   -0.071500
    14  H    0.035579
    15  N   -0.433146
    16  C    0.169114
    17  C   -0.176442
    18  C   -0.003621
    19  C    0.149050
    20  C    0.110108
    21  C    0.012725
    22  O   -0.250220
    23  C    0.062034
    24  N   -0.341165
    25  C    0.041334
    26  C   -0.028090
    27  C   -0.023835
    28  C    0.074770
    29  C    0.076344
    30  C    0.035248
    31  C   -0.004467
    32  N   -0.310344
    33  C    0.080333
    34  C   -0.170027
    35  C    0.008070
    36  C    0.083126
    37  C    0.127378
    38  C    0.045956
    39  O   -0.189309
    40  C   -0.005360
    41  C    0.212593
    42  O   -0.256472
    43  O   -0.304955
    44  C    0.157952
    45  H   -0.017775
    46  H   -0.017200
    47  H   -0.042036
    48  H    0.000366
    49  H   -0.003803
    50  H    0.025154
    51  H    0.016287
    52  H    0.016313
    53  H    0.012751
    54  H    0.044655
    55  H    0.017119
    56  H    0.018121
    57  H    0.005787
    58  H    0.026292
    59  H    0.041405
    60  H    0.036924
    61  H    0.035329
    62  H    0.033495
    63  H    0.016316
    64  H    0.009018
    65  H    0.022801
    66  H    0.012492
    67  H    0.004389
    68  H    0.005742
    69  H    0.004447
    70  H    0.008432
    71  H    0.017770
    72  H    0.029862
    73  H    0.047174
    74  H    0.008812
    75  H    0.045511
    76  H    0.034681
    77  H    0.042205
    78  H    0.046380
    79  H    0.053559
    80  Mg   0.838763
    81  C   -0.016655
    82  C   -0.087650
    83  C   -0.045426
    84  C   -0.064830
    85  N   -0.254586
    86  C   -0.049709
    87  C   -0.015273
    88  C   -0.090558
    89  C    0.046009
    90  C    0.114421
    91  C    0.062437
    92  C   -0.077821
    93  H    0.034754
    94  N   -0.423486
    95  C    0.163307
    96  C   -0.174464
    97  C   -0.007600
    98  C    0.152347
    99  C    0.099382
   100  C    0.015866
   101  O   -0.253211
   102  C    0.061026
   103  N   -0.350075
   104  C    0.037572
   105  C   -0.019818
   106  C   -0.034801
   107  C    0.088919
   108  C    0.073728
   109  C    0.034719
   110  C   -0.007722
   111  N   -0.324061
   112  C    0.078499
   113  C   -0.163158
   114  C    0.001855
   115  C    0.096482
   116  C    0.131539
   117  C    0.042286
   118  O   -0.189043
   119  C    0.000954
   120  C    0.210793
   121  O   -0.250441
   122  O   -0.305705
   123  C    0.152334
   124  H   -0.019744
   125  H   -0.015586
   126  H   -0.040515
   127  H   -0.001058
   128  H   -0.004213
   129  H    0.022230
   130  H    0.014382
   131  H    0.016128
   132  H    0.014650
   133  H    0.038083
   134  H    0.020296
   135  H    0.019784
   136  H    0.008726
   137  H    0.025988
   138  H    0.040369
   139  H    0.038056
   140  H    0.036451
   141  H    0.034509
   142  H    0.014504
   143  H    0.012193
   144  H    0.025059
   145  H    0.011524
   146  H    0.005512
   147  H    0.006022
   148  H    0.003700
   149  H    0.010857
   150  H    0.018148
   151  H    0.030512
   152  H    0.045495
   153  H    0.008778
   154  H    0.046566
   155  H    0.034682
   156  H    0.043024
   157  H    0.049724
   158  H    0.053266
 Sum of Mulliken charges =  -0.00000

 Dipole moment (field-independent basis, Debye):
    X=              1.4610    Y=              3.0703    Z=             -1.7737  Tot=              3.8350
 Quadrupole moment (field-independent basis, Debye-Ang):
   XX=           -452.6874   YY=           -461.5109   ZZ=           -538.6563
   XY=             16.1558   XZ=             33.2966   YZ=             -9.5153

 Normal termination of Gaussian 16 at Sat Sep 11 08:02:14 2021.
