 Gaussian 16, Revision A.03,
 Gaussian 16:  ES64L-G16RevA.03 25-Dec-2016

 -----------------------------------
 #p cam-b3lyp/Def2SVP td=(nstates=5)
 -----------------------------------

 --------------------------------
 TDDFT excited states in gaussian
 --------------------------------
 Symbolic Z-matrix:
 Charge =  0 Multiplicity = 1

                         Standard orientation:
 ---------------------------------------------------------------------
 Center     Atomic      Atomic             Coordinates (Angstroms)
 Number     Number       Type             X           Y           Z
 ---------------------------------------------------------------------
      1         12           0      -15.792944   -0.750140   -0.136845
      2          6           0      -16.012365    2.612838    1.069158
      3          6           0      -16.626974    0.457903   -3.217119
      4          6           0      -16.050425   -3.752556   -1.124682
      5          6           0      -16.098497   -1.800227    3.172175
      6          7           0      -16.236863    1.295603   -0.856925
      7          6           0      -16.228188    2.505637   -0.306550
      8          6           0      -16.395175    3.656942   -1.342884
      9          6           0      -17.132370    2.847427   -2.501861
     10          6           0      -16.607661    1.455335   -2.197419
     11          6           0      -18.651770    2.839754   -2.368198
     12          6           0      -15.018845    4.225217   -1.827147
     13          6           0      -15.090506    5.555647   -2.582247
     14          1           0      -14.017366    6.521725   -2.402216
     15          7           0      -15.788065   -1.502805   -1.963405
     16          6           0      -16.142207   -0.863098   -3.103862
     17          6           0      -15.967708   -1.846865   -4.194016
     18          6           0      -15.665352   -3.166049   -3.572383
     19          6           0      -15.850767   -2.861607   -2.176563
     20          6           0      -16.042713   -1.487657   -5.646288
     21          6           0      -15.281995   -4.493457   -4.146105
     22          8           0      -15.291773   -5.564549   -3.448079
     23          6           0      -14.975975   -4.522331   -5.587827
     24          7           0      -16.259029   -2.532818    0.844205
     25          6           0      -16.244660   -3.702013    0.194773
     26          6           0      -16.328819   -4.857124    1.147965
     27          6           0      -16.158548   -4.237362    2.609695
     28          6           0      -16.083667   -2.739480    2.223675
     29          6           0      -17.623453   -5.679667    1.090035
     30          6           0      -15.033923   -4.827466    3.497060
     31          6           0      -13.683199   -4.479285    2.912756
     32          7           0      -15.839239    0.204779    1.811752
     33          6           0      -15.996492   -0.424067    3.055335
     34          6           0      -16.074595    0.641522    4.071449
     35          6           0      -15.973330    1.824426    3.341840
     36          6           0      -15.866777    1.517935    1.955116
     37          6           0      -16.278674    0.449508    5.466410
     38          6           0      -15.955123    3.276678    3.408850
     39          8           0      -15.918213    4.102208    4.322430
     40          6           0      -16.102230    3.848399    1.929890
     41          6           0      -15.052847    4.910746    1.746806
     42          8           0      -13.840072    4.616781    1.735533
     43          8           0      -15.641988    6.058841    1.378930
     44          6           0      -14.653661    7.146910    1.152057
     45          1           0      -17.108993    0.686219   -4.169732
     46          1           0      -16.034289   -4.806267   -1.410815
     47          1           0      -16.109012   -2.054302    4.233678
     48          1           0      -17.023355    4.482494   -1.007806
     49          1           0      -16.807090    3.166904   -3.491734
     50          1           0      -18.971019    3.283808   -1.425427
     51          1           0      -18.942536    1.789992   -2.412325
     52          1           0      -19.118874    3.316545   -3.230324
     53          1           0      -14.623253    3.585314   -2.615876
     54          1           0      -14.325720    4.322233   -0.990791
     55          1           0      -16.061440    6.034957   -2.453957
     56          1           0      -15.030981    5.345841   -3.650254
     57          1           0      -16.441807   -0.484443   -5.790619
     58          1           0      -16.786406   -2.143501   -6.098503
     59          1           0      -15.084752   -1.615319   -6.150615
     60          1           0      -15.845004   -4.175292   -6.147203
     61          1           0      -14.635986   -5.534766   -5.802844
     62          1           0      -14.175265   -3.811232   -5.793132
     63          1           0      -15.527222   -5.572195    0.967568
     64          1           0      -17.060491   -4.353975    3.211006
     65          1           0      -17.460333   -6.739694    0.893974
     66          1           0      -18.270385   -5.237008    0.333185
     67          1           0      -18.249966   -5.609126    1.978811
     68          1           0      -15.101897   -5.914520    3.522327
     69          1           0      -15.064999   -4.469215    4.526109
     70          1           0      -13.536086   -5.254032    2.161120
     71          1           0      -12.911627   -4.529835    3.681738
     72          1           0      -13.709344   -3.521507    2.392695
     73          1           0      -15.587066    1.123689    5.971511
     74          1           0      -16.102288   -0.586883    5.753438
     75          1           0      -17.326246    0.735803    5.558522
     76          1           0      -17.111256    4.251346    1.848508
     77          1           0      -14.942641    7.981401    1.791079
     78          1           0      -14.624762    7.319894    0.076117
     79          1           0      -13.639460    6.958366    1.505875
     80         12           0       15.962096   -0.743258    0.283117
     81          6           0       15.766124    2.747956   -0.524409
     82          6           0       15.128720   -1.387468   -2.961123
     83          6           0       15.684993   -3.805469    1.066379
     84          6           0       15.649486    0.156826    3.635405
     85          7           0       15.529001    0.591747   -1.426405
     86          6           0       15.545364    1.900417   -1.630026
     87          6           0       15.391735    2.322100   -3.116002
     88          6           0       14.639512    1.012190   -3.661142
     89          6           0       15.153711   -0.005589   -2.645079
     90          6           0       13.127115    1.090511   -3.535280
     91          6           0       16.776216    2.526535   -3.825520
     92          6           0       16.706175    3.234415   -5.180419
     93          1           0       17.792665    4.136932   -5.551181
     94          7           0       15.961653   -2.366103   -0.859228
     95          6           0       15.616380   -2.444415   -2.161509
     96          6           0       15.766332   -3.859915   -2.533067
     97          6           0       16.069723   -4.638514   -1.301628
     98          6           0       15.892813   -3.614233   -0.291850
     99          6           0       15.699807   -4.339671   -3.953917
    100          6           0       16.443161   -6.071372   -1.069938
    101          8           0       16.428384   -6.590016    0.102080
    102          6           0       16.736252   -6.874147   -2.266239
    103          7           0       15.492942   -1.705947    2.065100
    104          6           0       15.492376   -3.048066    2.146458
    105          6           0       15.398758   -3.507505    3.581918
    106          6           0       15.580992   -2.188628    4.467878
    107          6           0       15.662866   -1.135904    3.340723
    108          6           0       14.097213   -4.207127    3.972939
    109          6           0       16.703687   -2.211284    5.541066
    110          6           0       18.057885   -2.254327    4.870485
    111          7           0       15.931230    1.105467    1.400837
    112          6           0       15.764755    1.256691    2.794931
    113          6           0       15.696556    2.706461    3.070531
    114          6           0       15.805854    3.302259    1.804995
    115          6           0       15.912893    2.294442    0.808835
    116          6           0       15.504077    3.302065    4.348930
    117          6           0       15.844332    4.554361    1.084250
    118          8           0       15.881733    5.741227    1.406243
    119          6           0       15.693169    4.248666   -0.468188
    120          6           0       16.749968    5.029422   -1.200395
    121          8           0       17.955127    4.770668   -1.035289
    122          8           0       16.161407    5.800735   -2.132618
    123          6           0       17.169785    6.586216   -2.892886
    124          1           0       14.652743   -1.698375   -3.891537
    125          1           0       15.692642   -4.844814    1.402800
    126          1           0       15.651119    0.520897    4.665028
    127          1           0       14.776241    3.198836   -3.278098
    128          1           0       14.973151    0.753150   -4.662616
    129          1           0       12.813145    1.967925   -2.989649
    130          1           0       12.828640    0.192078   -3.011088
    131          1           0       12.662979    1.030892   -4.523897
    132          1           0       17.163228    1.549908   -4.143585
    133          1           0       17.461180    3.044078   -3.182407
    134          1           0       15.734188    3.715346   -5.344444
    135          1           0       16.768899    2.480908   -5.969281
    136          1           0       15.300513   -3.566101   -4.621413
    137          1           0       14.951830   -5.139248   -3.986744
    138          1           0       16.653943   -4.733439   -4.310646
    139          1           0       15.870145   -6.871919   -2.923739
    140          1           0       17.069248   -7.844424   -1.892689
    141          1           0       17.551851   -6.394120   -2.818500
    142          1           0       16.195189   -4.202436    3.818266
    143          1           0       14.674864   -1.958664    5.047425
    144          1           0       14.253900   -5.221815    4.385160
    145          1           0       13.455365   -4.245114    3.102803
    146          1           0       13.481181   -3.668664    4.691097
    147          1           0       16.629042   -3.116843    6.148153
    148          1           0       16.670030   -1.365206    6.219301
    149          1           0       18.192476   -3.318393    4.654265
    150          1           0       18.830371   -1.887490    5.543329
    151          1           0       18.039429   -1.722939    3.911874
    152          1           0       16.194325    4.132735    4.412510
    153          1           0       15.668803    2.585022    5.150479
    154          1           0       14.454056    3.596409    4.270861
    155          1           0       14.686216    4.545519   -0.764009
    156          1           0       16.884627    7.639387   -2.807981
    157          1           0       17.185082    6.148840   -3.908874
    158          1           0       18.182092    6.609399   -2.506703
 ---------------------------------------------------------------------

 SCF Done:  E(RCAM-B3LYP) =  -4069.81177422     A.U. after   19 cycles

 Excitation energies and oscillator strengths:

 Excited State   1:      Singlet-A      1.6754 eV  740.04 nm  f=0.2622  <S**2>=0.000
     310 -> 316        0.16989
     311 -> 314       -0.14041
     312 -> 313        0.67153
     310 <- 316        0.10241
 This state for optimization and/or second-order correction.
 Total Energy, E(TD-HF/TD-DFT) =  -4069.75020517
 Copying the excited state density for this state as the 1-particle RhoCI density.

 Excited State   2:      Singlet-A      1.6800 eV  737.99 nm  f=0.5147  <S**2>=0.000
     309 -> 315        0.17186
     311 -> 314        0.67117
     312 -> 313        0.14038
     309 <- 315        0.10290

 Excited State   3:      Singlet-A      2.1861 eV  567.15 nm  f=0.0976  <S**2>=0.000
     310 -> 313        0.64223
     312 -> 316       -0.27303

 Excited State   4:      Singlet-A      2.1925 eV  565.49 nm  f=0.1029  <S**2>=0.000
     309 -> 314        0.64046
     311 -> 315       -0.27817

 Excited State   5:      Singlet-A      3.0658 eV  404.42 nm  f=0.0000  <S**2>=0.000
     311 -> 313        0.70711

 The electronic state is 1-A.
 Alpha  occ. eigenvalues --  -46.87796 -46.87660 -19.26351 -19.26279 -19.19162
 Alpha  occ. eigenvalues --  -19.19016 -19.18817 -19.18714 -19.18167 -19.18051
 Alpha  occ. eigenvalues --  -14.42498 -14.42449 -14.41449 -14.41359 -14.39402
 Alpha  occ. eigenvalues --  -14.39352 -14.38600 -14.38586 -10.39092 -10.39076
 Alpha  occ. eigenvalues --  -10.35450 -10.35392 -10.34387 -10.34228 -10.31759
 Alpha  occ. eigenvalues --  -10.31673 -10.31404 -10.31309 -10.31024 -10.30908
 Alpha  occ. eigenvalues --  -10.30569 -10.30507 -10.30398 -10.30361 -10.30207
 Alpha  occ. eigenvalues --  -10.30140 -10.29920 -10.29894 -10.29630 -10.29437
 Alpha  occ. eigenvalues --  -10.29401 -10.29254 -10.28747 -10.28720 -10.28658
 Alpha  occ. eigenvalues --  -10.28535 -10.28405 -10.28364 -10.28141 -10.28115
 Alpha  occ. eigenvalues --  -10.28001 -10.27792 -10.27726 -10.27669 -10.27584
 Alpha  occ. eigenvalues --  -10.27516 -10.27501 -10.27484 -10.27483 -10.27468
 Alpha  occ. eigenvalues --  -10.27465 -10.27450 -10.27402 -10.27374 -10.27156
 Alpha  occ. eigenvalues --  -10.27051 -10.26702 -10.26695 -10.26416 -10.26414
 Alpha  occ. eigenvalues --  -10.26233 -10.26184 -10.26136 -10.26026 -10.26019
 Alpha  occ. eigenvalues --  -10.25934 -10.25849 -10.25841 -10.25436 -10.25394
 Alpha  occ. eigenvalues --  -10.24873 -10.24832 -10.24787 -10.24730 -10.24690
 Alpha  occ. eigenvalues --  -10.24687  -3.16539  -3.16410  -1.91420  -1.91293
 Alpha  occ. eigenvalues --   -1.91007  -1.90881  -1.90849  -1.90718  -1.16645
 Alpha  occ. eigenvalues --   -1.16628  -1.08658  -1.08625  -1.07218  -1.06967
 Alpha  occ. eigenvalues --   -1.06947  -1.06638  -1.04580  -1.04496  -1.03760
 Alpha  occ. eigenvalues --   -1.03663  -1.03233  -1.03039  -1.02410  -1.02111
 Alpha  occ. eigenvalues --   -0.91987  -0.91971  -0.89519  -0.89494  -0.89186
 Alpha  occ. eigenvalues --   -0.89152  -0.88287  -0.88219  -0.87869  -0.87793
 Alpha  occ. eigenvalues --   -0.87684  -0.87672  -0.87275  -0.87121  -0.85001
 Alpha  occ. eigenvalues --   -0.84981  -0.83936  -0.83875  -0.82969  -0.82932
 Alpha  occ. eigenvalues --   -0.82653  -0.82647  -0.81597  -0.81583  -0.80595
 Alpha  occ. eigenvalues --   -0.80443  -0.78797  -0.78636  -0.77218  -0.77145
 Alpha  occ. eigenvalues --   -0.76932  -0.76899  -0.75921  -0.75840  -0.74897
 Alpha  occ. eigenvalues --   -0.74802  -0.72773  -0.72699  -0.71671  -0.71581
 Alpha  occ. eigenvalues --   -0.69907  -0.69757  -0.68872  -0.68828  -0.67640
 Alpha  occ. eigenvalues --   -0.67602  -0.67219  -0.67201  -0.65285  -0.65273
 Alpha  occ. eigenvalues --   -0.64852  -0.64770  -0.64654  -0.64619  -0.64269
 Alpha  occ. eigenvalues --   -0.64203  -0.62295  -0.62279  -0.60442  -0.60340
 Alpha  occ. eigenvalues --   -0.59803  -0.59797  -0.58993  -0.58986  -0.58503
 Alpha  occ. eigenvalues --   -0.58426  -0.57582  -0.57555  -0.57308  -0.57236
 Alpha  occ. eigenvalues --   -0.56309  -0.56205  -0.55975  -0.55888  -0.55520
 Alpha  occ. eigenvalues --   -0.55453  -0.55338  -0.55247  -0.54521  -0.54488
 Alpha  occ. eigenvalues --   -0.53914  -0.53893  -0.53298  -0.53228  -0.53221
 Alpha  occ. eigenvalues --   -0.53142  -0.52913  -0.52903  -0.52756  -0.52669
 Alpha  occ. eigenvalues --   -0.52438  -0.52400  -0.51913  -0.51884  -0.51660
 Alpha  occ. eigenvalues --   -0.51615  -0.51201  -0.51194  -0.50574  -0.50476
 Alpha  occ. eigenvalues --   -0.50031  -0.49980  -0.49919  -0.49867  -0.49514
 Alpha  occ. eigenvalues --   -0.49488  -0.49213  -0.49203  -0.49105  -0.49094
 Alpha  occ. eigenvalues --   -0.48591  -0.48559  -0.48461  -0.48445  -0.48375
 Alpha  occ. eigenvalues --   -0.48339  -0.47694  -0.47595  -0.47296  -0.47118
 Alpha  occ. eigenvalues --   -0.46796  -0.46709  -0.46555  -0.46554  -0.46358
 Alpha  occ. eigenvalues --   -0.46270  -0.46161  -0.46085  -0.45822  -0.45819
 Alpha  occ. eigenvalues --   -0.45208  -0.45201  -0.44576  -0.44515  -0.44507
 Alpha  occ. eigenvalues --   -0.44477  -0.44144  -0.44128  -0.44087  -0.44078
 Alpha  occ. eigenvalues --   -0.44018  -0.43940  -0.43554  -0.43492  -0.43386
 Alpha  occ. eigenvalues --   -0.43385  -0.43026  -0.42931  -0.42901  -0.42696
 Alpha  occ. eigenvalues --   -0.42653  -0.42553  -0.42008  -0.41964  -0.41703
 Alpha  occ. eigenvalues --   -0.41669  -0.41532  -0.41460  -0.41140  -0.40990
 Alpha  occ. eigenvalues --   -0.40868  -0.40824  -0.40723  -0.40699  -0.40571
 Alpha  occ. eigenvalues --   -0.40493  -0.40232  -0.40229  -0.39441  -0.39424
 Alpha  occ. eigenvalues --   -0.38468  -0.38350  -0.37746  -0.37656  -0.37320
 Alpha  occ. eigenvalues --   -0.37266  -0.37262  -0.37200  -0.36772  -0.36710
 Alpha  occ. eigenvalues --   -0.36217  -0.36191  -0.34285  -0.34254  -0.33863
 Alpha  occ. eigenvalues --   -0.33767  -0.33185  -0.33176  -0.31346  -0.31273
 Alpha  occ. eigenvalues --   -0.31035  -0.30973  -0.30026  -0.29956  -0.29449
 Alpha  occ. eigenvalues --   -0.29327  -0.29321  -0.29211  -0.24080  -0.24036
 Alpha  occ. eigenvalues --   -0.21127  -0.21117
 Alpha virt. eigenvalues --   -0.08792  -0.08774  -0.01749  -0.01684  -0.00058
 Alpha virt. eigenvalues --   -0.00029   0.02202   0.02207   0.03123   0.03226
 Alpha virt. eigenvalues --    0.04719   0.04729   0.05102   0.05164   0.06179

 Mulliken charges:
               1
     1  Mg   0.838710
     2  C   -0.002969
     3  C   -0.094126
     4  C   -0.045872
     5  C   -0.063965
     6  N   -0.256781
     7  C   -0.052465
     8  C   -0.014003
     9  C   -0.087004
    10  C    0.046336
    11  C    0.104815
    12  C    0.053456
    13  C   -0.071813
    14  H    0.036168
    15  N   -0.433136
    16  C    0.168423
    17  C   -0.177159
    18  C   -0.004027
    19  C    0.148713
    20  C    0.110178
    21  C    0.012271
    22  O   -0.249643
    23  C    0.062482
    24  N   -0.341140
    25  C    0.041232
    26  C   -0.028167
    27  C   -0.023989
    28  C    0.074858
    29  C    0.076175
    30  C    0.035131
    31  C   -0.004503
    32  N   -0.310479
    33  C    0.080432
    34  C   -0.169700
    35  C    0.008365
    36  C    0.082998
    37  C    0.127308
    38  C    0.046124
    39  O   -0.188398
    40  C   -0.005325
    41  C    0.212875
    42  O   -0.257092
    43  O   -0.304797
    44  C    0.157675
    45  H   -0.017608
    46  H   -0.016856
    47  H   -0.041485
    48  H    0.000954
    49  H   -0.004035
    50  H    0.025482
    51  H    0.016440
    52  H    0.016660
    53  H    0.011192
    54  H    0.044136
    55  H    0.017879
    56  H    0.017937
    57  H    0.005878
    58  H    0.026812
    59  H    0.039520
    60  H    0.037347
    61  H    0.035614
    62  H    0.031482
    63  H    0.016537
    64  H    0.009467
    65  H    0.023196
    66  H    0.012546
    67  H    0.004757
    68  H    0.006357
    69  H    0.004743
    70  H    0.008761
    71  H    0.018149
    72  H    0.028989
    73  H    0.047595
    74  H    0.009114
    75  H    0.046019
    76  H    0.035162
    77  H    0.042976
    78  H    0.046402
    79  H    0.053712
    80  Mg   0.837840
    81  C   -0.016824
    82  C   -0.087788
    83  C   -0.045473
    84  C   -0.064848
    85  N   -0.254553
    86  C   -0.049849
    87  C   -0.015103
    88  C   -0.090499
    89  C    0.045753
    90  C    0.114374
    91  C    0.062536
    92  C   -0.077891
    93  H    0.034884
    94  N   -0.423482
    95  C    0.162910
    96  C   -0.174611
    97  C   -0.007806
    98  C    0.152102
    99  C    0.099355
   100  C    0.015580
   101  O   -0.253165
   102  C    0.061200
   103  N   -0.350031
   104  C    0.037501
   105  C   -0.019848
   106  C   -0.034812
   107  C    0.088922
   108  C    0.073630
   109  C    0.034714
   110  C   -0.007675
   111  N   -0.324119
   112  C    0.078441
   113  C   -0.163105
   114  C    0.002234
   115  C    0.096209
   116  C    0.131483
   117  C    0.042403
   118  O   -0.187850
   119  C    0.000903
   120  C    0.211258
   121  O   -0.251029
   122  O   -0.305624
   123  C    0.152036
   124  H   -0.019665
   125  H   -0.015550
   126  H   -0.040416
   127  H   -0.000642
   128  H   -0.004345
   129  H    0.022487
   130  H    0.014455
   131  H    0.016267
   132  H    0.013914
   133  H    0.037677
   134  H    0.020784
   135  H    0.019580
   136  H    0.008751
   137  H    0.026158
   138  H    0.039789
   139  H    0.038255
   140  H    0.036405
   141  H    0.033886
   142  H    0.014401
   143  H    0.012476
   144  H    0.025161
   145  H    0.011661
   146  H    0.005736
   147  H    0.006291
   148  H    0.003674
   149  H    0.010932
   150  H    0.017937
   151  H    0.030082
   152  H    0.046010
   153  H    0.008534
   154  H    0.047007
   155  H    0.035052
   156  H    0.043916
   157  H    0.049477
   158  H    0.053576
 Sum of Mulliken charges =  -0.00000

 Dipole moment (field-independent basis, Debye):
    X=             -3.8985    Y=             -2.3254    Z=             -7.5401  Tot=              8.8011
 Quadrupole moment (field-independent basis, Debye-Ang):
   XX=           -516.5000   YY=           -543.4591   ZZ=           -455.4158
   XY=            -37.8448   XZ=             11.3784   YZ=            -40.8104

 Normal termination of Gaussian 16 at Sat Sep  4 19:44:24 2021.
