 Gaussian 16, Revision A.03,
 Gaussian 16:  ES64L-G16RevA.03 25-Dec-2016

 -----------------------------------
 #p cam-b3lyp/Def2SVP td=(nstates=5)
 -----------------------------------

 --------------------------------
 TDDFT excited states in gaussian
 --------------------------------
 Symbolic Z-matrix:
 Charge =  0 Multiplicity = 1

                         Standard orientation:
 ---------------------------------------------------------------------
 Center     Atomic      Atomic             Coordinates (Angstroms)
 Number     Number       Type             X           Y           Z
 ---------------------------------------------------------------------
      1         12           0       -6.395092   -0.853439    0.048204
      2          6           0       -6.685840    2.045623    2.127416
      3          6           0       -7.340321    1.115233   -2.573615
      4          6           0       -6.586373   -3.481944   -1.715597
      5          6           0       -6.587727   -2.772870    2.950675
      6          7           0       -6.917810    1.293830   -0.080819
      7          6           0       -6.932010    2.308438    0.777982
      8          6           0       -7.158878    3.691211    0.096919
      9          6           0       -7.899608    3.201157   -1.227152
     10          6           0       -7.325996    1.798293   -1.321315
     11          6           0       -9.414357    3.103408   -1.077214
     12          6           0       -5.812535    4.418246   -0.235512
     13          6           0       -5.942637    5.900312   -0.598702
     14          1           0       -4.894922    6.818748   -0.179039
     15          7           0       -6.412383   -1.081114   -1.914120
     16          6           0       -6.813444   -0.168760   -2.831750
     17          6           0       -6.636243   -0.812647   -4.151101
     18          6           0       -6.279230   -2.239443   -3.916816
     19          6           0       -6.439430   -2.332301   -2.488149
     20          6           0       -6.757593   -0.075454   -5.449396
     21          6           0       -5.870337   -3.346645   -4.836078
     22          8           0       -5.830806   -4.566689   -4.455941
     23          6           0       -5.599029   -2.972000   -6.235748
     24          7           0       -6.783201   -2.850958    0.513956
     25          6           0       -6.749630   -3.798567   -0.429385
     26          6           0       -6.775642   -5.171360    0.174522
     27          6           0       -6.588285   -4.966196    1.746959
     28          6           0       -6.567938   -3.418096    1.782189
     29          6           0       -8.046005   -5.992790   -0.085175
     30          6           0       -5.425016   -5.734693    2.422709
     31          6           0       -4.100097   -5.193079    1.934506
     32          7           0       -6.422272   -0.465859    2.183640
     33          6           0       -6.530019   -1.413972    3.211330
     34          6           0       -6.615171   -0.667853    4.480237
     35          6           0       -6.567420    0.671560    4.098742
     36          6           0       -6.485736    0.757171    2.679485
     37          6           0       -6.779124   -1.238614    5.773212
     38          6           0       -6.591225    2.050729    4.558288
     39          8           0       -6.556752    2.597907    5.661420
     40          6           0       -6.791664    2.996991    3.293282
     41          6           0       -5.779484    4.105780    3.390163
     42          8           0       -4.559064    3.869276    3.280589
     43          8           0       -6.411703    5.288911    3.357865
     44          6           0       -5.462380    6.432156    3.420561
     45          1           0       -7.852195    1.576364   -3.420542
     46          1           0       -6.545600   -4.417083   -2.277994
     47          1           0       -6.564572   -3.305873    3.902948
     48          1           0       -7.803179    4.371843    0.653732
     49          1           0       -7.608444    3.788811   -2.097559
     50          1           0       -9.723595    3.263094   -0.044357
     51          1           0       -9.674440    2.095423   -1.400969
     52          1           0       -9.916576    3.779470   -1.769668
     53          1           0       -5.417349    4.031084   -1.174658
     54          1           0       -5.102341    4.309092    0.584875
     55          1           0       -6.924098    6.291902   -0.329816
     56          1           0       -5.903037    5.990684   -1.684273
     57          1           0       -7.190073    0.914391   -5.308993
     58          1           0       -7.492105   -0.609878   -6.051553
     59          1           0       -5.808882   -0.027184   -5.984139
     60          1           0       -6.491548   -2.517249   -6.666051
     61          1           0       -5.234143   -3.875229   -6.723481
     62          1           0       -4.825325   -2.203843   -6.252034
     63          1           0       -5.957583   -5.781570   -0.206067
     64          1           0       -7.471302   -5.273745    2.307646
     65          1           0       -7.855960   -6.953234   -0.564900
     66          1           0       -8.724309   -5.384544   -0.682863
     67          1           0       -8.652374   -6.188605    0.798787
     68          1           0       -5.459652   -6.789460    2.152131
     69          1           0       -5.441604   -5.670704    3.510772
     70          1           0       -3.948243   -5.728845    0.998169
     71          1           0       -3.308733   -5.423069    2.648689
     72          1           0       -4.167756   -4.131624    1.695296
     73          1           0       -6.095912   -0.702770    6.432045
     74          1           0       -6.564689   -2.307045    5.764501
     75          1           0       -7.832253   -1.025562    5.955927
     76          1           0       -7.814035    3.370722    3.340239
     77          1           0       -5.760553    7.050915    4.267003
     78          1           0       -5.465082    6.891745    2.432039
     79          1           0       -4.434602    6.190829    3.694004
     80         12           0        6.825713   -0.420756    0.023246
     81          6           0        4.901965    1.846282   -1.986423
     82          6           0        9.119849    2.078061    0.380297
     83          6           0        8.751779   -2.523012    1.415455
     84          6           0        5.001278   -3.020974   -1.410620
     85          7           0        6.890096    1.650411   -0.750302
     86          6           0        6.073622    2.421820   -1.452177
     87          6           0        6.498920    3.913077   -1.521692
     88          6           0        8.071253    3.727486   -1.252979
     89          6           0        8.031401    2.422550   -0.460367
     90          6           0        8.874812    3.491746   -2.521072
     91          6           0        5.823246    4.780153   -0.402027
     92          6           0        5.948575    6.292832   -0.596598
     93          1           0        4.835084    7.142382   -0.183246
     94          7           0        8.408446   -0.138452    1.186786
     95          6           0        9.212976    0.944625    1.217550
     96          6           0       10.242291    0.652665    2.227220
     97          6           0       10.076357   -0.757778    2.671976
     98          6           0        9.063423   -1.210683    1.739818
     99          6           0       11.202204    1.689542    2.734050
    100          6           0       10.731333   -1.568894    3.748695
    101          8           0       10.604405   -2.843157    3.803226
    102          6           0       11.601353   -0.838642    4.682115
    103          7           0        7.019960   -2.483657   -0.147120
    104          6           0        7.900766   -3.160056    0.610910
    105          6           0        7.670945   -4.649560    0.516434
    106          6           0        6.292998   -4.822215   -0.276689
    107          6           0        5.996987   -3.340234   -0.595270
    108          6           0        8.767067   -5.448407   -0.188382
    109          6           0        5.185411   -5.665688    0.412127
    110          6           0        4.680316   -4.947736    1.642904
    111          7           0        5.118184   -0.582834   -1.290568
    112          6           0        4.533394   -1.768446   -1.786984
    113          6           0        3.471619   -1.367354   -2.732599
    114          6           0        3.528171    0.034529   -2.738216
    115          6           0        4.566227    0.475408   -1.873602
    116          6           0        2.647983   -2.253069   -3.483094
    117          6           0        2.952774    1.241322   -3.287065
    118          8           0        1.987253    1.494068   -4.006540
    119          6           0        3.899906    2.464330   -2.921581
    120          6           0        3.038083    3.576431   -2.389573
    121          8           0        2.420773    3.440559   -1.318561
    122          8           0        3.255586    4.688230   -3.115503
    123          6           0        2.431384    5.822244   -2.619001
    124          1           0       10.006219    2.712930    0.367821
    125          1           0        9.314884   -3.288407    1.954487
    126          1           0        4.322500   -3.769869   -1.824262
    127          1           0        6.339355    4.386619   -2.482976
    128          1           0        8.465113    4.534032   -0.640017
    129          1           0        8.238073    3.369833   -3.384691
    130          1           0        9.447627    2.591028   -2.343167
    131          1           0        9.607150    4.292599   -2.657624
    132          1           0        6.388681    4.663308    0.531453
    133          1           0        4.790319    4.515083   -0.286154
    134          1           0        6.273855    6.552330   -1.611389
    135          1           0        6.753497    6.659708    0.044898
    136          1           0       11.193852    2.587569    2.104059
    137          1           0       12.210447    1.279871    2.609666
    138          1           0       11.045631    1.929147    3.787963
    139          1           0       12.395075   -0.345910    4.125629
    140          1           0       11.906269   -1.571565    5.431593
    141          1           0       11.014353   -0.046898    5.160870
    142          1           0        7.566853   -5.088039    1.501319
    143          1           0        6.439316   -5.328077   -1.242367
    144          1           0        9.192122   -6.254202    0.439396
    145          1           0        9.542089   -4.761616   -0.501740
    146          1           0        8.470897   -5.907720   -1.129926
    147          1           0        5.593880   -6.619517    0.754941
    148          1           0        4.346117   -5.889729   -0.237775
    149          1           0        5.414584   -5.220854    2.406669
    150          1           0        3.685018   -5.297792    1.909167
    151          1           0        4.729458   -3.860459    1.512248
    152          1           0        1.640424   -1.862755   -3.428494
    153          1           0        2.702908   -3.269241   -3.098190
    154          1           0        3.111427   -2.162005   -4.469097
    155          1           0        4.426626    2.754133   -3.831602
    156          1           0        1.849869    6.191012   -3.469610
    157          1           0        3.144224    6.527824   -2.152363
    158          1           0        1.645667    5.596937   -1.907426
 ---------------------------------------------------------------------

 SCF Done:  E(RCAM-B3LYP) =  -4069.81164465     A.U. after   19 cycles

 Excitation energies and oscillator strengths:

 Excited State   1:      Singlet-A      1.6677 eV  743.44 nm  f=0.1754  <S**2>=0.000
     309 -> 315        0.13682
     310 -> 316       -0.10376
     311 -> 313        0.54708
     312 -> 314       -0.41473
 This state for optimization and/or second-order correction.
 Total Energy, E(TD-HF/TD-DFT) =  -4069.75035759
 Copying the excited state density for this state as the 1-particle RhoCI density.

 Excited State   2:      Singlet-A      1.6873 eV  734.82 nm  f=0.5923  <S**2>=0.000
     309 -> 315        0.10659
     310 -> 316        0.14124
     311 -> 313        0.41400
     312 -> 314        0.54607

 Excited State   3:      Singlet-A      2.1843 eV  567.62 nm  f=0.0332  <S**2>=0.000
     309 -> 313        0.60014
     310 -> 314        0.23194
     311 -> 315       -0.25347

 Excited State   4:      Singlet-A      2.1931 eV  565.34 nm  f=0.1540  <S**2>=0.000
     309 -> 313       -0.23016
     310 -> 314        0.59751
     311 -> 315        0.10030
     312 -> 316       -0.26002

 Excited State   5:      Singlet-A      2.6167 eV  473.81 nm  f=0.0000  <S**2>=0.000
     312 -> 313        0.70677

 The electronic state is 1-A.
 Alpha  occ. eigenvalues --  -46.87582 -46.87454 -19.26299 -19.25974 -19.19079
 Alpha  occ. eigenvalues --  -19.18678 -19.18641 -19.18497 -19.18009 -19.17859
 Alpha  occ. eigenvalues --  -14.42422 -14.42114 -14.41285 -14.41129 -14.39276
 Alpha  occ. eigenvalues --  -14.39061 -14.38523 -14.38251 -10.39014 -10.38743
 Alpha  occ. eigenvalues --  -10.35319 -10.35129 -10.34184 -10.34079 -10.31730
 Alpha  occ. eigenvalues --  -10.31399 -10.31239 -10.31077 -10.30950 -10.30567
 Alpha  occ. eigenvalues --  -10.30324 -10.30288 -10.30239 -10.30185 -10.30065
 Alpha  occ. eigenvalues --  -10.29894 -10.29822 -10.29620 -10.29361 -10.29328
 Alpha  occ. eigenvalues --  -10.29306 -10.28922 -10.28651 -10.28583 -10.28410
 Alpha  occ. eigenvalues --  -10.28332 -10.28210 -10.28078 -10.28027 -10.27932
 Alpha  occ. eigenvalues --  -10.27793 -10.27597 -10.27467 -10.27444 -10.27411
 Alpha  occ. eigenvalues --  -10.27397 -10.27396 -10.27392 -10.27306 -10.27251
 Alpha  occ. eigenvalues --  -10.27244 -10.27197 -10.27116 -10.27074 -10.26995
 Alpha  occ. eigenvalues --  -10.26842 -10.26606 -10.26341 -10.26316 -10.26067
 Alpha  occ. eigenvalues --  -10.26055 -10.25979 -10.25958 -10.25949 -10.25858
 Alpha  occ. eigenvalues --  -10.25787 -10.25706 -10.25568 -10.25339 -10.25210
 Alpha  occ. eigenvalues --  -10.24804 -10.24635 -10.24618 -10.24508 -10.24473
 Alpha  occ. eigenvalues --  -10.24460  -3.16331  -3.16195  -1.91213  -1.91076
 Alpha  occ. eigenvalues --   -1.90802  -1.90664  -1.90639  -1.90506  -1.16588
 Alpha  occ. eigenvalues --   -1.16317  -1.08616  -1.08318  -1.06900  -1.06894
 Alpha  occ. eigenvalues --   -1.06871  -1.06306  -1.04422  -1.04245  -1.03589
 Alpha  occ. eigenvalues --   -1.03438  -1.02964  -1.02904  -1.02084  -1.02037
 Alpha  occ. eigenvalues --   -0.91919  -0.91647  -0.89420  -0.89232  -0.89084
 Alpha  occ. eigenvalues --   -0.88857  -0.88147  -0.88006  -0.87725  -0.87611
 Alpha  occ. eigenvalues --   -0.87559  -0.87344  -0.87047  -0.86934  -0.84930
 Alpha  occ. eigenvalues --   -0.84654  -0.83803  -0.83669  -0.82859  -0.82648
 Alpha  occ. eigenvalues --   -0.82585  -0.82328  -0.81538  -0.81277  -0.80377
 Alpha  occ. eigenvalues --   -0.80277  -0.78564  -0.78466  -0.77075  -0.76913
 Alpha  occ. eigenvalues --   -0.76834  -0.76628  -0.75778  -0.75612  -0.74737
 Alpha  occ. eigenvalues --   -0.74620  -0.72628  -0.72460  -0.71515  -0.71367
 Alpha  occ. eigenvalues --   -0.69680  -0.69647  -0.68759  -0.68550  -0.67533
 Alpha  occ. eigenvalues --   -0.67322  -0.67126  -0.66878  -0.65204  -0.64958
 Alpha  occ. eigenvalues --   -0.64700  -0.64587  -0.64539  -0.64312  -0.64131
 Alpha  occ. eigenvalues --   -0.63978  -0.62219  -0.61991  -0.60267  -0.60120
 Alpha  occ. eigenvalues --   -0.59728  -0.59475  -0.58923  -0.58674  -0.58357
 Alpha  occ. eigenvalues --   -0.58189  -0.57492  -0.57267  -0.57167  -0.57005
 Alpha  occ. eigenvalues --   -0.56135  -0.55991  -0.55828  -0.55666  -0.55387
 Alpha  occ. eigenvalues --   -0.55202  -0.55181  -0.55057  -0.54421  -0.54233
 Alpha  occ. eigenvalues --   -0.53843  -0.53562  -0.53158  -0.53074  -0.52987
 Alpha  occ. eigenvalues --   -0.52893  -0.52830  -0.52598  -0.52598  -0.52422
 Alpha  occ. eigenvalues --   -0.52321  -0.52177  -0.51819  -0.51617  -0.51588
 Alpha  occ. eigenvalues --   -0.51280  -0.51139  -0.50891  -0.50402  -0.50230
 Alpha  occ. eigenvalues --   -0.49910  -0.49797  -0.49753  -0.49592  -0.49417
 Alpha  occ. eigenvalues --   -0.49191  -0.49135  -0.49047  -0.48894  -0.48786
 Alpha  occ. eigenvalues --   -0.48495  -0.48314  -0.48289  -0.48272  -0.48175
 Alpha  occ. eigenvalues --   -0.48126  -0.47528  -0.47381  -0.47050  -0.46985
 Alpha  occ. eigenvalues --   -0.46638  -0.46492  -0.46485  -0.46227  -0.46199
 Alpha  occ. eigenvalues --   -0.46045  -0.46017  -0.45863  -0.45762  -0.45523
 Alpha  occ. eigenvalues --   -0.45140  -0.44924  -0.44452  -0.44408  -0.44272
 Alpha  occ. eigenvalues --   -0.44192  -0.44067  -0.44006  -0.43874  -0.43845
 Alpha  occ. eigenvalues --   -0.43778  -0.43701  -0.43494  -0.43319  -0.43190
 Alpha  occ. eigenvalues --   -0.43073  -0.42869  -0.42838  -0.42720  -0.42478
 Alpha  occ. eigenvalues --   -0.42406  -0.42367  -0.41889  -0.41718  -0.41608
 Alpha  occ. eigenvalues --   -0.41393  -0.41387  -0.41213  -0.40925  -0.40834
 Alpha  occ. eigenvalues --   -0.40650  -0.40626  -0.40562  -0.40497  -0.40422
 Alpha  occ. eigenvalues --   -0.40288  -0.40152  -0.39880  -0.39345  -0.39185
 Alpha  occ. eigenvalues --   -0.38278  -0.38186  -0.37580  -0.37413  -0.37192
 Alpha  occ. eigenvalues --   -0.37127  -0.37024  -0.36926  -0.36704  -0.36402
 Alpha  occ. eigenvalues --   -0.36145  -0.35883  -0.34179  -0.33959  -0.33779
 Alpha  occ. eigenvalues --   -0.33428  -0.33101  -0.32859  -0.31200  -0.31029
 Alpha  occ. eigenvalues --   -0.30900  -0.30713  -0.29914  -0.29719  -0.29255
 Alpha  occ. eigenvalues --   -0.29142  -0.29114  -0.28993  -0.23962  -0.23751
 Alpha  occ. eigenvalues --   -0.21044  -0.20801
 Alpha virt. eigenvalues --   -0.08720  -0.08445  -0.01609  -0.01425   0.00042
 Alpha virt. eigenvalues --    0.00274   0.02269   0.02514   0.03348   0.03575
 Alpha virt. eigenvalues --    0.04801   0.05042   0.05234   0.05430   0.06251

 Mulliken charges:
               1
     1  Mg   0.841129
     2  C   -0.002080
     3  C   -0.093052
     4  C   -0.046257
     5  C   -0.064383
     6  N   -0.256703
     7  C   -0.052024
     8  C   -0.014414
     9  C   -0.087244
    10  C    0.047023
    11  C    0.104963
    12  C    0.053216
    13  C   -0.071243
    14  H    0.035123
    15  N   -0.433054
    16  C    0.169471
    17  C   -0.176139
    18  C   -0.003681
    19  C    0.149117
    20  C    0.110143
    21  C    0.012599
    22  O   -0.250701
    23  C    0.061909
    24  N   -0.341164
    25  C    0.041327
    26  C   -0.028015
    27  C   -0.023794
    28  C    0.074805
    29  C    0.076432
    30  C    0.035337
    31  C   -0.004441
    32  N   -0.310388
    33  C    0.080506
    34  C   -0.170021
    35  C    0.008074
    36  C    0.083445
    37  C    0.127350
    38  C    0.046204
    39  O   -0.189311
    40  C   -0.005523
    41  C    0.212375
    42  O   -0.255393
    43  O   -0.305217
    44  C    0.157940
    45  H   -0.017999
    46  H   -0.017579
    47  H   -0.042293
    48  H    0.000164
    49  H   -0.003825
    50  H    0.025057
    51  H    0.016145
    52  H    0.016072
    53  H    0.013459
    54  H    0.045543
    55  H    0.016805
    56  H    0.017888
    57  H    0.005742
    58  H    0.025858
    59  H    0.041787
    60  H    0.036802
    61  H    0.034770
    62  H    0.033915
    63  H    0.015958
    64  H    0.008882
    65  H    0.022519
    66  H    0.012496
    67  H    0.004252
    68  H    0.005415
    69  H    0.004396
    70  H    0.007985
    71  H    0.017326
    72  H    0.030456
    73  H    0.047286
    74  H    0.008601
    75  H    0.045330
    76  H    0.034435
    77  H    0.041920
    78  H    0.046120
    79  H    0.054066
    80  Mg   0.838710
    81  C   -0.016507
    82  C   -0.087783
    83  C   -0.045474
    84  C   -0.064844
    85  N   -0.254572
    86  C   -0.049703
    87  C   -0.015221
    88  C   -0.090537
    89  C    0.045931
    90  C    0.114460
    91  C    0.062454
    92  C   -0.077878
    93  H    0.035082
    94  N   -0.423459
    95  C    0.163141
    96  C   -0.174631
    97  C   -0.007745
    98  C    0.152218
    99  C    0.099415
   100  C    0.015708
   101  O   -0.253230
   102  C    0.061123
   103  N   -0.350109
   104  C    0.037560
   105  C   -0.019818
   106  C   -0.034809
   107  C    0.088947
   108  C    0.073729
   109  C    0.034694
   110  C   -0.007673
   111  N   -0.324160
   112  C    0.078635
   113  C   -0.162768
   114  C    0.001900
   115  C    0.096757
   116  C    0.131320
   117  C    0.042846
   118  O   -0.189336
   119  C    0.000838
   120  C    0.210524
   121  O   -0.249209
   122  O   -0.306071
   123  C    0.152083
   124  H   -0.019846
   125  H   -0.015639
   126  H   -0.040335
   127  H   -0.001085
   128  H   -0.004311
   129  H    0.022164
   130  H    0.014362
   131  H    0.016056
   132  H    0.014324
   133  H    0.038463
   134  H    0.020222
   135  H    0.019585
   136  H    0.008680
   137  H    0.025953
   138  H    0.040006
   139  H    0.038090
   140  H    0.036361
   141  H    0.034177
   142  H    0.014467
   143  H    0.012260
   144  H    0.025038
   145  H    0.011489
   146  H    0.005528
   147  H    0.006013
   148  H    0.003812
   149  H    0.010831
   150  H    0.018021
   151  H    0.030584
   152  H    0.045925
   153  H    0.009161
   154  H    0.046286
   155  H    0.034384
   156  H    0.042435
   157  H    0.049546
   158  H    0.054457
 Sum of Mulliken charges =  -0.00000

 Dipole moment (field-independent basis, Debye):
    X=              2.1003    Y=              2.8227    Z=             -3.6974  Tot=              5.1039
 Quadrupole moment (field-independent basis, Debye-Ang):
   XX=           -450.2652   YY=           -465.0011   ZZ=           -529.1943
   XY=             25.6577   XZ=             18.8354   YZ=            -22.4710

 Normal termination of Gaussian 16 at Sat Sep 11 09:20:24 2021.
