 Gaussian 16, Revision A.03,
 Gaussian 16:  ES64L-G16RevA.03 25-Dec-2016

 -----------------------------------
 #p cam-b3lyp/Def2SVP td=(nstates=5)
 -----------------------------------

 --------------------------------
 TDDFT excited states in gaussian
 --------------------------------
 Symbolic Z-matrix:
 Charge =  0 Multiplicity = 1

                         Standard orientation:
 ---------------------------------------------------------------------
 Center     Atomic      Atomic             Coordinates (Angstroms)
 Number     Number       Type             X           Y           Z
 ---------------------------------------------------------------------
      1         12           0       -7.959207   -0.532964    0.186728
      2          6           0       -8.039960    3.011611    0.678339
      3          6           0       -8.885060    0.044105   -3.046360
      4          6           0       -8.336350   -3.663642   -0.149777
      5          6           0       -8.158114   -0.869321    3.649813
      6          7           0       -8.377377    1.335122   -0.925045
      7          6           0       -8.314188    2.631416   -0.637296
      8          6           0       -8.492380    3.550169   -1.882894
      9          6           0       -9.297262    2.545567   -2.823606
     10          6           0       -8.797865    1.228567   -2.256121
     11          6           0      -10.809655    2.617810   -2.639353
     12          6           0       -7.122194    3.959076   -2.520949
     13          6           0       -7.188998    5.107549   -3.531840
     14          1           0       -6.084112    6.052499   -3.592200
     15          7           0       -8.048456   -1.644715   -1.443884
     16          6           0       -8.431421   -1.241288   -2.679146
     17          6           0       -8.327528   -2.433535   -3.547727
     18          6           0       -8.035415   -3.606380   -2.677556
     19          6           0       -8.155889   -3.015337   -1.369301
     20          6           0       -8.451797   -2.378145   -5.039451
     21          6           0       -7.711104   -5.035758   -2.977281
     22          8           0       -7.721057   -5.939517   -2.073017
     23          6           0       -7.464696   -5.370868   -4.391504
     24          7           0       -8.432384   -2.058811    1.530427
     25          6           0       -8.475488   -3.336316    1.136592
     26          6           0       -8.551619   -4.267242    2.310269
     27          6           0       -8.305763   -3.366491    3.605629
     28          6           0       -8.206770   -1.983421    2.916001
     29          6           0       -9.868967   -5.039090    2.467928
     30          6           0       -7.162169   -3.799934    4.556807
     31          6           0       -5.827472   -3.625971    3.867301
     32          7           0       -7.900993    0.803109    1.896279
     33          6           0       -8.024349    0.449097    3.247623
     34          6           0       -8.032786    1.702835    4.023599
     35          6           0       -7.929761    2.706311    3.062211
     36          6           0       -7.887740    2.117847    1.765972
     37          6           0       -8.185148    1.808788    5.434270
     38          6           0       -7.870212    4.139822    2.826929
     39          8           0       -7.774320    5.133740    3.548334
     40          6           0       -8.061927    4.400054    1.267650
     41          6           0       -6.992936    5.365339    0.833147
     42          8           0       -5.789869    5.033787    0.841405
     43          8           0       -7.565756    6.432878    0.256275
     44          6           0       -6.558843    7.416419   -0.224273
     45          1           0       -9.399078    0.088184   -4.008536
     46          1           0       -8.359879   -4.753585   -0.212308
     47          1           0       -8.132318   -0.899265    4.740634
     48          1           0       -9.084260    4.448081   -1.704408
     49          1           0       -9.004018    2.643372   -3.868672
     50          1           0      -11.078469    3.256882   -1.798373
     51          1           0      -11.129803    1.592032   -2.455568
     52          1           0      -11.298494    2.922995   -3.564921
     53          1           0       -6.776089    3.157493   -3.173435
     54          1           0       -6.393376    4.202027   -1.746917
     55          1           0       -8.140830    5.636109   -3.472261
     56          1           0       -7.178449    4.680777   -4.534813
     57          1           0       -8.829580   -1.412896   -5.374293
     58          1           0       -9.230410   -3.086954   -5.320629
     59          1           0       -7.518819   -2.639624   -5.538964
     60          1           0       -8.346158   -5.116530   -4.980474
     61          1           0       -7.160770   -6.416966   -4.404107
     62          1           0       -6.654335   -4.745131   -4.766626
     63          1           0       -7.777312   -5.031269    2.254264
     64          1           0       -9.185355   -3.325916    4.248548
     65          1           0       -9.742199   -6.121753    2.489747
     66          1           0      -10.534060   -4.739463    1.658505
     67          1           0      -10.456812   -4.765858    3.343827
     68          1           0       -7.257964   -4.855587    4.808533
     69          1           0       -7.141932   -3.236963    5.490029
     70          1           0       -5.731638   -4.543264    3.287455
     71          1           0       -5.026960   -3.543894    4.603274
     72          1           0       -5.849196   -2.795222    3.161702
     73          1           0       -7.455926    2.548194    5.765151
     74          1           0       -8.024905    0.848084    5.923118
     75          1           0       -9.220132    2.143772    5.500992
     76          1           0       -9.062343    4.812140    1.139297
     77          1           0       -6.799355    8.373878    0.237961
     78          1           0       -6.569021    7.363454   -1.313078
     79          1           0       -5.536501    7.269850    0.125974
     80         12           0        7.909946   -1.030324   -0.156864
     81          6           0        8.756431    2.435275    0.233242
     82          6           0        6.203097   -0.142277   -2.973363
     83          6           0        6.774969   -3.990630   -0.282611
     84          6           0        8.684695   -1.455740    3.214264
     85          7           0        7.594247    0.925260   -1.140879
     86          6           0        8.015562    2.164142   -0.935956
     87          6           0        7.689156    3.153184   -2.086968
     88          6           0        6.429401    2.381755   -2.716886
     89          6           0        6.773644    0.957888   -2.284725
     90          6           0        5.105984    2.768138   -2.077654
     91          6           0        8.863220    3.275751   -3.120682
     92          6           0        8.741117    4.448200   -4.096490
     93          1           0        9.960282    5.132104   -4.518854
     94          7           0        7.093978   -2.029917   -1.664694
     95          6           0        6.461278   -1.510528   -2.737640
     96          6           0        6.026184   -2.661330   -3.544190
     97          6           0        6.308991   -3.905149   -2.777606
     98          6           0        6.726993   -3.343515   -1.508786
     99          6           0        5.482467   -2.520298   -4.936272
    100          6           0        6.206378   -5.359606   -3.124379
    101          8           0        6.275644   -6.272255   -2.227115
    102          6           0        5.929074   -5.679926   -4.532208
    103          7           0        7.547987   -2.464824    1.303797
    104          6           0        7.102212   -3.689821    0.974265
    105          6           0        7.178918   -4.633034    2.151061
    106          6           0        7.998362   -3.848167    3.278029
    107          6           0        8.184687   -2.494196    2.558697
    108          6           0        5.838312   -5.092386    2.723921
    109          6           0        9.253634   -4.556352    3.857211
    110          6           0       10.323340   -4.661650    2.794173
    111          7           0        8.769886    0.187280    1.407109
    112          6           0        8.981800   -0.179215    2.754279
    113          6           0        9.481799    1.019558    3.458104
    114          6           0        9.504437    2.014290    2.468923
    115          6           0        9.031459    1.478894    1.240450
    116          6           0        9.797611    1.099453    4.843750
    117          6           0        9.810846    3.398279    2.187178
    118          8           0       10.326697    4.319717    2.818509
    119          6           0        9.220685    3.765663    0.757797
    120          6           0       10.289993    4.488771   -0.014345
    121          8           0       11.336055    3.903245   -0.345307
    122          8           0        9.811590    5.678886   -0.420714
    123          6           0       10.832114    6.428806   -1.200431
    124          1           0        5.454027    0.057500   -3.740081
    125          1           0        6.498210   -5.047372   -0.296032
    126          1           0        9.041924   -1.532081    4.243458
    127          1           0        7.394648    4.144574   -1.764203
    128          1           0        6.420346    2.459523   -3.800967
    129          1           0        5.244653    3.412492   -1.222249
    130          1           0        4.640797    1.837813   -1.779086
    131          1           0        4.441478    3.211121   -2.825016
    132          1           0        8.807700    2.437162   -3.826677
    133          1           0        9.809958    3.320747   -2.618395
    134          1           0        7.984564    5.174528   -3.775530
    135          1           0        8.361873    4.069195   -5.048617
    136          1           0        5.236509   -1.476694   -5.168244
    137          1           0        4.517251   -3.037791   -4.956514
    138          1           0        6.136510   -2.962618   -5.690752
    139          1           0        4.993492   -5.213319   -4.831218
    140          1           0        5.981025   -6.768317   -4.599975
    141          1           0        6.714895   -5.235805   -5.153393
    142          1           0        7.717722   -5.535321    1.888993
    143          1           0        7.381293   -3.649613    4.166647
    144          1           0        5.722858   -6.192657    2.736079
    145          1           0        5.045752   -4.633208    2.148126
    146          1           0        5.623156   -4.743422    3.732449
    147          1           0        9.008535   -5.579304    4.153277
    148          1           0        9.666628   -4.059096    4.728510
    149          1           0       10.030302   -5.556511    2.237003
    150          1           0       11.304455   -4.783368    3.248731
    151          1           0       10.275858   -3.812474    2.102584
    152          1           0       10.727817    1.646617    4.920017
    153          1           0        9.879236    0.110787    5.290574
    154          1           0        8.924701    1.645351    5.211572
    155          1           0        8.339255    4.387911    0.917370
    156          1           0       10.954828    7.401355   -0.713830
    157          1           0       10.468068    6.430576   -2.245040
    158          1           0       11.849134    6.054785   -1.185002
 ---------------------------------------------------------------------

 SCF Done:  E(RCAM-B3LYP) =  -4069.81171309     A.U. after   19 cycles

 Excitation energies and oscillator strengths:

 Excited State   1:      Singlet-A      1.6700 eV  742.41 nm  f=0.0453  <S**2>=0.000
     309 -> 315       -0.10296
     310 -> 316        0.13837
     311 -> 313       -0.40822
     312 -> 314        0.55176
 This state for optimization and/or second-order correction.
 Total Energy, E(TD-HF/TD-DFT) =  -4069.75034106
 Copying the excited state density for this state as the 1-particle RhoCI density.

 Excited State   2:      Singlet-A      1.6848 eV  735.88 nm  f=0.7146  <S**2>=0.000
     309 -> 315        0.14226
     310 -> 316        0.10460
     311 -> 313        0.55095
     312 -> 314        0.40770

 Excited State   3:      Singlet-A      2.1853 eV  567.36 nm  f=0.0581  <S**2>=0.000
     309 -> 313       -0.13757
     310 -> 314        0.62792
     312 -> 316       -0.26616

 Excited State   4:      Singlet-A      2.1929 eV  565.38 nm  f=0.1351  <S**2>=0.000
     309 -> 313        0.62587
     310 -> 314        0.13648
     311 -> 315       -0.27218

 Excited State   5:      Singlet-A      2.7556 eV  449.93 nm  f=0.0000  <S**2>=0.000
     312 -> 313        0.70709

 The electronic state is 1-A.
 Alpha  occ. eigenvalues --  -46.87868 -46.87591 -19.26366 -19.26287 -19.19103
 Alpha  occ. eigenvalues --  -19.19099 -19.18882 -19.18660 -19.18236 -19.17981
 Alpha  occ. eigenvalues --  -14.42523 -14.42427 -14.41517 -14.41290 -14.39474
 Alpha  occ. eigenvalues --  -14.39285 -14.38657 -14.38531 -10.39161 -10.39027
 Alpha  occ. eigenvalues --  -10.35516 -10.35339 -10.34457 -10.34158 -10.31764
 Alpha  occ. eigenvalues --  -10.31700 -10.31478 -10.31236 -10.30986 -10.30955
 Alpha  occ. eigenvalues --  -10.30641 -10.30575 -10.30330 -10.30292 -10.30273
 Alpha  occ. eigenvalues --  -10.30075 -10.29984 -10.29825 -10.29700 -10.29371
 Alpha  occ. eigenvalues --  -10.29337 -10.29324 -10.28835 -10.28651 -10.28648
 Alpha  occ. eigenvalues --  -10.28606 -10.28437 -10.28337 -10.28198 -10.28062
 Alpha  occ. eigenvalues --  -10.27934 -10.27862 -10.27800 -10.27655 -10.27600
 Alpha  occ. eigenvalues --  -10.27564 -10.27555 -10.27502 -10.27476 -10.27454
 Alpha  occ. eigenvalues --  -10.27425 -10.27414 -10.27404 -10.27310 -10.27231
 Alpha  occ. eigenvalues --  -10.26978 -10.26810 -10.26636 -10.26484 -10.26377
 Alpha  occ. eigenvalues --  -10.26307 -10.26231 -10.26086 -10.26082 -10.25919
 Alpha  occ. eigenvalues --  -10.25899 -10.25867 -10.25779 -10.25482 -10.25325
 Alpha  occ. eigenvalues --  -10.24901 -10.24854 -10.24804 -10.24734 -10.24680
 Alpha  occ. eigenvalues --  -10.24622  -3.16611  -3.16341  -1.91493  -1.91223
 Alpha  occ. eigenvalues --   -1.91079  -1.90921  -1.90812  -1.90649  -1.16715
 Alpha  occ. eigenvalues --   -1.16581  -1.08694  -1.08588  -1.07282  -1.06914
 Alpha  occ. eigenvalues --   -1.06883  -1.06724  -1.04654  -1.04425  -1.03829
 Alpha  occ. eigenvalues --   -1.03595  -1.03303  -1.02971  -1.02480  -1.02043
 Alpha  occ. eigenvalues --   -0.92043  -0.91917  -0.89581  -0.89429  -0.89271
 Alpha  occ. eigenvalues --   -0.89077  -0.88346  -0.88155  -0.87936  -0.87747
 Alpha  occ. eigenvalues --   -0.87725  -0.87617  -0.87347  -0.87065  -0.85063
 Alpha  occ. eigenvalues --   -0.84932  -0.83994  -0.83813  -0.83036  -0.82880
 Alpha  occ. eigenvalues --   -0.82726  -0.82588  -0.81661  -0.81532  -0.80670
 Alpha  occ. eigenvalues --   -0.80378  -0.78869  -0.78575  -0.77289  -0.77079
 Alpha  occ. eigenvalues --   -0.77010  -0.76832  -0.75998  -0.75768  -0.74959
 Alpha  occ. eigenvalues --   -0.74736  -0.72842  -0.72631  -0.71741  -0.71509
 Alpha  occ. eigenvalues --   -0.69963  -0.69696  -0.68951  -0.68761  -0.67712
 Alpha  occ. eigenvalues --   -0.67537  -0.67306  -0.67142  -0.65366  -0.65204
 Alpha  occ. eigenvalues --   -0.64925  -0.64703  -0.64693  -0.64588  -0.64332
 Alpha  occ. eigenvalues --   -0.64139  -0.62372  -0.62214  -0.60511  -0.60280
 Alpha  occ. eigenvalues --   -0.59882  -0.59725  -0.59056  -0.58925  -0.58573
 Alpha  occ. eigenvalues --   -0.58359  -0.57657  -0.57486  -0.57375  -0.57173
 Alpha  occ. eigenvalues --   -0.56380  -0.56140  -0.56058  -0.55824  -0.55592
 Alpha  occ. eigenvalues --   -0.55403  -0.55392  -0.55183  -0.54591  -0.54424
 Alpha  occ. eigenvalues --   -0.53978  -0.53841  -0.53368  -0.53299  -0.53165
 Alpha  occ. eigenvalues --   -0.53078  -0.52989  -0.52838  -0.52833  -0.52613
 Alpha  occ. eigenvalues --   -0.52493  -0.52343  -0.51977  -0.51815  -0.51699
 Alpha  occ. eigenvalues --   -0.51597  -0.51265  -0.51135  -0.50648  -0.50426
 Alpha  occ. eigenvalues --   -0.50093  -0.49991  -0.49914  -0.49804  -0.49591
 Alpha  occ. eigenvalues --   -0.49426  -0.49286  -0.49172  -0.49136  -0.49032
 Alpha  occ. eigenvalues --   -0.48665  -0.48524  -0.48514  -0.48490  -0.48310
 Alpha  occ. eigenvalues --   -0.48282  -0.47767  -0.47532  -0.47367  -0.47057
 Alpha  occ. eigenvalues --   -0.46866  -0.46643  -0.46638  -0.46487  -0.46427
 Alpha  occ. eigenvalues --   -0.46228  -0.46207  -0.46019  -0.45892  -0.45754
 Alpha  occ. eigenvalues --   -0.45261  -0.45142  -0.44648  -0.44580  -0.44448
 Alpha  occ. eigenvalues --   -0.44410  -0.44211  -0.44165  -0.44091  -0.44057
 Alpha  occ. eigenvalues --   -0.44018  -0.43880  -0.43567  -0.43489  -0.43458
 Alpha  occ. eigenvalues --   -0.43318  -0.43096  -0.42867  -0.42833  -0.42772
 Alpha  occ. eigenvalues --   -0.42718  -0.42492  -0.42076  -0.41902  -0.41773
 Alpha  occ. eigenvalues --   -0.41614  -0.41600  -0.41394  -0.41211  -0.40945
 Alpha  occ. eigenvalues --   -0.40917  -0.40897  -0.40665  -0.40636  -0.40633
 Alpha  occ. eigenvalues --   -0.40427  -0.40328  -0.40168  -0.39496  -0.39365
 Alpha  occ. eigenvalues --   -0.38532  -0.38285  -0.37838  -0.37593  -0.37385
 Alpha  occ. eigenvalues --   -0.37345  -0.37200  -0.37133  -0.36788  -0.36708
 Alpha  occ. eigenvalues --   -0.36264  -0.36151  -0.34356  -0.34185  -0.33851
 Alpha  occ. eigenvalues --   -0.33799  -0.33257  -0.33108  -0.31411  -0.31219
 Alpha  occ. eigenvalues --   -0.31106  -0.30905  -0.30096  -0.29885  -0.29520
 Alpha  occ. eigenvalues --   -0.29390  -0.29264  -0.29143  -0.24151  -0.23966
 Alpha  occ. eigenvalues --   -0.21197  -0.21049
 Alpha virt. eigenvalues --   -0.08844  -0.08725  -0.01819  -0.01616  -0.00130
 Alpha virt. eigenvalues --    0.00033   0.02133   0.02276   0.03039   0.03288
 Alpha virt. eigenvalues --    0.04640   0.04799   0.05018   0.05229   0.06084

 Mulliken charges:
               1
     1  Mg   0.838561
     2  C   -0.003100
     3  C   -0.094380
     4  C   -0.045786
     5  C   -0.063834
     6  N   -0.256791
     7  C   -0.052541
     8  C   -0.013970
     9  C   -0.086970
    10  C    0.046225
    11  C    0.104798
    12  C    0.053568
    13  C   -0.071622
    14  H    0.035604
    15  N   -0.433151
    16  C    0.168321
    17  C   -0.177313
    18  C   -0.004013
    19  C    0.148672
    20  C    0.110210
    21  C    0.012282
    22  O   -0.249356
    23  C    0.062528
    24  N   -0.341129
    25  C    0.041254
    26  C   -0.028237
    27  C   -0.024003
    28  C    0.074833
    29  C    0.076117
    30  C    0.035095
    31  C   -0.004533
    32  N   -0.310493
    33  C    0.080409
    34  C   -0.169598
    35  C    0.008412
    36  C    0.082977
    37  C    0.127294
    38  C    0.046164
    39  O   -0.188239
    40  C   -0.005368
    41  C    0.212958
    42  O   -0.257351
    43  O   -0.304712
    44  C    0.157696
    45  H   -0.017636
    46  H   -0.016658
    47  H   -0.041303
    48  H    0.001048
    49  H   -0.004253
    50  H    0.025575
    51  H    0.016566
    52  H    0.016675
    53  H    0.010825
    54  H    0.043948
    55  H    0.018160
    56  H    0.017751
    57  H    0.005763
    58  H    0.026967
    59  H    0.039109
    60  H    0.037382
    61  H    0.035845
    62  H    0.031068
    63  H    0.016709
    64  H    0.009586
    65  H    0.023383
    66  H    0.012540
    67  H    0.004860
    68  H    0.006557
    69  H    0.004800
    70  H    0.008947
    71  H    0.018233
    72  H    0.028778
    73  H    0.047697
    74  H    0.009234
    75  H    0.046143
    76  H    0.035266
    77  H    0.043185
    78  H    0.046222
    79  H    0.053542
    80  Mg   0.838028
    81  C   -0.016807
    82  C   -0.087738
    83  C   -0.045444
    84  C   -0.064744
    85  N   -0.254586
    86  C   -0.049614
    87  C   -0.015130
    88  C   -0.090578
    89  C    0.045855
    90  C    0.114358
    91  C    0.062560
    92  C   -0.077753
    93  H    0.034611
    94  N   -0.423500
    95  C    0.162943
    96  C   -0.174642
    97  C   -0.007872
    98  C    0.152141
    99  C    0.099434
   100  C    0.015546
   101  O   -0.253180
   102  C    0.061237
   103  N   -0.350011
   104  C    0.037579
   105  C   -0.019878
   106  C   -0.034815
   107  C    0.088949
   108  C    0.073608
   109  C    0.034750
   110  C   -0.007645
   111  N   -0.324143
   112  C    0.078534
   113  C   -0.163045
   114  C    0.002378
   115  C    0.096217
   116  C    0.131456
   117  C    0.042473
   118  O   -0.187811
   119  C    0.000887
   120  C    0.211212
   121  O   -0.251185
   122  O   -0.305498
   123  C    0.152092
   124  H   -0.019769
   125  H   -0.015613
   126  H   -0.040462
   127  H   -0.000445
   128  H   -0.004699
   129  H    0.023017
   130  H    0.014876
   131  H    0.016258
   132  H    0.013751
   133  H    0.037604
   134  H    0.020911
   135  H    0.019359
   136  H    0.008568
   137  H    0.025913
   138  H    0.039477
   139  H    0.038090
   140  H    0.036257
   141  H    0.033730
   142  H    0.014250
   143  H    0.012554
   144  H    0.024995
   145  H    0.011961
   146  H    0.005749
   147  H    0.006172
   148  H    0.003624
   149  H    0.010859
   150  H    0.017798
   151  H    0.030115
   152  H    0.045895
   153  H    0.008416
   154  H    0.047332
   155  H    0.035471
   156  H    0.043921
   157  H    0.049393
   158  H    0.053445
 Sum of Mulliken charges =  -0.00000

 Dipole moment (field-independent basis, Debye):
    X=             -5.4495    Y=             -1.0846    Z=             -6.9060  Tot=              8.8638
 Quadrupole moment (field-independent basis, Debye-Ang):
   XX=           -539.8237   YY=           -539.2499   ZZ=           -456.7127
   XY=            -11.5502   XZ=             10.4855   YZ=            -53.9171

 Normal termination of Gaussian 16 at Sat Sep 11 23:56:50 2021.
