 Gaussian 16, Revision A.03,
 Gaussian 16:  ES64L-G16RevA.03 25-Dec-2016

 -----------------------------------
 #p cam-b3lyp/Def2SVP td=(nstates=5)
 -----------------------------------

 --------------------------------
 TDDFT excited states in gaussian
 --------------------------------
 Symbolic Z-matrix:
 Charge =  0 Multiplicity = 1

                         Standard orientation:
 ---------------------------------------------------------------------
 Center     Atomic      Atomic             Coordinates (Angstroms)
 Number     Number       Type             X           Y           Z
 ---------------------------------------------------------------------
      1         12           0        6.720501   -0.584383    0.750768
      2          6           0        7.121274    2.335004   -1.281171
      3          6           0        7.278084    1.408970    3.463462
      4          6           0        6.822429   -3.211482    2.524065
      5          6           0        7.322116   -2.479044   -2.111745
      6          7           0        7.133415    1.582356    0.938892
      7          6           0        7.201616    2.601053    0.087554
      8          6           0        7.290853    3.988659    0.790377
      9          6           0        7.897024    3.523537    2.189740
     10          6           0        7.376642    2.097234    2.217825
     11          6           0        9.421786    3.490617    2.212476
     12          6           0        5.885819    4.656470    0.968247
     13          6           0        5.910779    6.140825    1.344307
     14          1           0        4.879220    7.016335    0.808849
     15          7           0        6.525095   -0.821193    2.702328
     16          6           0        6.780465    0.102564    3.659796
     17          6           0        6.482526   -0.554996    4.950350
     18          6           0        6.215370   -1.994375    4.676654
     19          6           0        6.540157   -2.073051    3.275333
     20          6           0        6.424576    0.179992    6.254261
     21          6           0        5.752468   -3.122561    5.543285
     22          8           0        5.808186   -4.341219    5.160738
     23          6           0        5.308686   -2.766896    6.903286
     24          7           0        7.243490   -2.561312    0.331400
     25          6           0        7.143635   -3.514323    1.264557
     26          6           0        7.296257   -4.881674    0.667067
     27          6           0        7.279645   -4.676539   -0.916410
     28          6           0        7.197577   -3.130519   -0.953238
     29          6           0        8.562819   -5.650043    1.068864
     30          6           0        6.234151   -5.490000   -1.719929
     31          6           0        4.840629   -5.007337   -1.384921
     32          7           0        6.972855   -0.185046   -1.367697
     33          6           0        7.236542   -1.122476   -2.376839
     34          6           0        7.433046   -0.366924   -3.627677
     35          6           0        7.285455    0.967301   -3.253639
     36          6           0        7.039982    1.042101   -1.852768
     37          6           0        7.766520   -0.923609   -4.893904
     38          6           0        7.302461    2.348586   -3.707094
     39          8           0        7.369904    2.899474   -4.806851
     40          6           0        7.317895    3.295964   -2.427225
     41          6           0        6.276952    4.361499   -2.637895
     42          8           0        5.063148    4.073105   -2.667468
     43          8           0        6.850536    5.570093   -2.533758
     44          6           0        5.866652    6.672532   -2.703324
     45          1           0        7.670656    1.886955    4.363105
     46          1           0        6.758041   -4.150382    3.077922
     47          1           0        7.429662   -3.007656   -3.060669
     48          1           0        7.964530    4.698743    0.310415
     49          1           0        7.484415    4.093895    3.021706
     50          1           0        9.838942    3.668520    1.221389
     51          1           0        9.686172    2.492868    2.563317
     52          1           0        9.813127    4.183724    2.957616
     53          1           0        5.403638    4.248148    1.856411
     54          1           0        5.278404    4.521631    0.072595
     55          1           0        6.898826    6.574890    1.188551
     56          1           0        5.744673    6.223871    2.418416
     57          1           0        6.827671    1.187926    6.164104
     58          1           0        7.108228   -0.326018    6.935645
     59          1           0        5.420216    0.185408    6.678009
     60          1           0        6.126566   -2.277072    7.432147
     61          1           0        4.929665   -3.687222    7.346224
     62          1           0        4.506141   -2.032194    6.831986
     63          1           0        6.467061   -5.527834    0.952263
     64          1           0        8.232763   -4.943639   -1.373463
     65          1           0        8.360696   -6.620105    1.523650
     66          1           0        9.142570   -5.016768    1.739791
     67          1           0        9.273184   -5.815535    0.259289
     68          1           0        6.282758   -6.543738   -1.447498
     69          1           0        6.371130   -5.419784   -2.799076
     70          1           0        4.606631   -5.553836   -0.472005
     71          1           0        4.145751   -5.266875   -2.184294
     72          1           0        4.835540   -3.945213   -1.139252
     73          1           0        7.140151   -0.413722   -5.625783
     74          1           0        7.598127   -2.000173   -4.909894
     75          1           0        8.823543   -0.665335   -4.955975
     76          1           0        8.322174    3.712775   -2.357850
     77          1           0        6.232179    7.307668   -3.510310
     78          1           0        5.737820    7.126746   -1.720727
     79          1           0        4.887660    6.389421   -3.091607
     80         12           0       -6.419431   -0.712067   -0.712146
     81          6           0       -8.556574    1.596620    1.014598
     82          6           0       -5.210554    1.951095   -2.467369
     83          6           0       -4.855774   -2.765142   -2.558041
     84          6           0       -8.559774   -3.257495    0.329680
     85          7           0       -6.899927    1.445893   -0.644274
     86          6           0       -7.684504    2.215566    0.094904
     87          6           0       -7.468081    3.739064   -0.109235
     88          6           0       -6.843224    3.697165   -1.587970
     89          6           0       -6.246808    2.291371   -1.561564
     90          6           0       -7.892147    3.750435   -2.686278
     91          6           0       -6.454856    4.342814    0.925604
     92          6           0       -6.430285    5.871748    0.984616
     93          1           0       -6.206539    6.514933    2.276411
     94          7           0       -4.875662   -0.429032   -1.926743
     95          6           0       -4.517848    0.722211   -2.533267
     96          6           0       -3.327431    0.401082   -3.335733
     97          6           0       -3.109261   -1.070103   -3.283264
     98          6           0       -4.310075   -1.490070   -2.589174
     99          6           0       -2.478955    1.452707   -3.989626
    100          6           0       -2.008914   -1.954159   -3.787142
    101          8           0       -2.140067   -3.228004   -3.841350
    102          6           0       -0.809078   -1.278543   -4.302333
    103          7           0       -6.781665   -2.689083   -1.243692
    104          6           0       -5.915855   -3.366576   -2.017827
    105          6           0       -6.241435   -4.841006   -2.039036
    106          6           0       -7.365292   -5.048949   -0.920433
    107          6           0       -7.567767   -3.579848   -0.488973
    108          6           0       -6.743672   -5.392229   -3.373320
    109          6           0       -7.077456   -6.108908    0.177882
    110          6           0       -5.933055   -5.648765    1.051939
    111          7           0       -8.124176   -0.868659    0.605943
    112          6           0       -8.887695   -2.024703    0.879275
    113          6           0      -10.011504   -1.609870    1.743789
    114          6           0       -9.835460   -0.226260    1.895814
    115          6           0       -8.694824    0.195050    1.160316
    116          6           0      -11.042550   -2.460484    2.233195
    117          6           0      -10.361298    0.975417    2.502588
    118          8           0      -11.261575    1.221414    3.304281
    119          6           0       -9.629643    2.229727    1.856216
    120          6           0       -9.198249    3.141641    2.971926
    121          8           0       -8.337195    2.774872    3.790872
    122          8           0       -9.709712    4.368176    2.761237
    123          6           0       -9.300540    5.311330    3.835890
    124          1           0       -4.927630    2.678306   -3.228950
    125          1           0       -4.289697   -3.533401   -3.089835
    126          1           0       -9.214749   -4.008163    0.777094
    127          1           0       -8.375311    4.331271   -0.105585
    128          1           0       -6.060120    4.441427   -1.707101
    129          1           0       -8.894537    3.688327   -2.289413
    130          1           0       -7.687099    2.905169   -3.330123
    131          1           0       -7.746772    4.641659   -3.303466
    132          1           0       -5.431450    4.151722    0.577961
    133          1           0       -6.630416    3.946099    1.906639
    134          1           0       -7.294686    6.317761    0.477830
    135          1           0       -5.570656    6.227374    0.411393
    136          1           0       -2.979519    2.428837   -3.992730
    137          1           0       -2.398281    1.185458   -5.048836
    138          1           0       -1.475607    1.510178   -3.562241
    139          1           0       -1.089146   -0.619099   -5.120355
    140          1           0       -0.100581   -2.076551   -4.532733
    141          1           0       -0.399230   -0.641419   -3.510677
    142          1           0       -5.372496   -5.432709   -1.778425
    143          1           0       -8.318137   -5.382369   -1.357201
    144          1           0       -6.131213   -6.229498   -3.757966
    145          1           0       -6.771385   -4.581271   -4.088937
    146          1           0       -7.777119   -5.734555   -3.371946
    147          1           0       -6.760797   -7.050233   -0.277963
    148          1           0       -7.936607   -6.326999    0.803414
    149          1           0       -5.049761   -5.948098    0.479854
    150          1           0       -5.964843   -6.147365    2.018600
    151          1           0       -5.916668   -4.555906    1.135849
    152          1           0      -11.192467   -2.201574    3.272905
    153          1           0      -10.780240   -3.510087    2.117886
    154          1           0      -11.865239   -2.168295    1.575110
    155          1           0      -10.339905    2.712796    1.184086
    156          1           0      -10.218159    5.735321    4.255309
    157          1           0       -8.591347    6.015362    3.361411
    158          1           0       -8.837425    4.891837    4.721326
 ---------------------------------------------------------------------

 SCF Done:  E(RCAM-B3LYP) =  -4069.81228924     A.U. after   19 cycles

 Excitation energies and oscillator strengths:

 Excited State   1:      Singlet-A      1.6658 eV  744.28 nm  f=0.1320  <S**2>=0.000
     309 -> 315        0.11267
     310 -> 316        0.12991
     311 -> 313       -0.44862
     312 -> 314        0.51975
 This state for optimization and/or second-order correction.
 Total Energy, E(TD-HF/TD-DFT) =  -4069.75107157
 Copying the excited state density for this state as the 1-particle RhoCI density.

 Excited State   2:      Singlet-A      1.6893 eV  733.96 nm  f=0.6298  <S**2>=0.000
     309 -> 315       -0.13489
     310 -> 316        0.11578
     311 -> 313        0.51863
     312 -> 314        0.44782

 Excited State   3:      Singlet-A      2.1874 eV  566.82 nm  f=0.0324  <S**2>=0.000
     309 -> 313       -0.23590
     310 -> 314        0.59791
     312 -> 316       -0.25451

 Excited State   4:      Singlet-A      2.1943 eV  565.02 nm  f=0.1561  <S**2>=0.000
     309 -> 313        0.59586
     310 -> 314        0.23436
     311 -> 315        0.25992
     312 -> 316       -0.10232

 Excited State   5:      Singlet-A      2.6545 eV  467.07 nm  f=0.0000  <S**2>=0.000
     312 -> 313        0.70701

 The electronic state is 1-A.
 Alpha  occ. eigenvalues --  -46.87843 -46.87525 -19.26447 -19.26283 -19.19191
 Alpha  occ. eigenvalues --  -19.19086 -19.18821 -19.18512 -19.18257 -19.17933
 Alpha  occ. eigenvalues --  -14.42500 -14.42363 -14.41485 -14.41227 -14.39444
 Alpha  occ. eigenvalues --  -14.39207 -14.38641 -14.38466 -10.39240 -10.39012
 Alpha  occ. eigenvalues --  -10.35452 -10.35177 -10.34480 -10.34114 -10.31861
 Alpha  occ. eigenvalues --  -10.31710 -10.31466 -10.31184 -10.30962 -10.30878
 Alpha  occ. eigenvalues --  -10.30625 -10.30551 -10.30263 -10.30225 -10.30224
 Alpha  occ. eigenvalues --  -10.29994 -10.29957 -10.29777 -10.29675 -10.29289
 Alpha  occ. eigenvalues --  -10.29280 -10.29244 -10.28827 -10.28652 -10.28605
 Alpha  occ. eigenvalues --  -10.28578 -10.28419 -10.28260 -10.28182 -10.28019
 Alpha  occ. eigenvalues --  -10.27855 -10.27843 -10.27772 -10.27622 -10.27526
 Alpha  occ. eigenvalues --  -10.27495 -10.27486 -10.27461 -10.27443 -10.27404
 Alpha  occ. eigenvalues --  -10.27351 -10.27298 -10.27266 -10.27257 -10.27164
 Alpha  occ. eigenvalues --  -10.26944 -10.26810 -10.26594 -10.26388 -10.26291
 Alpha  occ. eigenvalues --  -10.26128 -10.26096 -10.26050 -10.26036 -10.25910
 Alpha  occ. eigenvalues --  -10.25903 -10.25800 -10.25743 -10.25429 -10.25298
 Alpha  occ. eigenvalues --  -10.24891 -10.24824 -10.24733 -10.24630 -10.24595
 Alpha  occ. eigenvalues --  -10.24558  -3.16586  -3.16275  -1.91468  -1.91157
 Alpha  occ. eigenvalues --   -1.91054  -1.90896  -1.90746  -1.90582  -1.16796
 Alpha  occ. eigenvalues --   -1.16574  -1.08723  -1.08547  -1.07220  -1.06870
 Alpha  occ. eigenvalues --   -1.06810  -1.06764  -1.04633  -1.04360  -1.03799
 Alpha  occ. eigenvalues --   -1.03527  -1.03278  -1.02903  -1.02455  -1.01975
 Alpha  occ. eigenvalues --   -0.92038  -0.91860  -0.89532  -0.89370  -0.89256
 Alpha  occ. eigenvalues --   -0.89034  -0.88295  -0.88102  -0.87925  -0.87722
 Alpha  occ. eigenvalues --   -0.87666  -0.87551  -0.87298  -0.86906  -0.85045
 Alpha  occ. eigenvalues --   -0.84875  -0.83941  -0.83763  -0.82969  -0.82732
 Alpha  occ. eigenvalues --   -0.82703  -0.82490  -0.81680  -0.81492  -0.80659
 Alpha  occ. eigenvalues --   -0.80313  -0.78832  -0.78455  -0.77257  -0.77007
 Alpha  occ. eigenvalues --   -0.77000  -0.76791  -0.75995  -0.75714  -0.74920
 Alpha  occ. eigenvalues --   -0.74684  -0.72817  -0.72563  -0.71719  -0.71456
 Alpha  occ. eigenvalues --   -0.69887  -0.69644  -0.68930  -0.68695  -0.67691
 Alpha  occ. eigenvalues --   -0.67465  -0.67282  -0.67052  -0.65356  -0.65153
 Alpha  occ. eigenvalues --   -0.64917  -0.64674  -0.64646  -0.64535  -0.64285
 Alpha  occ. eigenvalues --   -0.64084  -0.62398  -0.62180  -0.60465  -0.60158
 Alpha  occ. eigenvalues --   -0.59866  -0.59669  -0.59036  -0.58866  -0.58556
 Alpha  occ. eigenvalues --   -0.58297  -0.57684  -0.57448  -0.57345  -0.57094
 Alpha  occ. eigenvalues --   -0.56364  -0.56090  -0.56059  -0.55780  -0.55561
 Alpha  occ. eigenvalues --   -0.55382  -0.55289  -0.55138  -0.54584  -0.54386
 Alpha  occ. eigenvalues --   -0.53966  -0.53793  -0.53336  -0.53277  -0.53088
 Alpha  occ. eigenvalues --   -0.52991  -0.52991  -0.52786  -0.52780  -0.52448
 Alpha  occ. eigenvalues --   -0.52413  -0.52288  -0.51976  -0.51769  -0.51681
 Alpha  occ. eigenvalues --   -0.51509  -0.51252  -0.51081  -0.50575  -0.50235
 Alpha  occ. eigenvalues --   -0.50034  -0.49943  -0.49814  -0.49726  -0.49565
 Alpha  occ. eigenvalues --   -0.49320  -0.49275  -0.49162  -0.49049  -0.48985
 Alpha  occ. eigenvalues --   -0.48672  -0.48500  -0.48470  -0.48438  -0.48262
 Alpha  occ. eigenvalues --   -0.48147  -0.47737  -0.47445  -0.47336  -0.46954
 Alpha  occ. eigenvalues --   -0.46835  -0.46624  -0.46584  -0.46424  -0.46405
 Alpha  occ. eigenvalues --   -0.46213  -0.46127  -0.45967  -0.45905  -0.45718
 Alpha  occ. eigenvalues --   -0.45214  -0.45088  -0.44652  -0.44535  -0.44396
 Alpha  occ. eigenvalues --   -0.44344  -0.44184  -0.44132  -0.44070  -0.44000
 Alpha  occ. eigenvalues --   -0.43941  -0.43751  -0.43581  -0.43455  -0.43431
 Alpha  occ. eigenvalues --   -0.43262  -0.43078  -0.42833  -0.42824  -0.42780
 Alpha  occ. eigenvalues --   -0.42657  -0.42418  -0.42034  -0.41851  -0.41759
 Alpha  occ. eigenvalues --   -0.41592  -0.41545  -0.41339  -0.41189  -0.40915
 Alpha  occ. eigenvalues --   -0.40864  -0.40843  -0.40594  -0.40583  -0.40525
 Alpha  occ. eigenvalues --   -0.40379  -0.40312  -0.40095  -0.39410  -0.39313
 Alpha  occ. eigenvalues --   -0.38484  -0.38236  -0.37827  -0.37545  -0.37341
 Alpha  occ. eigenvalues --   -0.37332  -0.37144  -0.37070  -0.36832  -0.36688
 Alpha  occ. eigenvalues --   -0.36256  -0.36106  -0.34336  -0.34122  -0.33922
 Alpha  occ. eigenvalues --   -0.33776  -0.33239  -0.33041  -0.31353  -0.31082
 Alpha  occ. eigenvalues --   -0.31078  -0.30835  -0.30120  -0.29842  -0.29491
 Alpha  occ. eigenvalues --   -0.29377  -0.29166  -0.29069  -0.24129  -0.23904
 Alpha  occ. eigenvalues --   -0.21171  -0.20976
 Alpha virt. eigenvalues --   -0.08818  -0.08644  -0.01787  -0.01545  -0.00094
 Alpha virt. eigenvalues --    0.00144   0.02139   0.02336   0.03059   0.03350
 Alpha virt. eigenvalues --    0.04659   0.04850   0.04950   0.05249   0.06085

 Mulliken charges:
               1
     1  Mg   0.838299
     2  C   -0.003595
     3  C   -0.094164
     4  C   -0.045498
     5  C   -0.063681
     6  N   -0.256847
     7  C   -0.052721
     8  C   -0.013979
     9  C   -0.087041
    10  C    0.046336
    11  C    0.104765
    12  C    0.053488
    13  C   -0.071610
    14  H    0.035063
    15  N   -0.433251
    16  C    0.168613
    17  C   -0.176922
    18  C   -0.003634
    19  C    0.148827
    20  C    0.110097
    21  C    0.012659
    22  O   -0.249125
    23  C    0.062299
    24  N   -0.341178
    25  C    0.041437
    26  C   -0.028281
    27  C   -0.023984
    28  C    0.074876
    29  C    0.076123
    30  C    0.034988
    31  C   -0.004722
    32  N   -0.310220
    33  C    0.079903
    34  C   -0.170195
    35  C    0.007932
    36  C    0.082329
    37  C    0.127470
    38  C    0.045294
    39  O   -0.189257
    40  C   -0.005052
    41  C    0.213036
    42  O   -0.258818
    43  O   -0.304331
    44  C    0.158055
    45  H   -0.017416
    46  H   -0.016357
    47  H   -0.041231
    48  H    0.000817
    49  H   -0.003936
    50  H    0.025447
    51  H    0.016673
    52  H    0.016814
    53  H    0.011425
    54  H    0.043074
    55  H    0.018116
    56  H    0.018391
    57  H    0.005879
    58  H    0.027095
    59  H    0.040180
    60  H    0.037307
    61  H    0.036175
    62  H    0.031970
    63  H    0.017151
    64  H    0.009409
    65  H    0.023521
    66  H    0.012388
    67  H    0.004829
    68  H    0.006712
    69  H    0.004722
    70  H    0.009256
    71  H    0.020241
    72  H    0.027898
    73  H    0.046733
    74  H    0.009514
    75  H    0.046089
    76  H    0.035321
    77  H    0.043020
    78  H    0.046673
    79  H    0.052315
    80  Mg   0.837488
    81  C   -0.016959
    82  C   -0.087322
    83  C   -0.045535
    84  C   -0.064971
    85  N   -0.254530
    86  C   -0.050244
    87  C   -0.015077
    88  C   -0.090525
    89  C    0.045666
    90  C    0.114359
    91  C    0.062452
    92  C   -0.077610
    93  H    0.033892
    94  N   -0.423624
    95  C    0.162960
    96  C   -0.173992
    97  C   -0.007473
    98  C    0.152140
    99  C    0.098833
   100  C    0.015411
   101  O   -0.254096
   102  C    0.061351
   103  N   -0.350025
   104  C    0.037654
   105  C   -0.019823
   106  C   -0.034623
   107  C    0.088599
   108  C    0.073753
   109  C    0.034826
   110  C   -0.007611
   111  N   -0.323947
   112  C    0.077992
   113  C   -0.163562
   114  C    0.001988
   115  C    0.095881
   116  C    0.131585
   117  C    0.042011
   118  O   -0.188673
   119  C    0.001032
   120  C    0.211177
   121  O   -0.251313
   122  O   -0.305579
   123  C    0.152206
   124  H   -0.019104
   125  H   -0.015686
   126  H   -0.040896
   127  H   -0.000970
   128  H   -0.004038
   129  H    0.022226
   130  H    0.014560
   131  H    0.016306
   132  H    0.014274
   133  H    0.037329
   134  H    0.020685
   135  H    0.019818
   136  H    0.008808
   137  H    0.026704
   138  H    0.044085
   139  H    0.039219
   140  H    0.035897
   141  H    0.036616
   142  H    0.014284
   143  H    0.012108
   144  H    0.024897
   145  H    0.011732
   146  H    0.005455
   147  H    0.005956
   148  H    0.003385
   149  H    0.010956
   150  H    0.017668
   151  H    0.030228
   152  H    0.045527
   153  H    0.008225
   154  H    0.046582
   155  H    0.034779
   156  H    0.043628
   157  H    0.049413
   158  H    0.053202
 Sum of Mulliken charges =  -0.00000

 Dipole moment (field-independent basis, Debye):
    X=              3.4753    Y=              3.0396    Z=              0.6724  Tot=              4.6657
 Quadrupole moment (field-independent basis, Debye-Ang):
   XX=           -527.0898   YY=           -463.9610   ZZ=           -523.3293
   XY=              9.3553   XZ=             62.2526   YZ=             20.3726

 Normal termination of Gaussian 16 at Sat Sep 11 04:42:36 2021.
