 Gaussian 16, Revision A.03,
 Gaussian 16:  ES64L-G16RevA.03 25-Dec-2016

 -----------------------------------
 #p cam-b3lyp/Def2SVP td=(nstates=5)
 -----------------------------------

 --------------------------------
 TDDFT excited states in gaussian
 --------------------------------
 Symbolic Z-matrix:
 Charge =  0 Multiplicity = 1

                         Standard orientation:
 ---------------------------------------------------------------------
 Center     Atomic      Atomic             Coordinates (Angstroms)
 Number     Number       Type             X           Y           Z
 ---------------------------------------------------------------------
      1         12           0        7.796381   -0.962359   -0.071543
      2          6           0        8.430837    2.550119   -0.340204
      3          6           0        8.744011   -0.732303    3.198340
      4          6           0        7.680743   -4.128228    0.071710
      5          6           0        8.000978   -1.115322   -3.547231
      6          7           0        8.478104    0.747705    1.157920
      7          6           0        8.620400    2.053152    0.951204
      8          6           0        8.916452    2.856164    2.253086
      9          6           0        9.540525    1.683986    3.135429
     10          6           0        8.854055    0.496987    2.482960
     11          6           0       11.048947    1.532159    2.967760
     12          6           0        7.614803    3.432968    2.904807
     13          6           0        7.840272    4.493952    3.985931
     14          1           0        6.893309    5.593204    4.096629
     15          7           0        7.685030   -2.171110    1.487102
     16          6           0        8.104151   -1.907338    2.748072
     17          6           0        7.802775   -3.119451    3.539676
     18          6           0        7.348531   -4.178090    2.595726
     19          6           0        7.581258   -3.534780    1.327906
     20          6           0        7.908264   -3.174325    5.032864
     21          6           0        6.802708   -5.555482    2.803086
     22          8           0        6.688930   -6.393496    1.844252
     23          6           0        6.483173   -5.933330    4.191672
     24          7           0        8.051973   -2.458953   -1.504203
     25          6           0        7.890895   -3.749180   -1.190591
     26          6           0        7.842970   -4.607932   -2.419488
     27          6           0        7.761295   -3.603275   -3.657934
     28          6           0        7.864680   -2.265846   -2.884069
     29          6           0        9.028182   -5.563506   -2.614838
     30          6           0        6.581203   -3.796040   -4.643146
     31          6           0        5.277523   -3.459518   -3.954475
     32          7           0        7.974324    0.467561   -1.694722
     33          6           0        8.065023    0.181129   -3.064541
     34          6           0        8.279970    1.463057   -3.760620
     35          6           0        8.316177    2.410357   -2.739270
     36          6           0        8.161561    1.758169   -1.482674
     37          6           0        8.471225    1.629286   -5.160700
     38          6           0        8.474163    3.818904   -2.415397
     39          8           0        8.545063    4.857484   -3.074045
     40          6           0        8.676676    3.951489   -0.841473
     41          6           0        7.761834    5.042598   -0.355825
     42          8           0        6.522372    4.902470   -0.394084
     43          8           0        8.482238    5.971669    0.291003
     44          6           0        7.630738    7.068381    0.824224
     45          1           0        9.241956   -0.826650    4.165341
     46          1           0        7.534960   -5.210427    0.066235
     47          1           0        7.989755   -1.074860   -4.637960
     48          1           0        9.642618    3.660717    2.135608
     49          1           0        9.247815    1.762616    4.182262
     50          1           0       11.427535    2.171585    2.170435
     51          1           0       11.210344    0.482197    2.722760
     52          1           0       11.562883    1.701396    3.914335
     53          1           0        7.138081    2.656665    3.503264
     54          1           0        6.945629    3.832232    2.141839
     55          1           0        8.863068    4.871357    3.966845
     56          1           0        7.746736    4.014074    4.960183
     57          1           0        8.424416   -2.301273    5.430244
     58          1           0        8.563376   -4.010858    5.275248
     59          1           0        6.937636   -3.317903    5.507836
     60          1           0        7.382973   -5.854669    4.802180
     61          1           0        6.021515   -6.918564    4.136570
     62          1           0        5.772540   -5.213502    4.598853
     63          1           0        6.959332   -5.244803   -2.417299
     64          1           0        8.647626   -3.660583   -4.290237
     65          1           0        8.736501   -6.610149   -2.705205
     66          1           0        9.717394   -5.420016   -1.783159
     67          1           0        9.666175   -5.332120   -3.467388
     68          1           0        6.517533   -4.836605   -4.959556
     69          1           0        6.664106   -3.181310   -5.539520
     70          1           0        5.031472   -4.384284   -3.433803
     71          1           0        4.512075   -3.210088   -4.690059
     72          1           0        5.414782   -2.686384   -3.198228
     73          1           0        7.870480    2.491348   -5.450395
     74          1           0        8.173346    0.736343   -5.709813
     75          1           0        9.546462    1.803364   -5.198360
     76          1           0        9.726269    4.195147   -0.679896
     77          1           0        8.023872    8.003233    0.424560
     78          1           0        7.613791    6.948705    1.907643
     79          1           0        6.604236    7.103364    0.457605
     80         12           0       -7.965973    0.980089    0.101241
     81          6           0       -8.198110   -2.598012    0.250895
     82          6           0       -7.161684    0.640751   -3.196124
     83          6           0       -7.314329    4.084827    0.043000
     84          6           0       -7.658690    0.966572    3.572704
     85          7           0       -7.741198   -0.800672   -1.191285
     86          6           0       -7.914423   -2.105052   -1.039824
     87          6           0       -7.855104   -2.919345   -2.360040
     88          6           0       -6.973613   -1.899148   -3.232422
     89          6           0       -7.336306   -0.595458   -2.524240
     90          6           0       -5.477231   -2.121015   -3.087694
     91          6           0       -9.274610   -3.137450   -2.992070
     92          6           0       -9.327346   -4.181105   -4.110001
     93          1           0      -10.521284   -5.013410   -4.229434
     94          7           0       -7.812764    2.231649   -1.431312
     95          6           0       -7.500025    1.921611   -2.706984
     96          6           0       -7.496888    3.196156   -3.441610
     97          6           0       -7.671385    4.302695   -2.461886
     98          6           0       -7.583494    3.567891   -1.215917
     99          6           0       -7.418201    3.272229   -4.938749
    100          6           0       -7.870039    5.779771   -2.619958
    101          8           0       -7.760383    6.583894   -1.627899
    102          6           0       -8.104422    6.267141   -3.987082
    103          7           0       -7.335682    2.316171    1.564094
    104          6           0       -7.177950    3.622161    1.285851
    105          6           0       -6.988938    4.429796    2.547751
    106          6           0       -7.295317    3.423114    3.752048
    107          6           0       -7.531799    2.127648    2.945049
    108          6           0       -5.604270    5.047639    2.740997
    109          6           0       -8.375166    3.861917    4.778707
    110          6           0       -9.734893    3.887347    4.118494
    111          7           0       -8.114891   -0.497901    1.670133
    112          6           0       -7.925174   -0.294349    3.054561
    113          6           0       -8.016305   -1.617296    3.705641
    114          6           0       -8.231508   -2.508708    2.643777
    115          6           0       -8.251518   -1.794406    1.415421
    116          6           0       -7.855456   -1.872719    5.096688
    117          6           0       -8.435695   -3.892856    2.281638
    118          8           0       -8.599977   -4.939364    2.907393
    119          6           0       -8.296983   -4.028218    0.704036
    120          6           0       -9.458245   -4.842958    0.203863
    121          8           0      -10.620037   -4.408162    0.292213
    122          8           0       -8.990784   -5.897468   -0.488858
    123          6           0      -10.105354   -6.729918   -1.014760
    124          1           0       -6.681195    0.635939   -4.174890
    125          1           0       -7.192008    5.169359    0.091106
    126          1           0       -7.671363    0.890176    4.662052
    127          1           0       -7.349935   -3.874607   -2.282262
    128          1           0       -7.305085   -1.875920   -4.267281
    129          1           0       -5.250251   -2.854125   -2.327969
    130          1           0       -5.061568   -1.158241   -2.820602
    131          1           0       -5.039219   -2.380293   -4.055819
    132          1           0       -9.555827   -2.240591   -3.558894
    133          1           0       -9.995050   -3.381406   -2.235702
    134          1           0       -8.422649   -4.800500   -4.138660
    135          1           0       -9.326448   -3.660739   -5.070850
    136          1           0       -7.130974    2.308010   -5.375971
    137          1           0       -6.584363    3.939768   -5.181616
    138          1           0       -8.330858    3.668571   -5.388916
    139          1           0       -7.264476    5.988219   -4.618876
    140          1           0       -8.311975    7.334120   -3.885381
    141          1           0       -8.986134    5.759009   -4.393290
    142          1           0       -7.692499    5.252205    2.589566
    143          1           0       -6.404735    3.248125    4.373412
    144          1           0       -5.630495    6.146337    2.868466
    145          1           0       -4.988746    4.777783    1.893151
    146          1           0       -5.033134    4.648520    3.577476
    147          1           0       -8.178447    4.880064    5.123426
    148          1           0       -8.418923    3.227198    5.657462
    149          1           0       -9.752367    4.864720    3.627045
    150          1           0      -10.523966    3.805918    4.863324
    151          1           0       -9.806623    3.123407    3.335608
    152          1           0       -8.634646   -2.568769    5.377565
    153          1           0       -7.912295   -0.955141    5.678582
    154          1           0       -6.849202   -2.300128    5.101437
    155          1           0       -7.340299   -4.510389    0.499464
    156          1           0       -9.941085   -7.749478   -0.652540
    157          1           0      -10.100635   -6.577755   -2.110467
    158          1           0      -11.101533   -6.529558   -0.638016
 ---------------------------------------------------------------------

 SCF Done:  E(RCAM-B3LYP) =  -4069.81179879     A.U. after   19 cycles

 Excitation energies and oscillator strengths:

 Excited State   1:      Singlet-A      1.6700 eV  742.43 nm  f=0.0184  <S**2>=0.000
     309 -> 315        0.10321
     310 -> 316        0.13828
     311 -> 313        0.40931
     312 -> 314        0.55096
 This state for optimization and/or second-order correction.
 Total Energy, E(TD-HF/TD-DFT) =  -4069.75042791
 Copying the excited state density for this state as the 1-particle RhoCI density.

 Excited State   2:      Singlet-A      1.6856 eV  735.56 nm  f=0.7382  <S**2>=0.000
     309 -> 315        0.14208
     310 -> 316       -0.10507
     311 -> 313        0.55013
     312 -> 314       -0.40878

 Excited State   3:      Singlet-A      2.1859 eV  567.20 nm  f=0.0566  <S**2>=0.000
     309 -> 313        0.14292
     310 -> 314        0.62666
     312 -> 316       -0.26596

 Excited State   4:      Singlet-A      2.1932 eV  565.30 nm  f=0.1365  <S**2>=0.000
     309 -> 313        0.62464
     310 -> 314       -0.14184
     311 -> 315       -0.27168

 Excited State   5:      Singlet-A      2.7657 eV  448.29 nm  f=0.0000  <S**2>=0.000
     312 -> 313        0.70710

 The electronic state is 1-A.
 Alpha  occ. eigenvalues --  -46.87835 -46.87590 -19.26313 -19.26299 -19.19109
 Alpha  occ. eigenvalues --  -19.19052 -19.18837 -19.18632 -19.18206 -19.17991
 Alpha  occ. eigenvalues --  -14.42487 -14.42426 -14.41490 -14.41289 -14.39439
 Alpha  occ. eigenvalues --  -14.39279 -14.38626 -14.38531 -10.39112 -10.39038
 Alpha  occ. eigenvalues --  -10.35469 -10.35309 -10.34426 -10.34169 -10.31712
 Alpha  occ. eigenvalues --  -10.31703 -10.31443 -10.31241 -10.30948 -10.30941
 Alpha  occ. eigenvalues --  -10.30609 -10.30547 -10.30330 -10.30294 -10.30247
 Alpha  occ. eigenvalues --  -10.30068 -10.29964 -10.29828 -10.29667 -10.29362
 Alpha  occ. eigenvalues --  -10.29332 -10.29290 -10.28778 -10.28649 -10.28599
 Alpha  occ. eigenvalues --  -10.28562 -10.28400 -10.28333 -10.28146 -10.28066
 Alpha  occ. eigenvalues --  -10.27932 -10.27830 -10.27763 -10.27618 -10.27595
 Alpha  occ. eigenvalues --  -10.27555 -10.27501 -10.27499 -10.27457 -10.27440
 Alpha  occ. eigenvalues --  -10.27414 -10.27394 -10.27377 -10.27308 -10.27192
 Alpha  occ. eigenvalues --  -10.26989 -10.26732 -10.26631 -10.26414 -10.26324
 Alpha  occ. eigenvalues --  -10.26261 -10.26257 -10.26091 -10.26062 -10.25938
 Alpha  occ. eigenvalues --  -10.25895 -10.25868 -10.25809 -10.25479 -10.25315
 Alpha  occ. eigenvalues --  -10.24870 -10.24826 -10.24805 -10.24774 -10.24686
 Alpha  occ. eigenvalues --  -10.24618  -3.16578  -3.16339  -1.91460  -1.91222
 Alpha  occ. eigenvalues --   -1.91046  -1.90888  -1.90810  -1.90647  -1.16663
 Alpha  occ. eigenvalues --   -1.16593  -1.08664  -1.08600  -1.07237  -1.06893
 Alpha  occ. eigenvalues --   -1.06884  -1.06675  -1.04617  -1.04424  -1.03800
 Alpha  occ. eigenvalues --   -1.03593  -1.03272  -1.02969  -1.02450  -1.02041
 Alpha  occ. eigenvalues --   -0.92009  -0.91920  -0.89569  -0.89431  -0.89219
 Alpha  occ. eigenvalues --   -0.89080  -0.88335  -0.88155  -0.87912  -0.87734
 Alpha  occ. eigenvalues --   -0.87709  -0.87614  -0.87301  -0.87041  -0.85014
 Alpha  occ. eigenvalues --   -0.84930  -0.83989  -0.83814  -0.82994  -0.82853
 Alpha  occ. eigenvalues --   -0.82679  -0.82581  -0.81620  -0.81537  -0.80630
 Alpha  occ. eigenvalues --   -0.80377  -0.78830  -0.78563  -0.77258  -0.77077
 Alpha  occ. eigenvalues --   -0.76970  -0.76835  -0.75956  -0.75771  -0.74941
 Alpha  occ. eigenvalues --   -0.74734  -0.72814  -0.72632  -0.71709  -0.71510
 Alpha  occ. eigenvalues --   -0.69966  -0.69699  -0.68905  -0.68758  -0.67676
 Alpha  occ. eigenvalues --   -0.67533  -0.67247  -0.67131  -0.65320  -0.65205
 Alpha  occ. eigenvalues --   -0.64892  -0.64704  -0.64659  -0.64589  -0.64316
 Alpha  occ. eigenvalues --   -0.64140  -0.62333  -0.62220  -0.60475  -0.60265
 Alpha  occ. eigenvalues --   -0.59837  -0.59726  -0.59026  -0.58925  -0.58542
 Alpha  occ. eigenvalues --   -0.58359  -0.57620  -0.57495  -0.57348  -0.57169
 Alpha  occ. eigenvalues --   -0.56345  -0.56138  -0.56009  -0.55826  -0.55551
 Alpha  occ. eigenvalues --   -0.55385  -0.55382  -0.55186  -0.54566  -0.54429
 Alpha  occ. eigenvalues --   -0.53926  -0.53843  -0.53334  -0.53251  -0.53160
 Alpha  occ. eigenvalues --   -0.53073  -0.52951  -0.52838  -0.52781  -0.52587
 Alpha  occ. eigenvalues --   -0.52500  -0.52347  -0.51960  -0.51833  -0.51645
 Alpha  occ. eigenvalues --   -0.51588  -0.51237  -0.51140  -0.50594  -0.50393
 Alpha  occ. eigenvalues --   -0.50079  -0.49946  -0.49906  -0.49797  -0.49543
 Alpha  occ. eigenvalues --   -0.49414  -0.49248  -0.49133  -0.49128  -0.49038
 Alpha  occ. eigenvalues --   -0.48629  -0.48502  -0.48493  -0.48473  -0.48310
 Alpha  occ. eigenvalues --   -0.48262  -0.47729  -0.47524  -0.47330  -0.47044
 Alpha  occ. eigenvalues --   -0.46839  -0.46644  -0.46585  -0.46484  -0.46399
 Alpha  occ. eigenvalues --   -0.46204  -0.46203  -0.46022  -0.45861  -0.45765
 Alpha  occ. eigenvalues --   -0.45246  -0.45137  -0.44615  -0.44539  -0.44452
 Alpha  occ. eigenvalues --   -0.44408  -0.44187  -0.44120  -0.44059  -0.44050
 Alpha  occ. eigenvalues --   -0.44012  -0.43867  -0.43531  -0.43495  -0.43422
 Alpha  occ. eigenvalues --   -0.43318  -0.43065  -0.42872  -0.42838  -0.42739
 Alpha  occ. eigenvalues --   -0.42701  -0.42488  -0.42057  -0.41903  -0.41741
 Alpha  occ. eigenvalues --   -0.41604  -0.41567  -0.41393  -0.41177  -0.40918
 Alpha  occ. eigenvalues --   -0.40908  -0.40847  -0.40651  -0.40626  -0.40618
 Alpha  occ. eigenvalues --   -0.40429  -0.40261  -0.40159  -0.39504  -0.39368
 Alpha  occ. eigenvalues --   -0.38515  -0.38284  -0.37779  -0.37590  -0.37365
 Alpha  occ. eigenvalues --   -0.37296  -0.37200  -0.37131  -0.36750  -0.36716
 Alpha  occ. eigenvalues --   -0.36232  -0.36153  -0.34325  -0.34185  -0.33807
 Alpha  occ. eigenvalues --   -0.33804  -0.33224  -0.33106  -0.31367  -0.31192
 Alpha  occ. eigenvalues --   -0.31072  -0.30902  -0.30066  -0.29897  -0.29483
 Alpha  occ. eigenvalues --   -0.29360  -0.29254  -0.29145  -0.24119  -0.23966
 Alpha  occ. eigenvalues --   -0.21166  -0.21046
 Alpha virt. eigenvalues --   -0.08810  -0.08721  -0.01787  -0.01612  -0.00087
 Alpha virt. eigenvalues --    0.00047   0.02162   0.02271   0.03075   0.03289
 Alpha virt. eigenvalues --    0.04683   0.04800   0.05065   0.05220   0.06148

 Mulliken charges:
               1
     1  Mg   0.838571
     2  C   -0.002922
     3  C   -0.094018
     4  C   -0.045895
     5  C   -0.064088
     6  N   -0.256768
     7  C   -0.052482
     8  C   -0.014016
     9  C   -0.087005
    10  C    0.046332
    11  C    0.104781
    12  C    0.053451
    13  C   -0.071867
    14  H    0.036197
    15  N   -0.433178
    16  C    0.168455
    17  C   -0.177007
    18  C   -0.003900
    19  C    0.148721
    20  C    0.110138
    21  C    0.012378
    22  O   -0.249550
    23  C    0.062416
    24  N   -0.341100
    25  C    0.041255
    26  C   -0.028227
    27  C   -0.023882
    28  C    0.074722
    29  C    0.076141
    30  C    0.035191
    31  C   -0.004434
    32  N   -0.310412
    33  C    0.080271
    34  C   -0.169962
    35  C    0.008350
    36  C    0.082852
    37  C    0.127375
    38  C    0.046009
    39  O   -0.188517
    40  C   -0.005296
    41  C    0.212905
    42  O   -0.257190
    43  O   -0.304781
    44  C    0.157653
    45  H   -0.017434
    46  H   -0.016773
    47  H   -0.041746
    48  H    0.000988
    49  H   -0.003927
    50  H    0.025495
    51  H    0.016464
    52  H    0.016785
    53  H    0.011200
    54  H    0.044078
    55  H    0.017927
    56  H    0.018011
    57  H    0.005938
    58  H    0.026998
    59  H    0.039809
    60  H    0.037399
    61  H    0.035990
    62  H    0.031670
    63  H    0.016487
    64  H    0.009467
    65  H    0.023265
    66  H    0.012698
    67  H    0.004744
    68  H    0.006296
    69  H    0.004508
    70  H    0.008858
    71  H    0.017370
    72  H    0.029119
    73  H    0.047329
    74  H    0.008838
    75  H    0.046068
    76  H    0.035214
    77  H    0.043010
    78  H    0.046466
    79  H    0.053719
    80  Mg   0.837943
    81  C   -0.016843
    82  C   -0.087638
    83  C   -0.045242
    84  C   -0.064914
    85  N   -0.254585
    86  C   -0.049865
    87  C   -0.015093
    88  C   -0.090525
    89  C    0.045794
    90  C    0.114283
    91  C    0.062531
    92  C   -0.077829
    93  H    0.034663
    94  N   -0.423589
    95  C    0.162999
    96  C   -0.174208
    97  C   -0.007584
    98  C    0.152211
    99  C    0.099180
   100  C    0.015775
   101  O   -0.253058
   102  C    0.061155
   103  N   -0.349990
   104  C    0.037654
   105  C   -0.019936
   106  C   -0.034661
   107  C    0.088829
   108  C    0.073554
   109  C    0.034800
   110  C   -0.007642
   111  N   -0.324052
   112  C    0.078358
   113  C   -0.163370
   114  C    0.002176
   115  C    0.096118
   116  C    0.131514
   117  C    0.042213
   118  O   -0.188237
   119  C    0.000961
   120  C    0.211204
   121  O   -0.251109
   122  O   -0.305586
   123  C    0.152085
   124  H   -0.019331
   125  H   -0.015387
   126  H   -0.040818
   127  H   -0.000683
   128  H   -0.004385
   129  H    0.022493
   130  H    0.014927
   131  H    0.016327
   132  H    0.013892
   133  H    0.037575
   134  H    0.020797
   135  H    0.019590
   136  H    0.008830
   137  H    0.026823
   138  H    0.039718
   139  H    0.038691
   140  H    0.036432
   141  H    0.033689
   142  H    0.014294
   143  H    0.012203
   144  H    0.025106
   145  H    0.012438
   146  H    0.005510
   147  H    0.006097
   148  H    0.003353
   149  H    0.010951
   150  H    0.017691
   151  H    0.030194
   152  H    0.045774
   153  H    0.008264
   154  H    0.046665
   155  H    0.035063
   156  H    0.043797
   157  H    0.049505
   158  H    0.053468
 Sum of Mulliken charges =  -0.00000

 Dipole moment (field-independent basis, Debye):
    X=              4.0225    Y=             -0.4633    Z=              0.0876  Tot=              4.0500
 Quadrupole moment (field-independent basis, Debye-Ang):
   XX=           -521.3204   YY=           -550.3757   ZZ=           -447.3470
   XY=            -23.7588   XZ=             69.9065   YZ=             46.2152

 Normal termination of Gaussian 16 at Sat Sep 11 22:07:55 2021.
