 Gaussian 16, Revision A.03,
 Gaussian 16:  ES64L-G16RevA.03 25-Dec-2016

 -----------------------------------
 #p cam-b3lyp/Def2SVP td=(nstates=5)
 -----------------------------------

 --------------------------------
 TDDFT excited states in gaussian
 --------------------------------
 Symbolic Z-matrix:
 Charge =  0 Multiplicity = 1

                         Standard orientation:
 ---------------------------------------------------------------------
 Center     Atomic      Atomic             Coordinates (Angstroms)
 Number     Number       Type             X           Y           Z
 ---------------------------------------------------------------------
      1         12           0       -3.945047   -0.381713    0.108450
      2          6           0       -3.784795    3.166496    0.552017
      3          6           0       -4.790186    0.212596   -3.143566
      4          6           0       -4.535091   -3.483096   -0.191370
      5          6           0       -4.207837   -0.654603    3.572859
      6          7           0       -4.219044    1.495035   -1.033212
      7          6           0       -4.069225    2.787744   -0.761867
      8          6           0       -4.168311    3.699000   -2.021696
      9          6           0       -5.029952    2.739526   -2.959237
     10          6           0       -4.630148    1.399171   -2.368028
     11          6           0       -6.535727    2.919158   -2.795305
     12          6           0       -2.765541    4.002783   -2.647542
     13          6           0       -2.740310    5.138760   -3.674320
     14          1           0       -1.571718    6.003798   -3.733057
     15          7           0       -4.092133   -1.507462   -1.508308
     16          6           0       -4.431457   -1.095879   -2.753597
     17          6           0       -4.400499   -2.304587   -3.604919
     18          6           0       -4.201013   -3.482496   -2.715633
     19          6           0       -4.295543   -2.866134   -1.416964
     20          6           0       -4.502954   -2.261738   -5.098711
     21          6           0       -3.973416   -4.935019   -2.992237
     22          8           0       -4.056925   -5.823071   -2.076288
     23          6           0       -3.734206   -5.306325   -4.398634
     24          7           0       -4.539107   -1.851944    1.466075
     25          6           0       -4.666329   -3.128801    1.088668
     26          6           0       -4.820928   -4.035561    2.273499
     27          6           0       -4.528340   -3.135878    3.559856
     28          6           0       -4.325204   -1.772873    2.853299
     29          6           0       -6.190559   -4.711814    2.424510
     30          6           0       -3.429010   -3.634200    4.531230
     31          6           0       -2.077378   -3.563032    3.856600
     32          7           0       -3.814246    0.971062    1.800766
     33          6           0       -3.977915    0.645549    3.154992
     34          6           0       -3.908281    1.907663    3.914129
     35          6           0       -3.724318    2.887916    2.940936
     36          6           0       -3.708009    2.279742    1.653244
     37          6           0       -4.069583    2.043810    5.321211
     38          6           0       -3.562395    4.310378    2.687477
     39          8           0       -3.406124    5.305313    3.396825
     40          6           0       -3.717076    4.561283    1.122565
     41          6           0       -2.578448    5.443823    0.689021
     42          8           0       -1.401547    5.029717    0.717046
     43          8           0       -3.068738    6.540307    0.090791
     44          6           0       -1.990218    7.444716   -0.389826
     45          1           0       -5.288471    0.278679   -4.112733
     46          1           0       -4.633657   -4.569549   -0.239761
     47          1           0       -4.197095   -0.670887    4.664222
     48          1           0       -4.698353    4.638254   -1.862694
     49          1           0       -4.718269    2.802001   -4.001673
     50          1           0       -6.769357    3.587137   -1.966364
     51          1           0       -6.928622    1.920768   -2.602063
     52          1           0       -6.991162    3.244460   -3.731005
     53          1           0       -2.468351    3.169993   -3.284880
     54          1           0       -2.030795    4.205449   -1.867540
     55          1           0       -3.653698    5.732897   -3.633916
     56          1           0       -2.747614    4.698189   -4.671338
     57          1           0       -4.808674   -1.277411   -5.451105
     58          1           0       -5.325615   -2.918688   -5.380410
     59          1           0       -3.584585   -2.594358   -5.582752
     60          1           0       -4.588805   -4.999747   -5.002140
     61          1           0       -3.503673   -6.371069   -4.393499
     62          1           0       -2.877890   -4.743693   -4.771618
     63          1           0       -4.101048   -4.852203    2.237516
     64          1           0       -5.410522   -3.025291    4.190886
     65          1           0       -6.139694   -5.800249    2.462280
     66          1           0       -6.823569   -4.378185    1.602755
     67          1           0       -6.768291   -4.386119    3.289128
     68          1           0       -3.600993   -4.677004    4.795666
     69          1           0       -3.380696   -3.060892    5.457100
     70          1           0       -2.038746   -4.492847    3.290222
     71          1           0       -1.281860   -3.526349    4.601594
     72          1           0       -2.032899   -2.742807    3.139844
     73          1           0       -3.294648    2.735409    5.651569
     74          1           0       -3.982366    1.081287    5.824744
     75          1           0       -5.079468    2.450729    5.370257
     76          1           0       -4.684807    5.039963    0.975990
     77          1           0       -2.168982    8.422980    0.056578
     78          1           0       -1.991172    7.377243   -1.477875
     79          1           0       -0.984767    7.232493   -0.024629
     80         12           0        3.959133   -1.181917    0.038490
     81          6           0        4.115896    2.403390    0.028024
     82          6           0        3.069538   -1.003663   -3.249586
     83          6           0        3.374816   -4.299219    0.130218
     84          6           0        3.734097   -1.023425    3.512677
     85          7           0        3.664577    0.535674   -1.323642
     86          6           0        3.812585    1.848760   -1.232864
     87          6           0        3.704036    2.603265   -2.585077
     88          6           0        2.824769    1.527719   -3.390661
     89          6           0        3.232793    0.264057   -2.636123
     90          6           0        1.327717    1.724259   -3.218780
     91          6           0        5.102988    2.823315   -3.260744
     92          6           0        5.106184    3.818085   -4.423573
     93          1           0        6.278325    4.669253   -4.608176
     94          7           0        3.797195   -2.502066   -1.434441
     95          6           0        3.447514   -2.254591   -2.714189
     96          6           0        3.455014   -3.559761   -3.392898
     97          6           0        3.677041   -4.618607   -2.371001
     98          6           0        3.602585   -3.832164   -1.156065
     99          6           0        3.342514   -3.702705   -4.882979
    100          6           0        3.904367   -6.096680   -2.470112
    101          8           0        3.836024   -6.858885   -1.441918
    102          6           0        4.116918   -6.638193   -3.820330
    103          7           0        3.393313   -2.465834    1.572683
    104          6           0        3.257828   -3.785745    1.354949
    105          6           0        3.116644   -4.541346    2.654766
    106          6           0        3.429276   -3.476893    3.806629
    107          6           0        3.617947   -2.213186    2.938966
    108          6           0        1.750903   -5.179086    2.908556
    109          6           0        4.542587   -3.847749    4.824308
    110          6           0        5.886497   -3.873430    4.132463
    111          7           0        4.112659    0.365902    1.538073
    112          6           0        3.960380    0.218993    2.934251
    113          6           0        4.037780    1.570712    3.525259
    114          6           0        4.208037    2.419278    2.420976
    115          6           0        4.214615    1.652645    1.224422
    116          6           0        3.904409    1.883141    4.907553
    117          6           0        4.373038    3.790288    1.994598
    118          8           0        4.529040    4.866302    2.570426
    119          6           0        4.193977    3.853766    0.416527
    120          6           0        5.324819    4.670088   -0.146793
    121          8           0        6.497672    4.264017   -0.068473
    122          8           0        4.817940    5.683336   -0.872575
    123          6           0        5.901114    6.515250   -1.461193
    124          1           0        2.565960   -1.051635   -4.215499
    125          1           0        3.277588   -5.382943    0.228025
    126          1           0        3.770938   -0.899345    4.597069
    127          1           0        3.179938    3.550198   -2.536104
    128          1           0        3.132022    1.466332   -4.431432
    129          1           0        1.102750    2.484886   -2.485988
    130          1           0        0.939813    0.765546   -2.900262
    131          1           0        0.861254    1.931813   -4.186066
    132          1           0        5.390367    1.908677   -3.795150
    133          1           0        5.835624    3.115086   -2.533596
    134          1           0        4.187644    4.416530   -4.456589
    135          1           0        5.093944    3.256400   -5.360788
    136          1           0        3.023816   -2.764703   -5.354134
    137          1           0        2.518052   -4.397536   -5.076197
    138          1           0        4.252738   -4.099066   -5.338017
    139          1           0        3.256274   -6.404781   -4.442641
    140          1           0        4.350269   -7.695137   -3.677887
    141          1           0        4.977331   -6.129885   -4.269681
    142          1           0        3.838944   -5.346218    2.714623
    143          1           0        2.550060   -3.293672    4.441651
    144          1           0        1.804326   -6.270379    3.082582
    145          1           0        1.109623   -4.959438    2.065309
    146          1           0        1.191125   -4.755924    3.740892
    147          1           0        4.376573   -4.853788    5.217339
    148          1           0        4.593198   -3.174521    5.673539
    149          1           0        5.913822   -4.870730    3.683318
    150          1           0        6.691039   -3.743054    4.853397
    151          1           0        5.922781   -3.143031    3.315855
    152          1           0        4.674522    2.606962    5.138865
    153          1           0        3.995224    0.993207    5.526865
    154          1           0        2.889379    2.289153    4.918691
    155          1           0        3.222332    4.306384    0.215015
    156          1           0        5.723072    7.545968   -1.139317
    157          1           0        5.873736    6.315372   -2.548885
    158          1           0        6.910125    6.352452   -1.100857
 ---------------------------------------------------------------------

 SCF Done:  E(RCAM-B3LYP) =  -4069.81132879     A.U. after   19 cycles

 Excitation energies and oscillator strengths:

 Excited State   1:      Singlet-A      1.6381 eV  756.88 nm  f=0.0042  <S**2>=0.000
     309 -> 315       -0.11414
     310 -> 316        0.11820
     311 -> 313       -0.47577
     312 -> 314        0.49731
 This state for optimization and/or second-order correction.
 Total Energy, E(TD-HF/TD-DFT) =  -4069.75113011
 Copying the excited state density for this state as the 1-particle RhoCI density.

 Excited State   2:      Singlet-A      1.7116 eV  724.39 nm  f=0.6724  <S**2>=0.000
     309 -> 315        0.13318
     310 -> 316        0.12639
     311 -> 313        0.49391
     312 -> 314        0.47259

 Excited State   3:      Singlet-A      2.1780 eV  569.26 nm  f=0.0085  <S**2>=0.000
     309 -> 313       -0.35781
     310 -> 314        0.53814
     311 -> 315        0.14647
     312 -> 316       -0.22193

 Excited State   4:      Singlet-A      2.1974 eV  564.22 nm  f=0.1597  <S**2>=0.000
     309 -> 313        0.53193
     310 -> 314        0.35163
     311 -> 315       -0.23618
     312 -> 316       -0.15784

 Excited State   5:      Singlet-A      2.2330 eV  555.23 nm  f=0.0000  <S**2>=0.000
     312 -> 313        0.70708

 The electronic state is 1-A.
 Alpha  occ. eigenvalues --  -46.87915 -46.87384 -19.26336 -19.26071 -19.19087
 Alpha  occ. eigenvalues --  -19.18909 -19.18864 -19.18465 -19.18233 -19.17656
 Alpha  occ. eigenvalues --  -14.42582 -14.42229 -14.41570 -14.41086 -14.39521
 Alpha  occ. eigenvalues --  -14.39077 -14.38697 -14.38297 -10.39150 -10.38779
 Alpha  occ. eigenvalues --  -10.35546 -10.35149 -10.34456 -10.33825 -10.31697
 Alpha  occ. eigenvalues --  -10.31551 -10.31538 -10.31049 -10.31020 -10.30758
 Alpha  occ. eigenvalues --  -10.30692 -10.30613 -10.30334 -10.30095 -10.30056
 Alpha  occ. eigenvalues --  -10.30026 -10.29911 -10.29745 -10.29601 -10.29375
 Alpha  occ. eigenvalues --  -10.29180 -10.29106 -10.28936 -10.28817 -10.28534
 Alpha  occ. eigenvalues --  -10.28479 -10.28472 -10.28287 -10.28101 -10.27915
 Alpha  occ. eigenvalues --  -10.27901 -10.27862 -10.27703 -10.27695 -10.27667
 Alpha  occ. eigenvalues --  -10.27633 -10.27554 -10.27523 -10.27421 -10.27325
 Alpha  occ. eigenvalues --  -10.27323 -10.27241 -10.27185 -10.27185 -10.27151
 Alpha  occ. eigenvalues --  -10.26981 -10.26608 -10.26548 -10.26507 -10.26376
 Alpha  occ. eigenvalues --  -10.26354 -10.26236 -10.26145 -10.25976 -10.25928
 Alpha  occ. eigenvalues --  -10.25785 -10.25673 -10.25521 -10.25478 -10.25170
 Alpha  occ. eigenvalues --  -10.24935 -10.24911 -10.24896 -10.24567 -10.24545
 Alpha  occ. eigenvalues --  -10.24401  -3.16657  -3.16134  -1.91539  -1.91126
 Alpha  occ. eigenvalues --   -1.91017  -1.90968  -1.90605  -1.90441  -1.16688
 Alpha  occ. eigenvalues --   -1.16359  -1.08686  -1.08251  -1.07305  -1.06720
 Alpha  occ. eigenvalues --   -1.06706  -1.06647  -1.04712  -1.04218  -1.03882
 Alpha  occ. eigenvalues --   -1.03385  -1.03348  -1.02758  -1.02527  -1.01823
 Alpha  occ. eigenvalues --   -0.92081  -0.91658  -0.89650  -0.89364  -0.89244
 Alpha  occ. eigenvalues --   -0.88916  -0.88412  -0.87983  -0.87976  -0.87817
 Alpha  occ. eigenvalues --   -0.87473  -0.87423  -0.87406  -0.86885  -0.85149
 Alpha  occ. eigenvalues --   -0.84763  -0.84065  -0.83642  -0.83099  -0.82792
 Alpha  occ. eigenvalues --   -0.82717  -0.82415  -0.81679  -0.81319  -0.80709
 Alpha  occ. eigenvalues --   -0.80173  -0.78925  -0.78374  -0.77366  -0.77075
 Alpha  occ. eigenvalues --   -0.76906  -0.76656  -0.76044  -0.75575  -0.75013
 Alpha  occ. eigenvalues --   -0.74555  -0.72895  -0.72416  -0.71791  -0.71313
 Alpha  occ. eigenvalues --   -0.70057  -0.69549  -0.69027  -0.68587  -0.67757
 Alpha  occ. eigenvalues --   -0.67402  -0.67326  -0.66982  -0.65443  -0.65016
 Alpha  occ. eigenvalues --   -0.64968  -0.64745  -0.64503  -0.64402  -0.64390
 Alpha  occ. eigenvalues --   -0.63960  -0.62378  -0.62006  -0.60566  -0.60092
 Alpha  occ. eigenvalues --   -0.59957  -0.59539  -0.59105  -0.58716  -0.58617
 Alpha  occ. eigenvalues --   -0.58141  -0.57672  -0.57419  -0.57200  -0.56960
 Alpha  occ. eigenvalues --   -0.56428  -0.56073  -0.55932  -0.55640  -0.55629
 Alpha  occ. eigenvalues --   -0.55450  -0.55198  -0.54992  -0.54628  -0.54239
 Alpha  occ. eigenvalues --   -0.54069  -0.53683  -0.53422  -0.53365  -0.53029
 Alpha  occ. eigenvalues --   -0.52973  -0.52907  -0.52890  -0.52650  -0.52589
 Alpha  occ. eigenvalues --   -0.52458  -0.52196  -0.52010  -0.51780  -0.51532
 Alpha  occ. eigenvalues --   -0.51427  -0.51310  -0.50915  -0.50727  -0.50283
 Alpha  occ. eigenvalues --   -0.50182  -0.50057  -0.49751  -0.49660  -0.49633
 Alpha  occ. eigenvalues --   -0.49331  -0.49246  -0.49236  -0.48927  -0.48820
 Alpha  occ. eigenvalues --   -0.48699  -0.48572  -0.48541  -0.48286  -0.48131
 Alpha  occ. eigenvalues --   -0.48076  -0.47829  -0.47416  -0.47359  -0.46940
 Alpha  occ. eigenvalues --   -0.46885  -0.46720  -0.46480  -0.46463  -0.46331
 Alpha  occ. eigenvalues --   -0.46264  -0.46021  -0.45918  -0.45803  -0.45525
 Alpha  occ. eigenvalues --   -0.45313  -0.44959  -0.44681  -0.44658  -0.44285
 Alpha  occ. eigenvalues --   -0.44263  -0.44241  -0.44209  -0.44123  -0.43870
 Alpha  occ. eigenvalues --   -0.43839  -0.43663  -0.43589  -0.43526  -0.43295
 Alpha  occ. eigenvalues --   -0.43150  -0.43121  -0.42822  -0.42739  -0.42657
 Alpha  occ. eigenvalues --   -0.42605  -0.42325  -0.42152  -0.41817  -0.41735
 Alpha  occ. eigenvalues --   -0.41698  -0.41356  -0.41264  -0.41230  -0.41034
 Alpha  occ. eigenvalues --   -0.40957  -0.40734  -0.40698  -0.40501  -0.40480
 Alpha  occ. eigenvalues --   -0.40446  -0.40254  -0.40024  -0.39588  -0.39224
 Alpha  occ. eigenvalues --   -0.38607  -0.38124  -0.37946  -0.37452  -0.37448
 Alpha  occ. eigenvalues --   -0.37418  -0.37021  -0.36945  -0.36796  -0.36503
 Alpha  occ. eigenvalues --   -0.36301  -0.35965  -0.34404  -0.33971  -0.33846
 Alpha  occ. eigenvalues --   -0.33562  -0.33300  -0.32894  -0.31439  -0.31153
 Alpha  occ. eigenvalues --   -0.31025  -0.30687  -0.30092  -0.29562  -0.29556
 Alpha  occ. eigenvalues --   -0.29423  -0.29052  -0.28875  -0.24200  -0.23743
 Alpha  occ. eigenvalues --   -0.21250  -0.20838
 Alpha virt. eigenvalues --   -0.08891  -0.08500  -0.01869  -0.01414  -0.00174
 Alpha virt. eigenvalues --    0.00240   0.02101   0.02395   0.02643   0.03606
 Alpha virt. eigenvalues --    0.04558   0.04949   0.05042   0.05480   0.05921

 Mulliken charges:
               1
     1  Mg   0.838537
     2  C   -0.003176
     3  C   -0.095450
     4  C   -0.044980
     5  C   -0.063925
     6  N   -0.256612
     7  C   -0.053216
     8  C   -0.013549
     9  C   -0.086845
    10  C    0.046013
    11  C    0.104800
    12  C    0.051045
    13  C   -0.071334
    14  H    0.034947
    15  N   -0.433308
    16  C    0.168260
    17  C   -0.178192
    18  C   -0.003804
    19  C    0.149236
    20  C    0.110413
    21  C    0.013234
    22  O   -0.248215
    23  C    0.062633
    24  N   -0.340933
    25  C    0.040971
    26  C   -0.028669
    27  C   -0.024193
    28  C    0.074689
    29  C    0.075991
    30  C    0.037229
    31  C   -0.013789
    32  N   -0.310735
    33  C    0.080883
    34  C   -0.169678
    35  C    0.008888
    36  C    0.083453
    37  C    0.127190
    38  C    0.046881
    39  O   -0.186656
    40  C   -0.005884
    41  C    0.213858
    42  O   -0.257572
    43  O   -0.304997
    44  C    0.156481
    45  H   -0.017937
    46  H   -0.016206
    47  H   -0.041540
    48  H    0.001612
    49  H   -0.005036
    50  H    0.025883
    51  H    0.016809
    52  H    0.016645
    53  H    0.010255
    54  H    0.044509
    55  H    0.019259
    56  H    0.016769
    57  H    0.005340
    58  H    0.027299
    59  H    0.037324
    60  H    0.037191
    61  H    0.036496
    62  H    0.029391
    63  H    0.017411
    64  H    0.009850
    65  H    0.023735
    66  H    0.012666
    67  H    0.004867
    68  H    0.006671
    69  H    0.003900
    70  H    0.012763
    71  H    0.020607
    72  H    0.030965
    73  H    0.048293
    74  H    0.008773
    75  H    0.046413
    76  H    0.035350
    77  H    0.044175
    78  H    0.045056
    79  H    0.056041
    80  Mg   0.836964
    81  C   -0.014722
    82  C   -0.088217
    83  C   -0.045046
    84  C   -0.065119
    85  N   -0.254511
    86  C   -0.048053
    87  C   -0.014891
    88  C   -0.091791
    89  C    0.045585
    90  C    0.111278
    91  C    0.062754
    92  C   -0.077014
    93  H    0.034086
    94  N   -0.423424
    95  C    0.162612
    96  C   -0.175925
    97  C   -0.007786
    98  C    0.151400
    99  C    0.100105
   100  C    0.015505
   101  O   -0.253250
   102  C    0.061509
   103  N   -0.350151
   104  C    0.036837
   105  C   -0.020208
   106  C   -0.034660
   107  C    0.089468
   108  C    0.073924
   109  C    0.034751
   110  C   -0.007350
   111  N   -0.324986
   112  C    0.079645
   113  C   -0.161750
   114  C    0.005302
   115  C    0.095800
   116  C    0.130364
   117  C    0.046571
   118  O   -0.186365
   119  C   -0.001512
   120  C    0.210292
   121  O   -0.252136
   122  O   -0.304948
   123  C    0.152345
   124  H   -0.022281
   125  H   -0.015709
   126  H   -0.041010
   127  H    0.000628
   128  H   -0.006310
   129  H    0.031293
   130  H    0.014340
   131  H    0.011782
   132  H    0.013423
   133  H    0.037784
   134  H    0.019809
   135  H    0.018558
   136  H    0.006930
   137  H    0.023636
   138  H    0.039016
   139  H    0.037286
   140  H    0.035936
   141  H    0.033258
   142  H    0.013761
   143  H    0.010846
   144  H    0.023787
   145  H    0.014404
   146  H    0.003187
   147  H    0.005408
   148  H    0.003249
   149  H    0.010767
   150  H    0.017475
   151  H    0.030551
   152  H    0.045515
   153  H    0.006839
   154  H    0.051712
   155  H    0.044685
   156  H    0.043158
   157  H    0.048331
   158  H    0.053153
 Sum of Mulliken charges =  -0.00000

 Dipole moment (field-independent basis, Debye):
    X=             -4.4521    Y=             -1.4797    Z=             -7.0988  Tot=              8.5090
 Quadrupole moment (field-independent basis, Debye-Ang):
   XX=           -519.8811   YY=           -548.9821   ZZ=           -449.6881
   XY=             -9.5023   XZ=             -3.1797   YZ=            -47.1364

 Normal termination of Gaussian 16 at Fri Sep  3 17:06:00 2021.
