 Gaussian 16, Revision A.03,
 Gaussian 16:  ES64L-G16RevA.03 25-Dec-2016

 -----------------------------------
 #p cam-b3lyp/Def2SVP td=(nstates=5)
 -----------------------------------

 --------------------------------
 TDDFT excited states in gaussian
 --------------------------------
 Symbolic Z-matrix:
 Charge =  0 Multiplicity = 1

                         Standard orientation:
 ---------------------------------------------------------------------
 Center     Atomic      Atomic             Coordinates (Angstroms)
 Number     Number       Type             X           Y           Z
 ---------------------------------------------------------------------
      1         12           0       -4.340286    1.210463    0.426887
      2          6           0       -5.217712   -1.228473   -2.041702
      3          6           0       -5.824675   -0.813130    2.738754
      4          6           0       -3.981748    3.546167    2.541730
      5          6           0       -3.961450    3.494718   -2.177786
      6          7           0       -5.355845   -0.748498    0.248680
      7          6           0       -5.572604   -1.605145   -0.744468
      8          6           0       -6.144024   -2.973482   -0.266447
      9          6           0       -6.802082   -2.505082    1.108165
     10          6           0       -5.920300   -1.304451    1.402905
     11          6           0       -8.244584   -2.031206    0.962800
     12          6           0       -5.019742   -4.037390   -0.030178
     13          6           0       -5.507629   -5.481278    0.119849
     14          1           0       -4.687998   -6.556820   -0.417518
     15          7           0       -4.382677    1.168506    2.401550
     16          6           0       -5.022707    0.262094    3.178766
     17          6           0       -4.752899    0.661208    4.576833
     18          6           0       -4.062713    1.980647    4.548245
     19          6           0       -4.139162    2.300995    3.145779
     20          6           0       -5.095524   -0.194527    5.757544
     21          6           0       -3.443313    2.824503    5.617068
     22          8           0       -3.104056    4.040122    5.412741
     23          6           0       -3.323727    2.210622    6.951943
     24          7           0       -4.231010    3.287077    0.244223
     25          6           0       -4.014516    4.063255    1.311774
     26          6           0       -3.694178    5.471601    0.906950
     27          6           0       -3.496991    5.442174   -0.677350
     28          6           0       -3.838173    3.952868   -0.930000
     29          6           0       -4.746361    6.528290    1.270723
     30          6           0       -2.159958    5.996582   -1.229974
     31          6           0       -1.019348    5.095090   -0.813540
     32          7           0       -4.371564    1.132538   -1.741982
     33          6           0       -4.212990    2.209003   -2.626715
     34          6           0       -4.419339    1.682879   -3.988581
     35          6           0       -4.701806    0.331526   -3.799098
     36          6           0       -4.699553    0.038060   -2.405482
     37          6           0       -4.393026    2.445520   -5.189465
     38          6           0       -5.029277   -0.927472   -4.448360
     39          8           0       -5.079521   -1.313011   -5.617261
     40          6           0       -5.496326   -1.961054   -3.330594
     41          6           0       -4.768745   -3.254878   -3.575446
     42          8           0       -3.532289   -3.331886   -3.425067
     43          8           0       -5.661108   -4.247300   -3.714470
     44          6           0       -5.004025   -5.563966   -3.930771
     45          1           0       -6.463887   -1.249619    3.508706
     46          1           0       -3.745862    4.360097    3.230433
     47          1           0       -3.775916    4.130595   -3.045363
     48          1           0       -6.906821   -3.400066   -0.918053
     49          1           0       -6.691792   -3.257089    1.889217
     50          1           0       -8.540831   -1.971887   -0.084406
     51          1           0       -8.274303   -1.043542    1.423376
     52          1           0       -8.918516   -2.655879    1.549636
     53          1           0       -4.582994   -3.885627    0.956878
     54          1           0       -4.271338   -3.990158   -0.822003
     55          1           0       -6.541859   -5.588664   -0.208397
     56          1           0       -5.533956   -5.724258    1.182142
     57          1           0       -5.741678   -1.025100    5.476158
     58          1           0       -5.708135    0.412601    6.423736
     59          1           0       -4.206753   -0.538413    6.286845
     60          1           0       -4.314452    1.926912    7.307644
     61          1           0       -2.777470    2.927001    7.564523
     62          1           0       -2.752617    1.285803    6.865395
     63          1           0       -2.771993    5.812997    1.375405
     64          1           0       -4.260216    6.023389   -1.195376
     65          1           0       -4.356228    7.342294    1.882194
     66          1           0       -5.571658    6.023457    1.772042
     67          1           0       -5.254012    6.980016    0.418871
     68          1           0       -1.957592    6.982914   -0.813870
     69          1           0       -2.147309    6.085945   -2.316301
     70          1           0       -0.784073    5.447949    0.189938
     71          1           0       -0.168082    5.224946   -1.482639
     72          1           0       -1.343142    4.057744   -0.726608
     73          1           0       -3.828301    1.856860   -5.912330
     74          1           0       -3.934989    3.421242   -5.028933
     75          1           0       -5.458547    2.515254   -5.407774
     76          1           0       -6.575037   -2.071529   -3.436900
     77          1           0       -5.404472   -5.974073   -4.857965
     78          1           0       -5.153965   -6.138972   -3.016829
     79          1           0       -3.938173   -5.538864   -4.160267
     80         12           0        4.320410   -1.196111    0.474599
     81          6           0        5.293204    1.176540   -2.036026
     82          6           0        5.857646    0.816494    2.759530
     83          6           0        3.874410   -3.476326    2.635415
     84          6           0        3.886623   -3.519256   -2.086755
     85          7           0        5.400323    0.722940    0.266541
     86          6           0        5.653579    1.560731   -0.727605
     87          6           0        6.258794    2.919893   -0.284956
     88          6           0        6.901393    2.453753    1.110988
     89          6           0        5.978465    1.277896    1.424382
     90          6           0        8.319351    1.924655    0.973903
     91          6           0        5.162090    4.021840   -0.072930
     92          6           0        5.700561    5.448248    0.058098
     93          1           0        4.913254    6.543556   -0.501299
     94          7           0        4.353303   -1.110917    2.457081
     95          6           0        5.010267   -0.214128    3.222225
     96          6           0        4.732136   -0.594074    4.615946
     97          6           0        3.992520   -1.885456    4.611428
     98          6           0        4.064504   -2.225529    3.204563
     99          6           0        5.089061    0.278694    5.783983
    100          6           0        3.340818   -2.688566    5.696089
    101          8           0        2.962113   -3.897839    5.503558
    102          6           0        3.243748   -2.049686    7.016656
    103          7           0        4.140686   -3.262134    0.327702
    104          6           0        3.898978   -4.014156    1.415806
    105          6           0        3.535889   -5.428694    1.031582
    106          6           0        3.347346   -5.407624   -0.556368
    107          6           0        3.738396   -3.940291   -0.838188
    108          6           0        4.555745   -6.503030    1.408513
    109          6           0        1.994641   -5.931742   -1.111492
    110          6           0        0.875784   -4.996991   -0.711755
    111          7           0        4.360921   -1.155699   -1.685215
    112          6           0        4.178485   -2.247242   -2.562337
    113          6           0        4.409691   -1.747541   -3.933200
    114          6           0        4.735744   -0.394571   -3.755275
    115          6           0        4.729341   -0.078612   -2.369768
    116          6           0        4.355477   -2.527067   -5.122960
    117          6           0        5.094291    0.835589   -4.423748
    118          8           0        5.169649    1.196303   -5.597599
    119          6           0        5.594855    1.876660   -3.331968
    120          6           0        4.910547    3.190172   -3.594504
    121          8           0        3.678728    3.298623   -3.462325
    122          8           0        5.841637    4.149708   -3.745283
    123          6           0        5.211513    5.473144   -3.996827
    124          1           0        6.503078    1.255778    3.520667
    125          1           0        3.607829   -4.275328    3.331115
    126          1           0        3.674959   -4.157726   -2.947128
    127          1           0        7.030864    3.307768   -0.938586
    128          1           0        6.804167    3.227211    1.868410
    129          1           0        8.619219    1.839003   -0.059972
    130          1           0        8.317798    0.952453    1.449166
    131          1           0        9.010136    2.542811    1.554439
    132          1           0        4.716754    3.896948    0.922469
    133          1           0        4.427306    3.983252   -0.853468
    134          1           0        6.746957    5.524797   -0.261502
    135          1           0        5.723778    5.714436    1.117641
    136          1           0        5.771118    1.085807    5.489450
    137          1           0        5.677264   -0.335667    6.474236
    138          1           0        4.210561    0.658583    6.309909
    139          1           0        4.240094   -1.789748    7.366189
    140          1           0        2.669431   -2.742380    7.634894
    141          1           0        2.692081   -1.108937    6.910472
    142          1           0        2.602219   -5.727055    1.492397
    143          1           0        4.094800   -6.035048   -1.063799
    144          1           0        4.131630   -7.304018    2.043020
    145          1           0        5.388007   -6.023800    1.906733
    146          1           0        5.041790   -6.993895    0.567077
    147          1           0        1.757328   -6.904710   -0.674255
    148          1           0        1.988032   -6.052910   -2.189577
    149          1           0        0.629352   -5.326395    0.302069
    150          1           0        0.025176   -5.109406   -1.380988
    151          1           0        1.232210   -3.962527   -0.644753
    152          1           0        3.819202   -1.939321   -5.856091
    153          1           0        3.870586   -3.485335   -4.948672
    154          1           0        5.422808   -2.639023   -5.331591
    155          1           0        6.678765    1.953831   -3.425588
    156          1           0        5.633740    5.855604   -4.931247
    157          1           0        5.391425    6.068421   -3.081936
    158          1           0        4.151483    5.488919   -4.221657
 ---------------------------------------------------------------------

 SCF Done:  E(RCAM-B3LYP) =  -4069.81193779     A.U. after   19 cycles

 Excitation energies and oscillator strengths:

 Excited State   1:      Singlet-A      1.6468 eV  752.88 nm  f=0.0039  <S**2>=0.000
     309 -> 315       -0.11360
     310 -> 316        0.12125
     311 -> 313        0.50323
     312 -> 314       -0.46871
 This state for optimization and/or second-order correction.
 Total Energy, E(TD-HF/TD-DFT) =  -4069.75141864
 Copying the excited state density for this state as the 1-particle RhoCI density.

 Excited State   2:      Singlet-A      1.7021 eV  728.42 nm  f=0.7009  <S**2>=0.000
     309 -> 315        0.13249
     310 -> 316        0.12268
     311 -> 313        0.46644
     312 -> 314        0.50064

 Excited State   3:      Singlet-A      2.1810 eV  568.49 nm  f=0.0157  <S**2>=0.000
     309 -> 314        0.31812
     310 -> 313        0.56028
     311 -> 316       -0.23402
     312 -> 315       -0.13196

 Excited State   4:      Singlet-A      2.1940 eV  565.10 nm  f=0.1620  <S**2>=0.000
     309 -> 314        0.55614
     310 -> 313       -0.31446
     311 -> 316        0.13877
     312 -> 315       -0.24402

 Excited State   5:      Singlet-A      2.4730 eV  501.35 nm  f=0.0000  <S**2>=0.000
     312 -> 313        0.70709

 The electronic state is 1-A.
 Alpha  occ. eigenvalues --  -46.87578 -46.87472 -19.26274 -19.26193 -19.19070
 Alpha  occ. eigenvalues --  -19.18917 -19.18681 -19.18617 -19.17972 -19.17881
 Alpha  occ. eigenvalues --  -14.42319 -14.42240 -14.41228 -14.41165 -14.39193
 Alpha  occ. eigenvalues --  -14.39174 -14.38401 -14.38359 -10.38993 -10.38967
 Alpha  occ. eigenvalues --  -10.35320 -10.35300 -10.34195 -10.34060 -10.31724
 Alpha  occ. eigenvalues --  -10.31634 -10.31186 -10.31120 -10.30873 -10.30726
 Alpha  occ. eigenvalues --  -10.30340 -10.30287 -10.30207 -10.30159 -10.29987
 Alpha  occ. eigenvalues --  -10.29950 -10.29692 -10.29690 -10.29413 -10.29256
 Alpha  occ. eigenvalues --  -10.29214 -10.29042 -10.28589 -10.28588 -10.28576
 Alpha  occ. eigenvalues --  -10.28434 -10.28234 -10.28163 -10.27995 -10.27940
 Alpha  occ. eigenvalues --  -10.27815 -10.27576 -10.27513 -10.27487 -10.27380
 Alpha  occ. eigenvalues --  -10.27323 -10.27311 -10.27298 -10.27293 -10.27282
 Alpha  occ. eigenvalues --  -10.27242 -10.27227 -10.27202 -10.27181 -10.26991
 Alpha  occ. eigenvalues --  -10.26908 -10.26581 -10.26564 -10.26386 -10.26338
 Alpha  occ. eigenvalues --  -10.26071 -10.25894 -10.25841 -10.25807 -10.25774
 Alpha  occ. eigenvalues --  -10.25714 -10.25570 -10.25540 -10.25257 -10.25251
 Alpha  occ. eigenvalues --  -10.24684 -10.24614 -10.24580 -10.24511 -10.24253
 Alpha  occ. eigenvalues --  -10.24217  -3.16320  -3.16221  -1.91202  -1.91103
 Alpha  occ. eigenvalues --   -1.90789  -1.90692  -1.90631  -1.90529  -1.16563
 Alpha  occ. eigenvalues --   -1.16538  -1.08492  -1.08433  -1.07088  -1.06876
 Alpha  occ. eigenvalues --   -1.06851  -1.06534  -1.04375  -1.04320  -1.03544
 Alpha  occ. eigenvalues --   -1.03480  -1.03014  -1.02845  -1.02192  -1.01922
 Alpha  occ. eigenvalues --   -0.91815  -0.91772  -0.89272  -0.89267  -0.89011
 Alpha  occ. eigenvalues --   -0.89003  -0.88045  -0.87999  -0.87626  -0.87580
 Alpha  occ. eigenvalues --   -0.87502  -0.87466  -0.87093  -0.86976  -0.84853
 Alpha  occ. eigenvalues --   -0.84806  -0.83681  -0.83640  -0.82804  -0.82801
 Alpha  occ. eigenvalues --   -0.82507  -0.82476  -0.81454  -0.81423  -0.80415
 Alpha  occ. eigenvalues --   -0.80292  -0.78594  -0.78462  -0.77001  -0.76968
 Alpha  occ. eigenvalues --   -0.76752  -0.76730  -0.75745  -0.75688  -0.74682
 Alpha  occ. eigenvalues --   -0.74612  -0.72547  -0.72500  -0.71476  -0.71414
 Alpha  occ. eigenvalues --   -0.69611  -0.69478  -0.68692  -0.68675  -0.67448
 Alpha  occ. eigenvalues --   -0.67438  -0.67075  -0.67063  -0.65122  -0.65104
 Alpha  occ. eigenvalues --   -0.64656  -0.64592  -0.64493  -0.64424  -0.64027
 Alpha  occ. eigenvalues --   -0.63983  -0.62141  -0.62140  -0.60248  -0.60179
 Alpha  occ. eigenvalues --   -0.59638  -0.59616  -0.58812  -0.58779  -0.58301
 Alpha  occ. eigenvalues --   -0.58252  -0.57413  -0.57407  -0.57105  -0.57057
 Alpha  occ. eigenvalues --   -0.56109  -0.56029  -0.55846  -0.55767  -0.55346
 Alpha  occ. eigenvalues --   -0.55323  -0.55123  -0.55057  -0.54324  -0.54297
 Alpha  occ. eigenvalues --   -0.53773  -0.53724  -0.53114  -0.53069  -0.53041
 Alpha  occ. eigenvalues --   -0.52986  -0.52755  -0.52740  -0.52602  -0.52559
 Alpha  occ. eigenvalues --   -0.52123  -0.52093  -0.51656  -0.51647  -0.51528
 Alpha  occ. eigenvalues --   -0.51451  -0.51012  -0.50982  -0.50414  -0.50348
 Alpha  occ. eigenvalues --   -0.49833  -0.49799  -0.49729  -0.49644  -0.49359
 Alpha  occ. eigenvalues --   -0.49350  -0.49058  -0.49031  -0.48943  -0.48916
 Alpha  occ. eigenvalues --   -0.48415  -0.48412  -0.48295  -0.48249  -0.48221
 Alpha  occ. eigenvalues --   -0.48188  -0.47509  -0.47438  -0.47112  -0.46964
 Alpha  occ. eigenvalues --   -0.46571  -0.46519  -0.46407  -0.46389  -0.46142
 Alpha  occ. eigenvalues --   -0.46081  -0.45950  -0.45901  -0.45648  -0.45624
 Alpha  occ. eigenvalues --   -0.45010  -0.44977  -0.44397  -0.44374  -0.44311
 Alpha  occ. eigenvalues --   -0.44292  -0.43985  -0.43946  -0.43889  -0.43850
 Alpha  occ. eigenvalues --   -0.43829  -0.43810  -0.43397  -0.43318  -0.43228
 Alpha  occ. eigenvalues --   -0.43186  -0.42825  -0.42806  -0.42726  -0.42568
 Alpha  occ. eigenvalues --   -0.42389  -0.42327  -0.41752  -0.41725  -0.41504
 Alpha  occ. eigenvalues --   -0.41496  -0.41351  -0.41282  -0.40950  -0.40826
 Alpha  occ. eigenvalues --   -0.40702  -0.40650  -0.40618  -0.40532  -0.40327
 Alpha  occ. eigenvalues --   -0.40264  -0.40114  -0.40086  -0.39130  -0.39125
 Alpha  occ. eigenvalues --   -0.38239  -0.38149  -0.37589  -0.37523  -0.37088
 Alpha  occ. eigenvalues --   -0.37081  -0.37069  -0.37035  -0.36655  -0.36569
 Alpha  occ. eigenvalues --   -0.36036  -0.36000  -0.34070  -0.34069  -0.33753
 Alpha  occ. eigenvalues --   -0.33646  -0.32989  -0.32974  -0.31210  -0.31175
 Alpha  occ. eigenvalues --   -0.30832  -0.30799  -0.29832  -0.29785  -0.29248
 Alpha  occ. eigenvalues --   -0.29160  -0.29096  -0.29015  -0.23865  -0.23849
 Alpha  occ. eigenvalues --   -0.20928  -0.20907
 Alpha virt. eigenvalues --   -0.08611  -0.08563  -0.01539  -0.01504   0.00112
 Alpha virt. eigenvalues --    0.00117   0.02389   0.02411   0.02961   0.03871
 Alpha virt. eigenvalues --    0.04885   0.04905   0.05211   0.05268   0.06268

 Mulliken charges:
               1
     1  Mg   0.839387
     2  C   -0.003369
     3  C   -0.093946
     4  C   -0.046096
     5  C   -0.062248
     6  N   -0.256798
     7  C   -0.052389
     8  C   -0.014159
     9  C   -0.087009
    10  C    0.046160
    11  C    0.104909
    12  C    0.053291
    13  C   -0.071158
    14  H    0.034132
    15  N   -0.432946
    16  C    0.168286
    17  C   -0.177333
    18  C   -0.004608
    19  C    0.148504
    20  C    0.110244
    21  C    0.011468
    22  O   -0.250732
    23  C    0.062723
    24  N   -0.341309
    25  C    0.041341
    26  C   -0.027719
    27  C   -0.024104
    28  C    0.075317
    29  C    0.076464
    30  C    0.034795
    31  C   -0.005267
    32  N   -0.310946
    33  C    0.081642
    34  C   -0.167333
    35  C    0.008279
    36  C    0.083896
    37  C    0.127013
    38  C    0.046640
    39  O   -0.188439
    40  C   -0.005703
    41  C    0.213065
    42  O   -0.257637
    43  O   -0.304540
    44  C    0.158173
    45  H   -0.018124
    46  H   -0.017680
    47  H   -0.040276
    48  H    0.000540
    49  H   -0.004104
    50  H    0.025204
    51  H    0.016420
    52  H    0.016246
    53  H    0.012224
    54  H    0.043564
    55  H    0.017774
    56  H    0.018466
    57  H    0.005927
    58  H    0.026005
    59  H    0.039492
    60  H    0.037605
    61  H    0.033944
    62  H    0.030948
    63  H    0.015921
    64  H    0.008867
    65  H    0.022214
    66  H    0.012126
    67  H    0.004474
    68  H    0.004309
    69  H    0.005957
    70  H    0.005248
    71  H    0.025867
    72  H    0.029908
    73  H    0.049322
    74  H    0.010669
    75  H    0.045083
    76  H    0.034845
    77  H    0.042940
    78  H    0.046202
    79  H    0.052041
    80  Mg   0.838431
    81  C   -0.017247
    82  C   -0.087739
    83  C   -0.045789
    84  C   -0.063114
    85  N   -0.254568
    86  C   -0.049743
    87  C   -0.015216
    88  C   -0.090481
    89  C    0.045551
    90  C    0.114484
    91  C    0.062429
    92  C   -0.077301
    93  H    0.033165
    94  N   -0.423276
    95  C    0.162719
    96  C   -0.174884
    97  C   -0.008494
    98  C    0.151881
    99  C    0.099457
   100  C    0.014634
   101  O   -0.254380
   102  C    0.061509
   103  N   -0.350283
   104  C    0.037644
   105  C   -0.019370
   106  C   -0.034962
   107  C    0.089491
   108  C    0.074006
   109  C    0.034448
   110  C   -0.008916
   111  N   -0.324610
   112  C    0.079845
   113  C   -0.160614
   114  C    0.002128
   115  C    0.097170
   116  C    0.131241
   117  C    0.042979
   118  O   -0.187783
   119  C    0.000570
   120  C    0.211382
   121  O   -0.251371
   122  O   -0.305451
   123  C    0.152484
   124  H   -0.020220
   125  H   -0.016484
   126  H   -0.039015
   127  H   -0.001009
   128  H   -0.004461
   129  H    0.022203
   130  H    0.014382
   131  H    0.015848
   132  H    0.014742
   133  H    0.037175
   134  H    0.020680
   135  H    0.019974
   136  H    0.008773
   137  H    0.025312
   138  H    0.039547
   139  H    0.038541
   140  H    0.034582
   141  H    0.033222
   142  H    0.013726
   143  H    0.011757
   144  H    0.024034
   145  H    0.011187
   146  H    0.005381
   147  H    0.003900
   148  H    0.004972
   149  H    0.006856
   150  H    0.027195
   151  H    0.030997
   152  H    0.047870
   153  H    0.010243
   154  H    0.045952
   155  H    0.034679
   156  H    0.043851
   157  H    0.049261
   158  H    0.052174
 Sum of Mulliken charges =  -0.00000

 Dipole moment (field-independent basis, Debye):
    X=             -0.0547    Y=              0.0529    Z=              6.7560  Tot=              6.7564
 Quadrupole moment (field-independent basis, Debye-Ang):
   XX=           -469.1828   YY=           -470.2088   ZZ=           -540.5718
   XY=             25.4397   XZ=              0.0931   YZ=             -0.4131

 Normal termination of Gaussian 16 at Thu Sep  9 17:27:29 2021.
