 Gaussian 16, Revision A.03,
 Gaussian 16:  ES64L-G16RevA.03 25-Dec-2016

 -----------------------------------
 #p cam-b3lyp/Def2SVP td=(nstates=5)
 -----------------------------------

 --------------------------------
 TDDFT excited states in gaussian
 --------------------------------
 Symbolic Z-matrix:
 Charge =  0 Multiplicity = 1

                         Standard orientation:
 ---------------------------------------------------------------------
 Center     Atomic      Atomic             Coordinates (Angstroms)
 Number     Number       Type             X           Y           Z
 ---------------------------------------------------------------------
      1         12           0        8.173159    0.441527    0.791678
      2          6           0        8.519633   -2.518145   -1.191378
      3          6           0        9.278540    2.203817   -1.913046
      4          6           0        8.309606    3.004632    2.654067
      5          6           0        8.197596   -1.617386    3.603429
      6          7           0        8.787763   -0.189813   -1.239164
      7          6           0        8.817574   -1.347343   -1.892163
      8          6           0        9.122036   -1.191546   -3.412164
      9          6           0        9.882032    0.209515   -3.374348
     10          6           0        9.254150    0.792678   -2.120710
     11          6           0       11.386164    0.081048   -3.156210
     12          6           0        7.817640   -1.112638   -4.274751
     13          6           0        8.019846   -1.287995   -5.782636
     14          1           0        6.998597   -1.985085   -6.549750
     15          7           0        8.241011    2.360524    0.327248
     16          6           0        8.707250    2.898847   -0.825190
     17          6           0        8.544033    4.362031   -0.686865
     18          6           0        8.121437    4.642363    0.713464
     19          6           0        8.233924    3.332464    1.302437
     20          6           0        8.735336    5.322119   -1.820612
     21          6           0        7.695481    5.894382    1.412852
     22          8           0        7.594023    5.961656    2.685548
     23          6           0        7.482778    7.080938    0.564393
     24          7           0        8.464069    0.692053    2.843566
     25          6           0        8.420263    1.905902    3.403596
     26          6           0        8.371118    1.815368    4.900034
     27          6           0        8.144413    0.272259    5.242339
     28          6           0        8.186916   -0.297481    3.802944
     29          6           0        9.613836    2.325594    5.642552
     30          6           0        6.930304   -0.078178    6.138749
     31          6           0        5.644412    0.210823    5.397090
     32          7           0        8.151029   -1.695921    1.168335
     33          6           0        8.188087   -2.332364    2.417431
     34          6           0        8.265138   -3.782379    2.161330
     35          6           0        8.284397   -3.888532    0.772012
     36          6           0        8.249736   -2.586073    0.196956
     37          6           0        8.365795   -4.799308    3.151360
     38          6           0        8.351051   -4.798234   -0.360180
     39          8           0        8.305490   -6.022060   -0.493100
     40          6           0        8.628951   -3.943021   -1.674413
     41          6           0        7.660912   -4.403944   -2.729761
     42          8           0        6.435690   -4.201615   -2.606231
     43          8           0        8.342120   -4.793133   -3.818352
     44          6           0        7.439323   -5.234851   -4.914708
     45          1           0        9.834660    2.830758   -2.612772
     46          1           0        8.247477    3.857010    3.333796
     47          1           0        8.123363   -2.325213    4.431030
     48          1           0        9.776560   -1.959076   -3.825589
     49          1           0        9.642114    0.826126   -4.240346
     50          1           0       11.670015   -0.947401   -2.933403
     51          1           0       11.614194    0.730572   -2.310861
     52          1           0       11.936792    0.488711   -4.004383
     53          1           0        7.435701   -0.091932   -4.256243
     54          1           0        7.078802   -1.833934   -3.923786
     55          1           0        9.007957   -1.690089   -6.008172
     56          1           0        8.017211   -0.300723   -6.244682
     57          1           0        9.203811    4.840885   -2.678219
     58          1           0        9.465225    6.061647   -1.491874
     59          1           0        7.806215    5.820488   -2.097550
     60          1           0        8.406042    7.313914    0.033493
     61          1           0        7.095999    7.856883    1.224060
     62          1           0        6.742299    6.840874   -0.199158
     63          1           0        7.540584    2.395704    5.299847
     64          1           0        8.996432   -0.159559    5.767954
     65          1           0        9.399061    3.111363    6.367220
     66          1           0       10.334621    2.665378    4.899378
     67          1           0       10.184303    1.555824    6.161626
     68          1           0        6.929627    0.540943    7.035206
     69          1           0        6.916253   -1.121000    6.455886
     70          1           0        5.499263    1.276946    5.567810
     71          1           0        4.822769   -0.367794    5.820548
     72          1           0        5.763106    0.065993    4.323115
     73          1           0        7.685464   -5.593218    2.843420
     74          1           0        8.107807   -4.417448    4.138896
     75          1           0        9.420742   -5.059691    3.066847
     76          1           0        9.663963   -4.131383   -1.957947
     77          1           0        7.736769   -6.247561   -5.187066
     78          1           0        7.491207   -4.467271   -5.687064
     79          1           0        6.394581   -5.392812   -4.644703
     80         12           0       -7.654884    0.533948   -0.473594
     81          6           0      -10.216808   -1.728549    0.620345
     82          6           0      -10.123234    2.818745   -1.040669
     83          6           0       -5.484750    2.386175   -1.861820
     84          6           0       -5.585454   -2.236957   -0.904010
     85          7           0       -9.848374    0.439771   -0.205312
     86          6           0      -10.703299   -0.450324    0.275527
     87          6           0      -12.147696    0.084362    0.468895
     88          6           0      -12.106032    1.281733   -0.600420
     89          6           0      -10.604607    1.561670   -0.595539
     90          6           0      -12.507127    0.851494   -2.001621
     91          6           0      -12.396987    0.620599    1.922279
     92          6           0      -13.865528    0.870776    2.272360
     93          1           0      -14.310852    0.604133    3.637295
     94          7           0       -7.689306    2.478644   -0.868010
     95          6           0       -8.779718    3.253809   -1.045228
     96          6           0       -8.271141    4.604283   -1.331124
     97          6           0       -6.791479    4.528411   -1.471013
     98          6           0       -6.595621    3.093269   -1.425315
     99          6           0       -9.156097    5.816285   -1.367317
    100          6           0       -5.729878    5.573782   -1.633528
    101          8           0       -4.532474    5.270015   -1.975259
    102          6           0       -6.156036    6.971565   -1.472050
    103          7           0       -5.876698    0.120389   -1.468267
    104          6           0       -5.095588    1.112886   -1.929506
    105          6           0       -3.745851    0.589752   -2.359554
    106          6           0       -3.696192   -0.929889   -1.863759
    107          6           0       -5.123216   -1.054423   -1.286263
    108          6           0       -3.458142    0.645017   -3.859742
    109          6           0       -2.496887   -1.338126   -0.965049
    110          6           0       -2.592414   -0.639116    0.371975
    111          7           0       -7.770066   -1.577319   -0.029392
    112          6           0       -6.801324   -2.563620   -0.317217
    113          6           0       -7.379147   -3.867209    0.069048
    114          6           0       -8.662905   -3.548835    0.537122
    115          6           0       -8.878004   -2.148203    0.429972
    116          6           0       -6.747006   -5.133960   -0.078822
    117          6           0       -9.888927   -4.080403    1.087584
    118          8           0      -10.257668   -5.187308    1.478118
    119          6           0      -10.996388   -2.940946    1.048101
    120          6           0      -11.670855   -2.901984    2.392012
    121          8           0      -11.036937   -2.566060    3.407835
    122          8           0      -12.996989   -3.055438    2.224088
    123          6           0      -13.710818   -3.012713    3.528091
    124          1           0      -10.835582    3.525826   -1.466675
    125          1           0       -4.661655    2.992256   -2.247397
    126          1           0       -4.967053   -3.137025   -0.915725
    127          1           0      -12.930646   -0.618294    0.209982
    128          1           0      -12.656683    2.148569   -0.244409
    129          1           0      -12.640593   -0.217798   -2.072031
    130          1           0      -11.703984    1.176049   -2.650206
    131          1           0      -13.396072    1.400821   -2.324658
    132          1           0      -12.008799    1.644492    1.997655
    133          1           0      -11.958370   -0.033809    2.650289
    134          1           0      -14.546617    0.407122    1.548422
    135          1           0      -14.066362    1.941053    2.181893
    136          1           0      -10.217162    5.538983   -1.392700
    137          1           0       -8.981581    6.311045   -2.328889
    138          1           0       -8.937897    6.521330   -0.562355
    139          1           0       -6.938630    7.196071   -2.192882
    140          1           0       -5.241905    7.565010   -1.535834
    141          1           0       -6.600978    7.089005   -0.477643
    142          1           0       -2.946581    1.141948   -1.880644
    143          1           0       -3.636509   -1.632228   -2.708152
    144          1           0       -2.543235    1.215448   -4.107974
    145          1           0       -4.319031    1.071925   -4.356895
    146          1           0       -3.365960   -0.323511   -4.348272
    147          1           0       -1.556663   -1.014277   -1.418105
    148          1           0       -2.423992   -2.408201   -0.801890
    149          1           0       -2.153687    0.342452    0.169166
    150          1           0       -2.023295   -1.177410    1.127200
    151          1           0       -3.638322   -0.479769    0.658931
    152          1           0       -6.931378   -5.682522    0.835282
    153          1           0       -5.681482   -5.026573   -0.270920
    154          1           0       -7.284249   -5.519586   -0.949422
    155          1           0      -11.693713   -3.189467    0.247134
    156          1           0      -14.292988   -3.936286    3.604053
    157          1           0      -14.274159   -2.060657    3.529239
    158          1           0      -13.111553   -3.065706    4.429494
 ---------------------------------------------------------------------

 SCF Done:  E(RCAM-B3LYP) =  -4069.81191211     A.U. after   19 cycles

 Excitation energies and oscillator strengths:

 Excited State   1:      Singlet-A      1.6693 eV  742.73 nm  f=0.0202  <S**2>=0.000
     309 -> 315       -0.10210
     310 -> 316        0.13887
     311 -> 313       -0.40508
     312 -> 314        0.55410
 This state for optimization and/or second-order correction.
 Total Energy, E(TD-HF/TD-DFT) =  -4069.75056618
 Copying the excited state density for this state as the 1-particle RhoCI density.

 Excited State   2:      Singlet-A      1.6854 eV  735.65 nm  f=0.7357  <S**2>=0.000
     309 -> 315        0.14297
     310 -> 316        0.10392
     311 -> 313        0.55327
     312 -> 314        0.40455

 Excited State   3:      Singlet-A      2.1855 eV  567.30 nm  f=0.1001  <S**2>=0.000
     310 -> 314        0.64124
     312 -> 316       -0.27221

 Excited State   4:      Singlet-A      2.1932 eV  565.32 nm  f=0.1011  <S**2>=0.000
     309 -> 313        0.63937
     311 -> 315       -0.27793

 Excited State   5:      Singlet-A      2.7856 eV  445.09 nm  f=0.0000  <S**2>=0.000
     312 -> 313        0.70698

 The electronic state is 1-A.
 Alpha  occ. eigenvalues --  -46.87769 -46.87578 -19.26293 -19.26290 -19.19097
 Alpha  occ. eigenvalues --  -19.19031 -19.18766 -19.18654 -19.18150 -19.17977
 Alpha  occ. eigenvalues --  -14.42424 -14.42419 -14.41420 -14.41270 -14.39373
 Alpha  occ. eigenvalues --  -14.39273 -14.38561 -14.38517 -10.39087 -10.39026
 Alpha  occ. eigenvalues --  -10.35398 -10.35334 -10.34372 -10.34155 -10.31702
 Alpha  occ. eigenvalues --  -10.31693 -10.31383 -10.31230 -10.30953 -10.30883
 Alpha  occ. eigenvalues --  -10.30544 -10.30478 -10.30314 -10.30278 -10.30171
 Alpha  occ. eigenvalues --  -10.30046 -10.29891 -10.29800 -10.29600 -10.29357
 Alpha  occ. eigenvalues --  -10.29321 -10.29221 -10.28734 -10.28657 -10.28605
 Alpha  occ. eigenvalues --  -10.28539 -10.28338 -10.28330 -10.28098 -10.28078
 Alpha  occ. eigenvalues --  -10.27922 -10.27763 -10.27699 -10.27592 -10.27551
 Alpha  occ. eigenvalues --  -10.27460 -10.27437 -10.27410 -10.27409 -10.27406
 Alpha  occ. eigenvalues --  -10.27390 -10.27379 -10.27379 -10.27260 -10.27146
 Alpha  occ. eigenvalues --  -10.26980 -10.26702 -10.26636 -10.26373 -10.26344
 Alpha  occ. eigenvalues --  -10.26214 -10.26136 -10.25988 -10.25969 -10.25939
 Alpha  occ. eigenvalues --  -10.25836 -10.25814 -10.25743 -10.25395 -10.25299
 Alpha  occ. eigenvalues --  -10.24806 -10.24794 -10.24757 -10.24638 -10.24606
 Alpha  occ. eigenvalues --  -10.24547  -3.16512  -3.16328  -1.91394  -1.91211
 Alpha  occ. eigenvalues --   -1.90981  -1.90823  -1.90799  -1.90636  -1.16641
 Alpha  occ. eigenvalues --   -1.16583  -1.08611  -1.08585  -1.07166  -1.06908
 Alpha  occ. eigenvalues --   -1.06882  -1.06652  -1.04556  -1.04418  -1.03731
 Alpha  occ. eigenvalues --   -1.03581  -1.03205  -1.02952  -1.02383  -1.02028
 Alpha  occ. eigenvalues --   -0.91950  -0.91909  -0.89485  -0.89384  -0.89170
 Alpha  occ. eigenvalues --   -0.89084  -0.88251  -0.88104  -0.87842  -0.87706
 Alpha  occ. eigenvalues --   -0.87647  -0.87604  -0.87234  -0.87053  -0.84961
 Alpha  occ. eigenvalues --   -0.84930  -0.83901  -0.83756  -0.82920  -0.82858
 Alpha  occ. eigenvalues --   -0.82623  -0.82581  -0.81573  -0.81521  -0.80573
 Alpha  occ. eigenvalues --   -0.80368  -0.78762  -0.78560  -0.77190  -0.77064
 Alpha  occ. eigenvalues --   -0.76916  -0.76814  -0.75904  -0.75767  -0.74866
 Alpha  occ. eigenvalues --   -0.74705  -0.72745  -0.72612  -0.71646  -0.71500
 Alpha  occ. eigenvalues --   -0.69867  -0.69618  -0.68849  -0.68755  -0.67613
 Alpha  occ. eigenvalues --   -0.67523  -0.67197  -0.67137  -0.65268  -0.65201
 Alpha  occ. eigenvalues --   -0.64831  -0.64684  -0.64597  -0.64574  -0.64236
 Alpha  occ. eigenvalues --   -0.64090  -0.62287  -0.62200  -0.60404  -0.60261
 Alpha  occ. eigenvalues --   -0.59783  -0.59726  -0.58961  -0.58908  -0.58478
 Alpha  occ. eigenvalues --   -0.58341  -0.57571  -0.57481  -0.57279  -0.57145
 Alpha  occ. eigenvalues --   -0.56281  -0.56124  -0.55972  -0.55818  -0.55487
 Alpha  occ. eigenvalues --   -0.55385  -0.55313  -0.55147  -0.54504  -0.54388
 Alpha  occ. eigenvalues --   -0.53877  -0.53847  -0.53266  -0.53195  -0.53145
 Alpha  occ. eigenvalues --   -0.53070  -0.52896  -0.52826  -0.52719  -0.52609
 Alpha  occ. eigenvalues --   -0.52398  -0.52247  -0.51888  -0.51789  -0.51595
 Alpha  occ. eigenvalues --   -0.51594  -0.51172  -0.51112  -0.50523  -0.50410
 Alpha  occ. eigenvalues --   -0.49993  -0.49908  -0.49882  -0.49761  -0.49486
 Alpha  occ. eigenvalues --   -0.49422  -0.49189  -0.49133  -0.49075  -0.49031
 Alpha  occ. eigenvalues --   -0.48574  -0.48487  -0.48429  -0.48410  -0.48278
 Alpha  occ. eigenvalues --   -0.48276  -0.47666  -0.47517  -0.47266  -0.47042
 Alpha  occ. eigenvalues --   -0.46769  -0.46618  -0.46536  -0.46484  -0.46330
 Alpha  occ. eigenvalues --   -0.46182  -0.46138  -0.45996  -0.45805  -0.45741
 Alpha  occ. eigenvalues --   -0.45167  -0.45111  -0.44557  -0.44472  -0.44443
 Alpha  occ. eigenvalues --   -0.44394  -0.44112  -0.44065  -0.44055  -0.43991
 Alpha  occ. eigenvalues --   -0.43977  -0.43874  -0.43479  -0.43471  -0.43360
 Alpha  occ. eigenvalues --   -0.43309  -0.43001  -0.42858  -0.42819  -0.42691
 Alpha  occ. eigenvalues --   -0.42624  -0.42443  -0.41981  -0.41855  -0.41679
 Alpha  occ. eigenvalues --   -0.41588  -0.41513  -0.41376  -0.41115  -0.40911
 Alpha  occ. eigenvalues --   -0.40844  -0.40781  -0.40659  -0.40617  -0.40538
 Alpha  occ. eigenvalues --   -0.40377  -0.40220  -0.40169  -0.39400  -0.39282
 Alpha  occ. eigenvalues --   -0.38436  -0.38244  -0.37734  -0.37587  -0.37288
 Alpha  occ. eigenvalues --   -0.37244  -0.37164  -0.37126  -0.36707  -0.36697
 Alpha  occ. eigenvalues --   -0.36174  -0.36124  -0.34259  -0.34170  -0.33795
 Alpha  occ. eigenvalues --   -0.33775  -0.33161  -0.33093  -0.31297  -0.31213
 Alpha  occ. eigenvalues --   -0.31008  -0.30893  -0.30011  -0.29881  -0.29416
 Alpha  occ. eigenvalues --   -0.29294  -0.29253  -0.29131  -0.24054  -0.23954
 Alpha  occ. eigenvalues --   -0.21098  -0.21034
 Alpha virt. eigenvalues --   -0.08744  -0.08713  -0.01719  -0.01601  -0.00023
 Alpha virt. eigenvalues --    0.00039   0.02226   0.02289   0.03138   0.03313
 Alpha virt. eigenvalues --    0.04739   0.04804   0.05095   0.05230   0.06186

 Mulliken charges:
               1
     1  Mg   0.838435
     2  C   -0.003214
     3  C   -0.094100
     4  C   -0.045733
     5  C   -0.063931
     6  N   -0.256788
     7  C   -0.052620
     8  C   -0.013964
     9  C   -0.087006
    10  C    0.046281
    11  C    0.104799
    12  C    0.053469
    13  C   -0.071728
    14  H    0.035720
    15  N   -0.433171
    16  C    0.168466
    17  C   -0.177029
    18  C   -0.003824
    19  C    0.148741
    20  C    0.110143
    21  C    0.012527
    22  O   -0.249471
    23  C    0.062349
    24  N   -0.341112
    25  C    0.041243
    26  C   -0.028222
    27  C   -0.023976
    28  C    0.074788
    29  C    0.076160
    30  C    0.035104
    31  C   -0.004540
    32  N   -0.310393
    33  C    0.080227
    34  C   -0.169830
    35  C    0.008271
    36  C    0.082773
    37  C    0.127348
    38  C    0.045903
    39  O   -0.188604
    40  C   -0.005240
    41  C    0.212956
    42  O   -0.257658
    43  O   -0.304657
    44  C    0.157786
    45  H   -0.017561
    46  H   -0.016677
    47  H   -0.041419
    48  H    0.000900
    49  H   -0.004004
    50  H    0.025464
    51  H    0.016515
    52  H    0.016674
    53  H    0.011248
    54  H    0.043707
    55  H    0.017968
    56  H    0.018106
    57  H    0.005822
    58  H    0.026851
    59  H    0.039988
    60  H    0.037200
    61  H    0.035884
    62  H    0.031993
    63  H    0.016750
    64  H    0.009470
    65  H    0.023314
    66  H    0.012495
    67  H    0.004765
    68  H    0.006517
    69  H    0.004765
    70  H    0.009026
    71  H    0.018294
    72  H    0.028682
    73  H    0.047436
    74  H    0.009213
    75  H    0.046019
    76  H    0.035188
    77  H    0.043027
    78  H    0.046432
    79  H    0.053273
    80  Mg   0.837805
    81  C   -0.016968
    82  C   -0.087987
    83  C   -0.045521
    84  C   -0.064779
    85  N   -0.254580
    86  C   -0.049821
    87  C   -0.015116
    88  C   -0.090464
    89  C    0.045724
    90  C    0.114432
    91  C    0.062571
    92  C   -0.077812
    93  H    0.034772
    94  N   -0.423422
    95  C    0.162848
    96  C   -0.174840
    97  C   -0.007985
    98  C    0.152104
    99  C    0.099455
   100  C    0.015483
   101  O   -0.253468
   102  C    0.061260
   103  N   -0.350137
   104  C    0.037533
   105  C   -0.019771
   106  C   -0.035235
   107  C    0.088982
   108  C    0.073854
   109  C    0.034650
   110  C   -0.007844
   111  N   -0.324161
   112  C    0.078557
   113  C   -0.162858
   114  C    0.002182
   115  C    0.096316
   116  C    0.131357
   117  C    0.042446
   118  O   -0.187858
   119  C    0.000884
   120  C    0.211238
   121  O   -0.250985
   122  O   -0.305660
   123  C    0.152057
   124  H   -0.019951
   125  H   -0.015778
   126  H   -0.039582
   127  H   -0.000749
   128  H   -0.004483
   129  H    0.022401
   130  H    0.014382
   131  H    0.016059
   132  H    0.013908
   133  H    0.037700
   134  H    0.020708
   135  H    0.019494
   136  H    0.008622
   137  H    0.025812
   138  H    0.039599
   139  H    0.038058
   140  H    0.036003
   141  H    0.033953
   142  H    0.014479
   143  H    0.012857
   144  H    0.024798
   145  H    0.011090
   146  H    0.005952
   147  H    0.007624
   148  H    0.004929
   149  H    0.010623
   150  H    0.018880
   151  H    0.029281
   152  H    0.046134
   153  H    0.009377
   154  H    0.046891
   155  H    0.034892
   156  H    0.043834
   157  H    0.049398
   158  H    0.053572
 Sum of Mulliken charges =  -0.00000

 Dipole moment (field-independent basis, Debye):
    X=              0.2584    Y=              6.7400    Z=             -4.1921  Tot=              7.9416
 Quadrupole moment (field-independent basis, Debye-Ang):
   XX=           -420.9338   YY=           -543.5439   ZZ=           -482.4494
   XY=            -28.9125   XZ=             -5.3185   YZ=             -6.2250

 Normal termination of Gaussian 16 at Sat Sep 11 19:23:11 2021.
