 Gaussian 16, Revision A.03,
 Gaussian 16:  ES64L-G16RevA.03 25-Dec-2016

 -----------------------------------
 #p cam-b3lyp/Def2SVP td=(nstates=5)
 -----------------------------------

 --------------------------------
 TDDFT excited states in gaussian
 --------------------------------
 Symbolic Z-matrix:
 Charge =  0 Multiplicity = 1

                         Standard orientation:
 ---------------------------------------------------------------------
 Center     Atomic      Atomic             Coordinates (Angstroms)
 Number     Number       Type             X           Y           Z
 ---------------------------------------------------------------------
      1         12           0       -6.567759   -0.648566    0.097442
      2          6           0       -6.697437    2.922288    0.308152
      3          6           0       -7.445392   -0.338079   -3.185305
      4          6           0       -6.903248   -3.800530    0.001571
      5          6           0       -6.821298   -0.715447    3.572626
      6          7           0       -6.988466    1.121322   -1.163965
      7          6           0       -6.945013    2.436856   -0.977813
      8          6           0       -7.112649    3.252990   -2.294323
      9          6           0       -7.889948    2.167683   -3.166054
     10          6           0       -7.385149    0.905597   -2.489120
     11          6           0       -9.405968    2.234829   -3.012184
     12          6           0       -5.736652    3.628161   -2.940550
     13          6           0       -5.799523    4.693075   -4.039349
     14          1           0       -4.704679    5.644419   -4.156013
     15          7           0       -6.616686   -1.885536   -1.442156
     16          6           0       -6.983319   -1.584910   -2.711207
     17          6           0       -6.851100   -2.840039   -3.481825
     18          6           0       -6.560310   -3.937385   -2.517789
     19          6           0       -6.709645   -3.247380   -1.262015
     20          6           0       -6.950767   -2.903121   -4.975089
     21          6           0       -6.214615   -5.381579   -2.699259
     22          8           0       -6.229489   -6.211871   -1.727164
     23          6           0       -5.940516   -5.823142   -4.078728
     24          7           0       -7.046056   -2.070514    1.548969
     25          6           0       -7.067850   -3.375362    1.255917
     26          6           0       -7.153130   -4.212500    2.497636
     27          6           0       -6.939543   -3.210099    3.722106
     28          6           0       -6.844770   -1.884076    2.927782
     29          6           0       -8.464019   -4.986383    2.694319
     30          6           0       -5.807295   -3.553174    4.722472
     31          6           0       -4.463217   -3.416685    4.042823
     32          7           0       -6.553766    0.817801    1.697635
     33          6           0       -6.695877    0.569059    3.070444
     34          6           0       -6.731799    1.879457    3.745452
     35          6           0       -6.624050    2.805869    2.710080
     36          6           0       -6.553385    2.118375    1.464830
     37          6           0       -6.909186    2.093506    5.140856
     38          6           0       -6.576971    4.217220    2.364059
     39          8           0       -6.504684    5.265676    3.006716
     40          6           0       -6.745275    4.352189    0.786313
     41          6           0       -5.680230    5.294073    0.294539
     42          8           0       -4.473752    4.979553    0.347967
     43          8           0       -6.255418    6.305812   -0.373357
     44          6           0       -5.251868    7.261501   -0.913450
     45          1           0       -7.943547   -0.375974   -4.156050
     46          1           0       -6.913221   -4.892235    0.024360
     47          1           0       -6.813599   -0.659623    4.662707
     48          1           0       -7.717715    4.154492   -2.196283
     49          1           0       -7.580224    2.187154   -4.210762
     50          1           0       -9.696265    2.934259   -2.228318
     51          1           0       -9.717396    1.222575   -2.753634
     52          1           0       -9.882560    2.460402   -3.966517
     53          1           0       -5.370403    2.782463   -3.522546
     54          1           0       -5.023854    3.940202   -2.176433
     55          1           0       -6.758223    5.212495   -4.036603
     56          1           0       -5.767133    4.189307   -5.005459
     57          1           0       -7.333877   -1.971925   -5.390596
     58          1           0       -7.716340   -3.641628   -5.212185
     59          1           0       -6.006544   -3.190962   -5.437607
     60          1           0       -6.814755   -5.626927   -4.699819
     61          1           0       -5.624448   -6.863058   -4.004387
     62          1           0       -5.131156   -5.218390   -4.488803
     63          1           0       -6.369279   -4.968631    2.514091
     64          1           0       -7.830282   -3.130566    4.345749
     65          1           0       -8.325236   -6.062315    2.803014
     66          1           0       -9.118728   -4.759510    1.853382
     67          1           0       -9.069677   -4.652976    3.536599
     68          1           0       -5.895223   -4.587031    5.054668
     69          1           0       -5.809288   -2.918700    5.608863
     70          1           0       -4.347088   -4.375237    3.538318
     71          1           0       -3.676251   -3.267075    4.782764
     72          1           0       -4.482534   -2.644034    3.273978
     73          1           0       -6.194184    2.865772    5.424308
     74          1           0       -6.746225    1.176116    5.706048
     75          1           0       -7.948921    2.419456    5.164579
     76          1           0       -7.748037    4.740178    0.610091
     77          1           0       -5.511118    8.249045   -0.531639
     78          1           0       -5.243034    7.123384   -1.994769
     79          1           0       -4.233978    7.155833   -0.536523
     80         12           0        6.666585   -0.914118    0.056133
     81          6           0        6.697174    2.668673    0.260250
     82          6           0        5.939299   -0.570022   -3.258568
     83          6           0        6.188640   -4.048593   -0.062587
     84          6           0        6.260048   -0.969222    3.516974
     85          7           0        6.381179    0.870806   -1.218552
     86          6           0        6.477995    2.180290   -1.044695
     87          6           0        6.411692    3.009745   -2.355104
     88          6           0        5.612911    1.956070   -3.266478
     89          6           0        6.026403    0.663701   -2.565428
     90          6           0        4.103069    2.093722   -3.162749
     91          6           0        7.834508    3.314441   -2.942270
     92          6           0        7.861642    4.375989   -4.044152
     93          1           0        9.010907    5.273929   -4.117410
     94          7           0        6.626267   -2.149165   -1.496806
     95          6           0        6.333484   -1.837658   -2.776845
     96          6           0        6.421442   -3.099367   -3.528188
     97          6           0        6.628503   -4.209224   -2.558614
     98          6           0        6.464789   -3.499008   -1.306069
     99          6           0        6.389816   -3.157271   -5.027879
    100          6           0        6.912528   -5.670725   -2.730482
    101          8           0        6.819006   -6.494362   -1.752877
    102          6           0        7.212297   -6.124111   -4.096523
    103          7           0        6.069232   -2.304304    1.481934
    104          6           0        5.991595   -3.612663    1.181781
    105          6           0        5.811356   -4.448159    2.426715
    106          6           0        6.027380   -3.444347    3.652799
    107          6           0        6.215191   -2.125997    2.870433
    108          6           0        4.457819   -5.143504    2.571022
    109          6           0        7.099995   -3.838806    4.704734
    110          6           0        8.477359   -3.780104    4.084395
    111          7           0        6.689122    0.546215    1.648292
    112          6           0        6.471448    0.311955    3.023729
    113          6           0        6.471043    1.628050    3.694792
    114          6           0        6.667114    2.545632    2.651676
    115          6           0        6.761441    1.851900    1.415017
    116          6           0        6.256754    1.853516    5.083808
    117          6           0        6.805105    3.944116    2.314178
    118          8           0        6.893643    4.988570    2.958390
    119          6           0        6.704249    4.095230    0.735130
    120          6           0        7.832741    4.979542    0.280137
    121          8           0        9.013686    4.607549    0.396703
    122          8           0        7.327944    6.017170   -0.411861
    123          6           0        8.409594    6.916992   -0.893712
    124          1           0        5.487407   -0.576840   -4.250856
    125          1           0        6.124834   -5.138780   -0.032565
    126          1           0        6.237397   -0.908525    4.607144
    127          1           0        5.852713    3.934728   -2.279428
    128          1           0        5.974569    1.966429   -4.291397
    129          1           0        3.814517    2.801923   -2.400297
    130          1           0        3.733541    1.105810   -2.920822
    131          1           0        3.679275    2.343118   -4.139749
    132          1           0        8.180704    2.442828   -3.512511
    133          1           0        8.518545    3.586044   -2.161912
    134          1           0        6.925436    4.945417   -4.091068
    135          1           0        7.916802    3.870745   -5.011464
    136          1           0        6.062579   -2.203751   -5.460432
    137          1           0        5.601238   -3.865637   -5.303965
    138          1           0        7.335377   -3.496413   -5.456330
    139          1           0        6.376659   -5.882074   -4.748894
    140          1           0        7.475254   -7.179570   -4.003029
    141          1           0        8.075958   -5.562600   -4.469894
    142          1           0        6.557605   -5.231457    2.478167
    143          1           0        5.111158   -3.327534    4.250058
    144          1           0        4.540788   -6.240905    2.684536
    145          1           0        3.852829   -4.895034    1.709163
    146          1           0        3.841943   -4.788694    3.395643
    147          1           0        6.949814   -4.871207    5.029931
    148          1           0        7.083662   -3.215831    5.592776
    149          1           0        8.562578   -4.747622    3.580686
    150          1           0        9.239175   -3.666834    4.853067
    151          1           0        8.529260   -3.001787    3.314211
    152          1           0        6.988138    2.586797    5.396668
    153          1           0        6.347341    0.931825    5.654819
    154          1           0        5.228780    2.225227    5.064751
    155          1           0        5.728724    4.527454    0.509051
    156          1           0        8.179220    7.920542   -0.522887
    157          1           0        8.444532    6.781168   -1.991019
    158          1           0        9.404118    6.765716   -0.490622
 ---------------------------------------------------------------------

 SCF Done:  E(RCAM-B3LYP) =  -4069.81159433     A.U. after   19 cycles

 Excitation energies and oscillator strengths:

 Excited State   1:      Singlet-A      1.6654 eV  744.45 nm  f=0.0066  <S**2>=0.000
     309 -> 315       -0.11012
     310 -> 316        0.13129
     311 -> 313       -0.43966
     312 -> 314        0.52740
 This state for optimization and/or second-order correction.
 Total Energy, E(TD-HF/TD-DFT) =  -4069.75039067
 Copying the excited state density for this state as the 1-particle RhoCI density.

 Excited State   2:      Singlet-A      1.6893 eV  733.94 nm  f=0.7370  <S**2>=0.000
     309 -> 315        0.13678
     310 -> 316        0.11332
     311 -> 313        0.52620
     312 -> 314        0.43874

 Excited State   3:      Singlet-A      2.1846 eV  567.54 nm  f=0.0400  <S**2>=0.000
     309 -> 313       -0.20130
     310 -> 314        0.61080
     312 -> 316       -0.25836

 Excited State   4:      Singlet-A      2.1934 eV  565.26 nm  f=0.1487  <S**2>=0.000
     309 -> 313        0.60835
     310 -> 314        0.19951
     311 -> 315       -0.26514

 Excited State   5:      Singlet-A      2.6516 eV  467.58 nm  f=0.0000  <S**2>=0.000
     312 -> 313        0.70710

 The electronic state is 1-A.
 Alpha  occ. eigenvalues --  -46.87846 -46.87550 -19.26321 -19.26237 -19.19057
 Alpha  occ. eigenvalues --  -19.19050 -19.18861 -19.18627 -19.18202 -19.17922
 Alpha  occ. eigenvalues --  -14.42502 -14.42388 -14.41497 -14.41249 -14.39452
 Alpha  occ. eigenvalues --  -14.39245 -14.38633 -14.38485 -10.39117 -10.38976
 Alpha  occ. eigenvalues --  -10.35495 -10.35307 -10.34423 -10.34098 -10.31714
 Alpha  occ. eigenvalues --  -10.31656 -10.31455 -10.31194 -10.30963 -10.30919
 Alpha  occ. eigenvalues --  -10.30617 -10.30552 -10.30285 -10.30256 -10.30247
 Alpha  occ. eigenvalues --  -10.30040 -10.29963 -10.29780 -10.29677 -10.29333
 Alpha  occ. eigenvalues --  -10.29303 -10.29293 -10.28813 -10.28631 -10.28613
 Alpha  occ. eigenvalues --  -10.28582 -10.28413 -10.28294 -10.28177 -10.28031
 Alpha  occ. eigenvalues --  -10.27888 -10.27837 -10.27779 -10.27632 -10.27564
 Alpha  occ. eigenvalues --  -10.27547 -10.27544 -10.27489 -10.27452 -10.27420
 Alpha  occ. eigenvalues --  -10.27400 -10.27371 -10.27362 -10.27274 -10.27197
 Alpha  occ. eigenvalues --  -10.26918 -10.26788 -10.26605 -10.26465 -10.26353
 Alpha  occ. eigenvalues --  -10.26287 -10.26229 -10.26066 -10.26052 -10.25894
 Alpha  occ. eigenvalues --  -10.25870 -10.25826 -10.25712 -10.25470 -10.25292
 Alpha  occ. eigenvalues --  -10.24875 -10.24833 -10.24756 -10.24738 -10.24650
 Alpha  occ. eigenvalues --  -10.24581  -3.16589  -3.16300  -1.91471  -1.91182
 Alpha  occ. eigenvalues --   -1.91057  -1.90899  -1.90771  -1.90607  -1.16669
 Alpha  occ. eigenvalues --   -1.16531  -1.08659  -1.08527  -1.07262  -1.06881
 Alpha  occ. eigenvalues --   -1.06833  -1.06679  -1.04632  -1.04385  -1.03809
 Alpha  occ. eigenvalues --   -1.03554  -1.03281  -1.02929  -1.02458  -1.02000
 Alpha  occ. eigenvalues --   -0.92017  -0.91870  -0.89565  -0.89391  -0.89249
 Alpha  occ. eigenvalues --   -0.89044  -0.88331  -0.88119  -0.87910  -0.87726
 Alpha  occ. eigenvalues --   -0.87673  -0.87578  -0.87326  -0.87031  -0.85041
 Alpha  occ. eigenvalues --   -0.84897  -0.83980  -0.83776  -0.83018  -0.82848
 Alpha  occ. eigenvalues --   -0.82703  -0.82553  -0.81629  -0.81486  -0.80644
 Alpha  occ. eigenvalues --   -0.80337  -0.78847  -0.78535  -0.77270  -0.77042
 Alpha  occ. eigenvalues --   -0.76987  -0.76794  -0.75972  -0.75729  -0.74941
 Alpha  occ. eigenvalues --   -0.74698  -0.72820  -0.72588  -0.71719  -0.71470
 Alpha  occ. eigenvalues --   -0.69953  -0.69662  -0.68929  -0.68725  -0.67688
 Alpha  occ. eigenvalues --   -0.67496  -0.67284  -0.67109  -0.65343  -0.65166
 Alpha  occ. eigenvalues --   -0.64900  -0.64670  -0.64662  -0.64548  -0.64315
 Alpha  occ. eigenvalues --   -0.64101  -0.62338  -0.62169  -0.60491  -0.60243
 Alpha  occ. eigenvalues --   -0.59860  -0.59688  -0.59034  -0.58884  -0.58549
 Alpha  occ. eigenvalues --   -0.58316  -0.57624  -0.57433  -0.57353  -0.57132
 Alpha  occ. eigenvalues --   -0.56356  -0.56098  -0.56023  -0.55782  -0.55568
 Alpha  occ. eigenvalues --   -0.55381  -0.55353  -0.55141  -0.54565  -0.54383
 Alpha  occ. eigenvalues --   -0.53956  -0.53808  -0.53346  -0.53276  -0.53126
 Alpha  occ. eigenvalues --   -0.53040  -0.52961  -0.52812  -0.52799  -0.52583
 Alpha  occ. eigenvalues --   -0.52484  -0.52309  -0.51949  -0.51755  -0.51675
 Alpha  occ. eigenvalues --   -0.51562  -0.51240  -0.51091  -0.50630  -0.50397
 Alpha  occ. eigenvalues --   -0.50079  -0.49971  -0.49881  -0.49769  -0.49568
 Alpha  occ. eigenvalues --   -0.49391  -0.49260  -0.49149  -0.49095  -0.48990
 Alpha  occ. eigenvalues --   -0.48637  -0.48506  -0.48488  -0.48448  -0.48271
 Alpha  occ. eigenvalues --   -0.48244  -0.47746  -0.47496  -0.47345  -0.47022
 Alpha  occ. eigenvalues --   -0.46846  -0.46615  -0.46605  -0.46454  -0.46405
 Alpha  occ. eigenvalues --   -0.46204  -0.46167  -0.45974  -0.45862  -0.45706
 Alpha  occ. eigenvalues --   -0.45245  -0.45104  -0.44619  -0.44562  -0.44405
 Alpha  occ. eigenvalues --   -0.44374  -0.44192  -0.44144  -0.44064  -0.44019
 Alpha  occ. eigenvalues --   -0.43981  -0.43839  -0.43536  -0.43446  -0.43439
 Alpha  occ. eigenvalues --   -0.43279  -0.43073  -0.42823  -0.42787  -0.42740
 Alpha  occ. eigenvalues --   -0.42697  -0.42456  -0.42059  -0.41866  -0.41749
 Alpha  occ. eigenvalues --   -0.41594  -0.41554  -0.41360  -0.41190  -0.40927
 Alpha  occ. eigenvalues --   -0.40880  -0.40877  -0.40634  -0.40618  -0.40603
 Alpha  occ. eigenvalues --   -0.40391  -0.40307  -0.40138  -0.39488  -0.39332
 Alpha  occ. eigenvalues --   -0.38518  -0.38250  -0.37816  -0.37560  -0.37368
 Alpha  occ. eigenvalues --   -0.37322  -0.37163  -0.37095  -0.36753  -0.36663
 Alpha  occ. eigenvalues --   -0.36237  -0.36112  -0.34333  -0.34143  -0.33810
 Alpha  occ. eigenvalues --   -0.33751  -0.33233  -0.33066  -0.31391  -0.31185
 Alpha  occ. eigenvalues --   -0.31083  -0.30864  -0.30062  -0.29825  -0.29497
 Alpha  occ. eigenvalues --   -0.29365  -0.29223  -0.29093  -0.24128  -0.23924
 Alpha  occ. eigenvalues --   -0.21176  -0.21008
 Alpha virt. eigenvalues --   -0.08821  -0.08682  -0.01798  -0.01577  -0.00107
 Alpha virt. eigenvalues --    0.00071   0.02161   0.02327   0.03063   0.03324
 Alpha virt. eigenvalues --    0.04661   0.04836   0.05060   0.05280   0.06106

 Mulliken charges:
               1
     1  Mg   0.838591
     2  C   -0.003041
     3  C   -0.094426
     4  C   -0.045783
     5  C   -0.063911
     6  N   -0.256744
     7  C   -0.052546
     8  C   -0.013962
     9  C   -0.086951
    10  C    0.046204
    11  C    0.104808
    12  C    0.053597
    13  C   -0.071581
    14  H    0.035613
    15  N   -0.433136
    16  C    0.168306
    17  C   -0.177367
    18  C   -0.004018
    19  C    0.148657
    20  C    0.110231
    21  C    0.012301
    22  O   -0.249408
    23  C    0.062530
    24  N   -0.341137
    25  C    0.041188
    26  C   -0.028194
    27  C   -0.024021
    28  C    0.074872
    29  C    0.076121
    30  C    0.035111
    31  C   -0.004493
    32  N   -0.310526
    33  C    0.080458
    34  C   -0.169526
    35  C    0.008523
    36  C    0.083003
    37  C    0.127254
    38  C    0.046308
    39  O   -0.187936
    40  C   -0.005390
    41  C    0.212983
    42  O   -0.257121
    43  O   -0.304799
    44  C    0.157576
    45  H   -0.017702
    46  H   -0.016725
    47  H   -0.041342
    48  H    0.001094
    49  H   -0.004336
    50  H    0.025599
    51  H    0.016545
    52  H    0.016620
    53  H    0.010699
    54  H    0.044076
    55  H    0.018187
    56  H    0.017596
    57  H    0.005694
    58  H    0.026917
    59  H    0.039020
    60  H    0.037316
    61  H    0.035849
    62  H    0.031082
    63  H    0.016614
    64  H    0.009591
    65  H    0.023319
    66  H    0.012570
    67  H    0.004834
    68  H    0.006447
    69  H    0.004804
    70  H    0.008867
    71  H    0.017853
    72  H    0.028982
    73  H    0.047944
    74  H    0.009147
    75  H    0.046139
    76  H    0.035237
    77  H    0.043300
    78  H    0.046045
    79  H    0.053897
    80  Mg   0.838065
    81  C   -0.016681
    82  C   -0.087887
    83  C   -0.045520
    84  C   -0.064635
    85  N   -0.254556
    86  C   -0.049414
    87  C   -0.015159
    88  C   -0.090630
    89  C    0.045905
    90  C    0.114384
    91  C    0.062603
    92  C   -0.077666
    93  H    0.034571
    94  N   -0.423441
    95  C    0.162853
    96  C   -0.174951
    97  C   -0.007967
    98  C    0.152039
    99  C    0.099558
   100  C    0.015401
   101  O   -0.253310
   102  C    0.061289
   103  N   -0.349971
   104  C    0.037515
   105  C   -0.019808
   106  C   -0.034849
   107  C    0.089045
   108  C    0.073673
   109  C    0.034757
   110  C   -0.007626
   111  N   -0.324258
   112  C    0.078705
   113  C   -0.162765
   114  C    0.002712
   115  C    0.096239
   116  C    0.131326
   117  C    0.042893
   118  O   -0.187379
   119  C    0.000700
   120  C    0.211126
   121  O   -0.251296
   122  O   -0.305361
   123  C    0.152130
   124  H   -0.020239
   125  H   -0.015723
   126  H   -0.040414
   127  H   -0.000272
   128  H   -0.004920
   129  H    0.023874
   130  H    0.014571
   131  H    0.015436
   132  H    0.013705
   133  H    0.037652
   134  H    0.020810
   135  H    0.019219
   136  H    0.008354
   137  H    0.025558
   138  H    0.039435
   139  H    0.037935
   140  H    0.036151
   141  H    0.033735
   142  H    0.014155
   143  H    0.012537
   144  H    0.024909
   145  H    0.011997
   146  H    0.005630
   147  H    0.006052
   148  H    0.003621
   149  H    0.010816
   150  H    0.017753
   151  H    0.030176
   152  H    0.045890
   153  H    0.008224
   154  H    0.048222
   155  H    0.036222
   156  H    0.043983
   157  H    0.049208
   158  H    0.053381
 Sum of Mulliken charges =  -0.00000

 Dipole moment (field-independent basis, Debye):
    X=             -4.0264    Y=             -2.1523    Z=             -7.6349  Tot=              8.8958
 Quadrupole moment (field-independent basis, Debye-Ang):
   XX=           -516.6450   YY=           -551.4798   ZZ=           -447.4510
   XY=             -4.5030   XZ=             -3.3965   YZ=            -48.3576

 Normal termination of Gaussian 16 at Sat Sep 11 15:36:09 2021.
