 Gaussian 16, Revision A.03,
 Gaussian 16:  ES64L-G16RevA.03 25-Dec-2016

 -----------------------------------
 #p cam-b3lyp/Def2SVP td=(nstates=5)
 -----------------------------------

 --------------------------------
 TDDFT excited states in gaussian
 --------------------------------
 Symbolic Z-matrix:
 Charge =  0 Multiplicity = 1

                         Standard orientation:
 ---------------------------------------------------------------------
 Center     Atomic      Atomic             Coordinates (Angstroms)
 Number     Number       Type             X           Y           Z
 ---------------------------------------------------------------------
      1         12           0        5.492165    0.099038   -0.009313
      2          6           0        5.280390   -3.400379   -0.731423
      3          6           0        6.283521    0.577231   -3.293845
      4          6           0        6.128331    3.124454    0.696923
      5          6           0        5.806147   -0.764087    3.352545
      6          7           0        5.720228   -1.311509   -1.700168
      7          6           0        5.553141   -2.620868   -1.857750
      8          6           0        5.620396   -3.077616   -3.345780
      9          6           0        6.484736   -1.876365   -3.939000
     10          6           0        6.114753   -0.794352   -2.939857
     11          6           0        7.989478   -2.115840   -3.868964
     12          6           0        4.204552   -3.147639   -4.010771
     13          6           0        4.147023   -3.890934   -5.348514
     14          1           0        2.963866   -4.677787   -5.662122
     15          7           0        5.635625    1.684790   -1.178783
     16          6           0        5.951367    1.693592   -2.496173
     17          6           0        5.928514    3.112687   -2.911296
     18          6           0        5.760199    3.942526   -1.686089
     19          6           0        5.862264    2.938891   -0.657655
     20          6           0        6.010061    3.553286   -4.340622
     21          6           0        5.552475    5.408975   -1.475119
     22          8           0        5.662750    5.952779   -0.323299
     23          6           0        5.300331    6.217064   -2.681958
     24          7           0        6.128290    1.045601    1.739114
     25          6           0        6.271093    2.374448    1.791617
     26          6           0        6.456381    2.848366    3.202648
     27          6           0        6.166651    1.584830    4.135003
     28          6           0        5.931902    0.525249    3.030262
     29          6           0        7.838717    3.424556    3.539047
     30          6           0        5.088778    1.754904    5.234859
     31          6           0        3.727176    1.920212    4.597828
     32          7           0        5.362323   -1.726141    1.158123
     33          6           0        5.549540   -1.857096    2.541768
     34          6           0        5.469710   -3.295866    2.854235
     35          6           0        5.256734   -3.907343    1.620306
     36          6           0        5.232889   -2.915860    0.598207
     37          6           0        5.647786   -3.880768    4.138997
     38          6           0        5.068349   -5.169929    0.924430
     39          8           0        4.905561   -6.338820    1.277542
     40          6           0        5.197773   -4.903845   -0.640267
     41          6           0        4.039224   -5.586583   -1.314761
     42          8           0        2.869681   -5.190793   -1.133418
     43          8           0        4.503533   -6.436527   -2.243499
     44          6           0        3.404088   -7.125425   -2.970681
     45          1           0        6.767523    0.822114   -4.241324
     46          1           0        6.243843    4.167198    0.999877
     47          1           0        5.810423   -1.100909    4.390806
     48          1           0        6.137233   -4.023671   -3.507898
     49          1           0        6.158019   -1.595510   -4.940049
     50          1           0        8.223424   -3.018199   -3.304218
     51          1           0        8.401091   -1.237684   -3.371059
     52          1           0        8.426887   -2.126610   -4.867630
     53          1           0        3.912322   -2.150466   -4.339874
     54          1           0        3.477226   -3.583191   -3.324755
     55          1           0        5.051116   -4.476299   -5.518433
     56          1           0        4.147995   -3.152174   -6.150033
     57          1           0        6.294984    2.732146   -4.997199
     58          1           0        6.839388    4.256920   -4.410086
     59          1           0        5.090750    4.034440   -4.674824
     60          1           0        6.141610    6.112375   -3.367406
     61          1           0        5.087190    7.225597   -2.329421
     62          1           0        4.430039    5.814427   -3.201018
     63          1           0        5.749421    3.640752    3.445050
     64          1           0        7.055372    1.266747    4.680596
     65          1           0        7.806029    4.442999    3.926873
     66          1           0        8.455067    3.367164    2.642326
     67          1           0        8.422723    2.830829    4.241786
     68          1           0        5.281213    2.654534    5.818452
     69          1           0        5.043690    0.913944    5.926961
     70          1           0        3.695979    2.983457    4.362520
     71          1           0        2.941309    1.653714    5.305362
     72          1           0        3.659714    1.375860    3.655695
     73          1           0        4.866271   -4.633428    4.242470
     74          1           0        5.583007   -3.131459    4.927631
     75          1           0        6.651508   -4.292803    4.035919
     76          1           0        6.155543   -5.320173   -0.950863
     77          1           0        3.572978   -8.197327   -2.867068
     78          1           0        3.391430   -6.710299   -3.978607
     79          1           0        2.407239   -7.031435   -2.538478
     80         12           0       -5.027986    1.257568    0.444969
     81          6           0       -7.002425   -1.733943    0.267332
     82          6           0       -6.089906    1.967730   -2.717727
     83          6           0       -2.955767    3.659829    0.395301
     84          6           0       -3.265649   -0.226856    3.059604
     85          7           0       -6.372264    0.179292   -0.941581
     86          6           0       -7.113244   -0.916654   -0.876873
     87          6           0       -8.084302   -1.108042   -2.072686
     88          6           0       -7.298596   -0.229569   -3.163473
     89          6           0       -6.564424    0.725898   -2.224990
     90          6           0       -6.263154   -1.023193   -3.942795
     91          6           0       -9.511185   -0.522871   -1.783547
     92          6           0      -10.593568   -0.945814   -2.779186
     93          1           0      -11.949681   -1.162414   -2.282686
     94          7           0       -4.944318    2.857425   -0.726361
     95          6           0       -5.447546    2.980808   -1.972481
     96          6           0       -5.105481    4.342577   -2.411503
     97          6           0       -4.216824    4.956208   -1.387559
     98          6           0       -3.982549    3.815940   -0.524432
     99          6           0       -5.675326    4.964421   -3.653288
    100          6           0       -3.658575    6.337049   -1.220741
    101          8           0       -2.716249    6.586359   -0.388467
    102          6           0       -4.182711    7.369905   -2.126268
    103          7           0       -3.219349    1.579835    1.418274
    104          6           0       -2.545259    2.732515    1.260687
    105          6           0       -1.423255    2.849905    2.264539
    106          6           0       -1.636242    1.641485    3.290189
    107          6           0       -2.845411    0.951826    2.621099
    108          6           0       -0.007930    2.786626    1.690748
    109          6           0       -1.733835    2.006115    4.796899
    110          6           0       -3.002396    2.785804    5.058103
    111          7           0       -5.210836   -0.549112    1.615668
    112          6           0       -4.349865   -0.989535    2.644666
    113          6           0       -4.818395   -2.327072    3.061673
    114          6           0       -5.914176   -2.583877    2.223937
    115          6           0       -6.102012   -1.492728    1.333081
    116          6           0       -4.215648   -3.146622    4.057235
    117          6           0       -6.948150   -3.534515    1.883505
    118          8           0       -7.336435   -4.602067    2.356059
    119          6           0       -7.620869   -3.081545    0.516514
    120          6           0       -9.113643   -3.146171    0.689643
    121          8           0       -9.690762   -2.387182    1.488067
    122          8           0       -9.634415   -3.935997   -0.267093
    123          6           0      -11.113986   -4.022635   -0.143926
    124          1           0       -6.179294    2.170621   -3.785301
    125          1           0       -2.277941    4.510850    0.494211
    126          1           0       -2.829642   -0.713442    3.934703
    127          1           0       -8.182559   -2.129901   -2.419017
    128          1           0       -7.988167    0.317271   -3.801284
    129          1           0       -6.143528   -2.022633   -3.551698
    130          1           0       -5.338392   -0.468452   -3.852679
    131          1           0       -6.511824   -1.023518   -5.007923
    132          1           0       -9.498603    0.559049   -1.968044
    133          1           0       -9.825334   -0.760291   -0.785766
    134          1           0      -10.273232   -1.789438   -3.402590
    135          1           0      -10.748564   -0.130752   -3.490288
    136          1           0       -6.165988    4.216859   -4.288746
    137          1           0       -4.828406    5.316284   -4.252268
    138          1           0       -6.331451    5.810415   -3.437733
    139          1           0       -3.999869    7.073563   -3.156424
    140          1           0       -3.729841    8.306321   -1.794762
    141          1           0       -5.270093    7.424385   -2.002735
    142          1           0       -1.485372    3.785721    2.806281
    143          1           0       -0.804090    0.923227    3.252060
    144          1           0        0.604755    3.673071    1.941529
    145          1           0       -0.079606    2.665036    0.618082
    146          1           0        0.570691    1.912387    1.984197
    147          1           0       -0.904575    2.657594    5.083363
    148          1           0       -1.706383    1.142503    5.452957
    149          1           0       -2.722495    3.809200    4.790861
    150          1           0       -3.286504    2.715214    6.106118
    151          1           0       -3.802972    2.474504    4.377061
    152          1           0       -5.020858   -3.557515    4.651635
    153          1           0       -3.517582   -2.579742    4.669712
    154          1           0       -3.706179   -3.878711    3.424981
    155          1           0       -7.269314   -3.759608   -0.262087
    156          1           0      -11.366867   -5.084908   -0.071065
    157          1           0      -11.518955   -3.466712   -1.010361
    158          1           0      -11.565031   -3.635225    0.762127
 ---------------------------------------------------------------------

 SCF Done:  E(RCAM-B3LYP) =  -4069.81167894     A.U. after   19 cycles

 Excitation energies and oscillator strengths:

 Excited State   1:      Singlet-A      1.6563 eV  748.57 nm  f=0.0036  <S**2>=0.000
     309 -> 315       -0.11198
     310 -> 316        0.12656
     311 -> 313       -0.45382
     312 -> 314        0.51600
 This state for optimization and/or second-order correction.
 Total Energy, E(TD-HF/TD-DFT) =  -4069.75081161
 Copying the excited state density for this state as the 1-particle RhoCI density.

 Excited State   2:      Singlet-A      1.6975 eV  730.40 nm  f=0.7140  <S**2>=0.000
     309 -> 315        0.13533
     310 -> 316        0.11823
     311 -> 313        0.51409
     312 -> 314        0.45214

 Excited State   3:      Singlet-A      2.1834 eV  567.85 nm  f=0.0590  <S**2>=0.000
     309 -> 313       -0.21621
     310 -> 314        0.60626
     312 -> 316       -0.25524

 Excited State   4:      Singlet-A      2.1952 eV  564.79 nm  f=0.1313  <S**2>=0.000
     309 -> 313        0.60303
     310 -> 314        0.21326
     311 -> 315       -0.26400

 Excited State   5:      Singlet-A      2.4847 eV  498.99 nm  f=0.0000  <S**2>=0.000
     312 -> 313        0.70682

 The electronic state is 1-A.
 Alpha  occ. eigenvalues --  -46.87859 -46.87487 -19.26309 -19.26214 -19.19049
 Alpha  occ. eigenvalues --  -19.19020 -19.18802 -19.18576 -19.18204 -19.17872
 Alpha  occ. eigenvalues --  -14.42506 -14.42329 -14.41517 -14.41182 -14.39453
 Alpha  occ. eigenvalues --  -14.39184 -14.38649 -14.38420 -10.39110 -10.38946
 Alpha  occ. eigenvalues --  -10.35432 -10.35258 -10.34425 -10.34049 -10.31695
 Alpha  occ. eigenvalues --  -10.31638 -10.31466 -10.31136 -10.30952 -10.30873
 Alpha  occ. eigenvalues --  -10.30630 -10.30562 -10.30271 -10.30216 -10.30181
 Alpha  occ. eigenvalues --  -10.29992 -10.29970 -10.29704 -10.29678 -10.29302
 Alpha  occ. eigenvalues --  -10.29268 -10.29227 -10.28796 -10.28592 -10.28584
 Alpha  occ. eigenvalues --  -10.28556 -10.28411 -10.28239 -10.28167 -10.28001
 Alpha  occ. eigenvalues --  -10.27837 -10.27825 -10.27783 -10.27623 -10.27606
 Alpha  occ. eigenvalues --  -10.27536 -10.27506 -10.27506 -10.27454 -10.27362
 Alpha  occ. eigenvalues --  -10.27332 -10.27314 -10.27303 -10.27195 -10.27189
 Alpha  occ. eigenvalues --  -10.26880 -10.26755 -10.26575 -10.26357 -10.26350
 Alpha  occ. eigenvalues --  -10.26324 -10.26279 -10.26091 -10.25998 -10.25900
 Alpha  occ. eigenvalues --  -10.25890 -10.25749 -10.25586 -10.25497 -10.25192
 Alpha  occ. eigenvalues --  -10.24956 -10.24878 -10.24844 -10.24690 -10.24601
 Alpha  occ. eigenvalues --  -10.24515  -3.16603  -3.16237  -1.91484  -1.91119
 Alpha  occ. eigenvalues --   -1.91071  -1.90912  -1.90708  -1.90544  -1.16658
 Alpha  occ. eigenvalues --   -1.16507  -1.08661  -1.08479  -1.07198  -1.06831
 Alpha  occ. eigenvalues --   -1.06803  -1.06671  -1.04635  -1.04329  -1.03822
 Alpha  occ. eigenvalues --   -1.03491  -1.03290  -1.02861  -1.02470  -1.01935
 Alpha  occ. eigenvalues --   -0.92021  -0.91815  -0.89616  -0.89324  -0.89240
 Alpha  occ. eigenvalues --   -0.89009  -0.88376  -0.88046  -0.87922  -0.87730
 Alpha  occ. eigenvalues --   -0.87591  -0.87516  -0.87296  -0.86980  -0.85031
 Alpha  occ. eigenvalues --   -0.84854  -0.84043  -0.83708  -0.82990  -0.82800
 Alpha  occ. eigenvalues --   -0.82686  -0.82511  -0.81629  -0.81439  -0.80639
 Alpha  occ. eigenvalues --   -0.80286  -0.78834  -0.78475  -0.77289  -0.76994
 Alpha  occ. eigenvalues --   -0.76989  -0.76746  -0.75972  -0.75687  -0.74973
 Alpha  occ. eigenvalues --   -0.74628  -0.72834  -0.72520  -0.71727  -0.71412
 Alpha  occ. eigenvalues --   -0.70042  -0.69597  -0.68920  -0.68681  -0.67685
 Alpha  occ. eigenvalues --   -0.67437  -0.67255  -0.67067  -0.65341  -0.65123
 Alpha  occ. eigenvalues --   -0.64912  -0.64682  -0.64604  -0.64499  -0.64354
 Alpha  occ. eigenvalues --   -0.64036  -0.62343  -0.62125  -0.60482  -0.60185
 Alpha  occ. eigenvalues --   -0.59854  -0.59643  -0.59046  -0.58821  -0.58558
 Alpha  occ. eigenvalues --   -0.58259  -0.57626  -0.57386  -0.57366  -0.57071
 Alpha  occ. eigenvalues --   -0.56354  -0.56037  -0.56014  -0.55744  -0.55550
 Alpha  occ. eigenvalues --   -0.55418  -0.55304  -0.55075  -0.54595  -0.54328
 Alpha  occ. eigenvalues --   -0.53944  -0.53772  -0.53349  -0.53249  -0.53068
 Alpha  occ. eigenvalues --   -0.52993  -0.52970  -0.52778  -0.52754  -0.52573
 Alpha  occ. eigenvalues --   -0.52546  -0.52252  -0.51969  -0.51655  -0.51650
 Alpha  occ. eigenvalues --   -0.51521  -0.51259  -0.51035  -0.50583  -0.50354
 Alpha  occ. eigenvalues --   -0.50127  -0.49943  -0.49837  -0.49701  -0.49544
 Alpha  occ. eigenvalues --   -0.49346  -0.49253  -0.49141  -0.49049  -0.48943
 Alpha  occ. eigenvalues --   -0.48641  -0.48523  -0.48455  -0.48398  -0.48196
 Alpha  occ. eigenvalues --   -0.48194  -0.47745  -0.47449  -0.47340  -0.46962
 Alpha  occ. eigenvalues --   -0.46872  -0.46601  -0.46544  -0.46421  -0.46412
 Alpha  occ. eigenvalues --   -0.46224  -0.46104  -0.45903  -0.45870  -0.45644
 Alpha  occ. eigenvalues --   -0.45281  -0.45036  -0.44629  -0.44553  -0.44364
 Alpha  occ. eigenvalues --   -0.44314  -0.44223  -0.44133  -0.44046  -0.43978
 Alpha  occ. eigenvalues --   -0.43923  -0.43791  -0.43543  -0.43445  -0.43400
 Alpha  occ. eigenvalues --   -0.43226  -0.43086  -0.42793  -0.42780  -0.42730
 Alpha  occ. eigenvalues --   -0.42714  -0.42393  -0.42104  -0.41812  -0.41757
 Alpha  occ. eigenvalues --   -0.41588  -0.41502  -0.41314  -0.41194  -0.40946
 Alpha  occ. eigenvalues --   -0.40827  -0.40824  -0.40655  -0.40591  -0.40559
 Alpha  occ. eigenvalues --   -0.40327  -0.40276  -0.40104  -0.39592  -0.39266
 Alpha  occ. eigenvalues --   -0.38555  -0.38178  -0.37801  -0.37519  -0.37400
 Alpha  occ. eigenvalues --   -0.37313  -0.37098  -0.37046  -0.36762  -0.36624
 Alpha  occ. eigenvalues --   -0.36252  -0.36054  -0.34345  -0.34081  -0.33804
 Alpha  occ. eigenvalues --   -0.33715  -0.33242  -0.33002  -0.31336  -0.31133
 Alpha  occ. eigenvalues --   -0.31085  -0.30804  -0.30064  -0.29776  -0.29486
 Alpha  occ. eigenvalues --   -0.29370  -0.29166  -0.29025  -0.24139  -0.23860
 Alpha  occ. eigenvalues --   -0.21185  -0.20945
 Alpha virt. eigenvalues --   -0.08821  -0.08620  -0.01804  -0.01518  -0.00079
 Alpha virt. eigenvalues --    0.00121   0.02153   0.02389   0.02798   0.03387
 Alpha virt. eigenvalues --    0.04658   0.04888   0.05066   0.05312   0.06105

 Mulliken charges:
               1
     1  Mg   0.837268
     2  C   -0.002815
     3  C   -0.094020
     4  C   -0.045971
     5  C   -0.064423
     6  N   -0.256717
     7  C   -0.052582
     8  C   -0.013962
     9  C   -0.087045
    10  C    0.046423
    11  C    0.104781
    12  C    0.053492
    13  C   -0.071742
    14  H    0.035984
    15  N   -0.433442
    16  C    0.168720
    17  C   -0.176914
    18  C   -0.003421
    19  C    0.149022
    20  C    0.110225
    21  C    0.013460
    22  O   -0.249007
    23  C    0.062114
    24  N   -0.341027
    25  C    0.041069
    26  C   -0.028381
    27  C   -0.023887
    28  C    0.074171
    29  C    0.076080
    30  C    0.035603
    31  C   -0.007104
    32  N   -0.310383
    33  C    0.079598
    34  C   -0.170288
    35  C    0.008465
    36  C    0.082551
    37  C    0.127383
    38  C    0.046050
    39  O   -0.188110
    40  C   -0.005335
    41  C    0.212983
    42  O   -0.257138
    43  O   -0.304806
    44  C    0.157541
    45  H   -0.017450
    46  H   -0.016489
    47  H   -0.041906
    48  H    0.001069
    49  H   -0.004066
    50  H    0.025613
    51  H    0.016509
    52  H    0.016742
    53  H    0.011074
    54  H    0.044194
    55  H    0.018025
    56  H    0.017754
    57  H    0.005660
    58  H    0.027040
    59  H    0.039981
    60  H    0.036730
    61  H    0.036879
    62  H    0.032407
    63  H    0.016451
    64  H    0.009858
    65  H    0.023595
    66  H    0.012880
    67  H    0.004870
    68  H    0.006926
    69  H    0.004772
    70  H    0.009455
    71  H    0.016526
    72  H    0.029031
    73  H    0.047482
    74  H    0.008620
    75  H    0.046287
    76  H    0.035301
    77  H    0.043250
    78  H    0.046211
    79  H    0.053985
    80  Mg   0.838147
    81  C   -0.016868
    82  C   -0.088191
    83  C   -0.045960
    84  C   -0.062955
    85  N   -0.254525
    86  C   -0.049490
    87  C   -0.015136
    88  C   -0.090543
    89  C    0.045816
    90  C    0.114511
    91  C    0.062613
    92  C   -0.077637
    93  H    0.034526
    94  N   -0.423314
    95  C    0.162752
    96  C   -0.175460
    97  C   -0.008233
    98  C    0.151899
    99  C    0.099768
   100  C    0.014879
   101  O   -0.252983
   102  C    0.061349
   103  N   -0.349810
   104  C    0.037383
   105  C   -0.020478
   106  C   -0.035078
   107  C    0.088997
   108  C    0.072551
   109  C    0.033971
   110  C   -0.007566
   111  N   -0.324364
   112  C    0.078652
   113  C   -0.161888
   114  C    0.002565
   115  C    0.096471
   116  C    0.131445
   117  C    0.042923
   118  O   -0.187588
   119  C    0.000729
   120  C    0.211153
   121  O   -0.251261
   122  O   -0.305554
   123  C    0.152147
   124  H   -0.020582
   125  H   -0.015372
   126  H   -0.039716
   127  H   -0.000695
   128  H   -0.004894
   129  H    0.022986
   130  H    0.014483
   131  H    0.015346
   132  H    0.013783
   133  H    0.037660
   134  H    0.020660
   135  H    0.019272
   136  H    0.008295
   137  H    0.024897
   138  H    0.039312
   139  H    0.037352
   140  H    0.036101
   141  H    0.033797
   142  H    0.014259
   143  H    0.014231
   144  H    0.027893
   145  H    0.010889
   146  H    0.006151
   147  H    0.006159
   148  H    0.003351
   149  H    0.010868
   150  H    0.017327
   151  H    0.030240
   152  H    0.045417
   153  H    0.008345
   154  H    0.050184
   155  H    0.035494
   156  H    0.043798
   157  H    0.049208
   158  H    0.053412
 Sum of Mulliken charges =  -0.00000

 Dipole moment (field-independent basis, Debye):
    X=              2.5676    Y=              3.4984    Z=             -7.6596  Tot=              8.8035
 Quadrupole moment (field-independent basis, Debye-Ang):
   XX=           -488.0443   YY=           -560.8742   ZZ=           -449.8433
   XY=            -15.3914   XZ=             29.1385   YZ=             11.0234

 Normal termination of Gaussian 16 at Sat Sep 11 00:04:43 2021.
