 Gaussian 16, Revision A.03,
 Gaussian 16:  ES64L-G16RevA.03 25-Dec-2016

 -----------------------------------
 #p cam-b3lyp/Def2SVP td=(nstates=5)
 -----------------------------------

 --------------------------------
 TDDFT excited states in gaussian
 --------------------------------
 Symbolic Z-matrix:
 Charge =  0 Multiplicity = 1

                         Standard orientation:
 ---------------------------------------------------------------------
 Center     Atomic      Atomic             Coordinates (Angstroms)
 Number     Number       Type             X           Y           Z
 ---------------------------------------------------------------------
      1         12           0        6.186990    1.069514    0.616702
      2          6           0        6.713027   -2.301253   -0.466546
      3          6           0        7.203508    2.067143   -2.484022
      4          6           0        6.166452    4.053767    1.689286
      5          6           0        6.314873   -0.118735    3.890442
      6          7           0        6.847372   -0.067345   -1.164335
      7          6           0        6.946947   -1.357446   -1.469120
      8          6           0        7.249881   -1.614782   -2.975567
      9          6           0        7.928031   -0.218120   -3.338121
     10          6           0        7.261205    0.655050   -2.289865
     11          6           0        9.435900   -0.195382   -3.109393
     12          6           0        5.947616   -1.853464   -3.811551
     13          6           0        6.167400   -2.430666   -5.212939
     14          1           0        5.191838   -3.370625   -5.744071
     15          7           0        6.147044    2.783489   -0.364901
     16          6           0        6.587625    3.004521   -1.626772
     17          6           0        6.340007    4.436561   -1.899956
     18          6           0        5.894736    5.071940   -0.628688
     19          6           0        6.079126    3.986813    0.300763
     20          6           0        6.481811    5.051587   -3.258405
     21          6           0        5.394011    6.443159   -0.301330
     22          8           0        5.282234    6.856854    0.903219
     23          6           0        5.118001    7.332008   -1.444487
     24          7           0        6.452357    1.898378    2.514121
     25          6           0        6.336063    3.215752    2.714084
     26          6           0        6.284400    3.543519    4.176903
     27          6           0        6.144825    2.146850    4.938210
     28          6           0        6.227443    1.201639    3.714274
     29          6           0        7.491913    4.310005    4.734060
     30          6           0        4.948171    1.992241    5.910081
     31          6           0        3.651695    1.989738    5.131465
     32          7           0        6.285572   -0.875773    1.574399
     33          6           0        6.352579   -1.135452    2.950899
     34          6           0        6.514031   -2.592585    3.108260
     35          6           0        6.546583   -3.080724    1.803459
     36          6           0        6.440246   -1.994447    0.888589
     37          6           0        6.667711   -3.285674    4.341323
     38          6           0        6.671218   -4.264800    0.969021
     39          8           0        6.696642   -5.477676    1.182980
     40          6           0        6.906432   -3.795751   -0.534473
     41          6           0        5.971942   -4.586684   -1.408810
     42          8           0        4.736503   -4.427554   -1.333087
     43          8           0        6.680017   -5.224855   -2.353219
     44          6           0        5.809773   -6.005123   -3.273007
     45          1           0        7.726377    2.504469   -3.336838
     46          1           0        6.051982    5.056958    2.105147
     47          1           0        6.277066   -0.570689    4.883297
     48          1           0        7.949508   -2.428866   -3.165864
     49          1           0        7.657644    0.117916   -4.338966
     50          1           0        9.777127   -1.103123   -2.611906
     51          1           0        9.621882    0.675940   -2.481141
     52          1           0        9.966640   -0.009980   -4.043586
     53          1           0        5.507652   -0.891393   -4.074063
     54          1           0        5.249562   -2.488840   -3.265344
     55          1           0        7.178115   -2.823158   -5.328330
     56          1           0        6.110531   -1.613218   -5.931788
     57          1           0        6.981585    4.377565   -3.953002
     58          1           0        7.166346    5.893497   -3.156869
     59          1           0        5.527082    5.399576   -3.653027
     60          1           0        6.029129    7.459501   -2.029414
     61          1           0        4.683909    8.237974   -1.023014
     62          1           0        4.396502    6.847050   -2.102670
     63          1           0        5.419867    4.164398    4.408240
     64          1           0        7.017467    1.927653    5.553940
     65          1           0        7.228637    5.253243    5.213322
     66          1           0        8.195875    4.469239    3.917744
     67          1           0        8.102895    3.749081    5.440800
     68          1           0        4.907304    2.835738    6.598405
     69          1           0        4.992324    1.080182    6.505438
     70          1           0        3.444730    3.051189    4.999858
     71          1           0        2.862410    1.506676    5.708431
     72          1           0        3.784095    1.558090    4.139176
     73          1           0        6.035665   -4.171114    4.274373
     74          1           0        6.383100   -2.658779    5.186073
     75          1           0        7.736286   -3.499204    4.321125
     76          1           0        7.952009   -3.996870   -0.765648
     77          1           0        6.166248   -7.035102   -3.255569
     78          1           0        5.821553   -5.481743   -4.229218
     79          1           0        4.774423   -6.140332   -2.958191
     80         12           0       -6.973538    0.096165   -0.287507
     81          6           0       -4.494901   -2.483916   -0.007111
     82          6           0       -4.545313    2.075254   -1.637155
     83          6           0       -9.007752    2.526341   -0.133797
     84          6           0       -8.851599   -1.643527    2.077249
     85          7           0       -4.834901   -0.270330   -0.716680
     86          6           0       -4.018062   -1.308929   -0.624735
     87          6           0       -2.636167   -1.102201   -1.300876
     88          6           0       -2.580348    0.501865   -1.248428
     89          6           0       -4.078561    0.798261   -1.235214
     90          6           0       -1.975396    1.041279    0.037033
     91          6           0       -2.608694   -1.629896   -2.778301
     92          6           0       -1.212714   -1.743073   -3.394902
     93          1           0       -0.946731   -2.842649   -4.318295
     94          7           0       -6.964364    1.840476   -1.234007
     95          6           0       -5.892189    2.488050   -1.736371
     96          6           0       -6.411287    3.736923   -2.315189
     97          6           0       -7.853897    3.850803   -1.967882
     98          6           0       -7.996023    2.729432   -1.061006
     99          6           0       -5.579306    4.642000   -3.176614
    100          6           0       -8.924888    4.817570   -2.373526
    101          8           0      -10.051440    4.869008   -1.764388
    102          6           0       -8.581450    5.765307   -3.443739
    103          7           0       -8.581770    0.511780    0.962763
    104          6           0       -9.332339    1.612481    0.780972
    105          6           0      -10.588824    1.560094    1.616983
    106          6           0      -10.644026    0.078808    2.217249
    107          6           0       -9.304936   -0.464976    1.672692
    108          6           0      -10.671849    2.574488    2.757380
    109          6           0      -11.936922   -0.740229    1.952198
    110          6           0      -12.052407   -1.060038    0.479184
    111          7           0       -6.834649   -1.816321    0.708066
    112          6           0       -7.714617   -2.336772    1.682166
    113          6           0       -7.142523   -3.617427    2.145894
    114          6           0       -5.948257   -3.742962    1.420317
    115          6           0       -5.777322   -2.610061    0.579598
    116          6           0       -7.696996   -4.461530    3.148972
    117          6           0       -4.788018   -4.571142    1.182254
    118          8           0       -4.431405   -5.691581    1.544441
    119          6           0       -3.732400   -3.732232    0.340655
    120          6           0       -3.249077   -4.596340   -0.791699
    121          8           0       -4.028301   -4.949671   -1.694235
    122          8           0       -1.907326   -4.681789   -0.739102
    123          6           0       -1.379768   -5.519800   -1.848718
    124          1           0       -3.810790    2.850213   -1.858062
    125          1           0       -9.794563    3.284127   -0.120886
    126          1           0       -9.425795   -2.293258    2.741195
    127          1           0       -1.797546   -1.521369   -0.757942
    128          1           0       -2.118697    0.910502   -2.143553
    129          1           0       -1.790519    0.256641    0.755571
    130          1           0       -2.695327    1.749092    0.426582
    131          1           0       -1.073703    1.619455   -0.184306
    132          1           0       -3.044553   -0.869003   -3.438460
    133          1           0       -3.115438   -2.572148   -2.855817
    134          1           0       -0.421338   -1.676532   -2.638434
    135          1           0       -1.044835   -0.873947   -4.035569
    136          1           0       -4.514319    4.385416   -3.118590
    137          1           0       -5.641282    5.644749   -2.740130
    138          1           0       -5.933247    4.683420   -4.208936
    139          1           0       -7.717806    6.353181   -3.142083
    140          1           0       -9.501629    6.313481   -3.655043
    141          1           0       -8.280974    5.197083   -4.331119
    142          1           0      -11.467434    1.724357    1.005294
    143          1           0      -10.559922    0.080196    3.313947
    144          1           0      -11.566789    3.222519    2.700809
    145          1           0       -9.769303    3.171055    2.749934
    146          1           0      -10.657548    2.146352    3.758225
    147          1           0      -12.819109   -0.149843    2.211716
    148          1           0      -11.988056   -1.662696    2.520912
    149          1           0      -12.498768   -0.151625    0.063690
    150          1           0      -12.696738   -1.923042    0.323922
    151          1           0      -11.062540   -1.179095    0.023522
    152          1           0       -7.616639   -5.475938    2.781560
    153          1           0       -8.729952   -4.196752    3.364975
    154          1           0       -7.031227   -4.233492    3.985645
    155          1           0       -2.923171   -3.452153    1.016137
    156          1           0       -0.776514   -6.310883   -1.392678
    157          1           0       -0.860736   -4.820285   -2.530649
    158          1           0       -2.093407   -6.101166   -2.420717
 ---------------------------------------------------------------------

 SCF Done:  E(RCAM-B3LYP) =  -4069.81173299     A.U. after   19 cycles

 Excitation energies and oscillator strengths:

 Excited State   1:      Singlet-A      1.6638 eV  745.17 nm  f=0.0049  <S**2>=0.000
     309 -> 315       -0.11351
     310 -> 316       -0.12759
     311 -> 313       -0.45428
     312 -> 314        0.51500
 This state for optimization and/or second-order correction.
 Total Energy, E(TD-HF/TD-DFT) =  -4069.75058780
 Copying the excited state density for this state as the 1-particle RhoCI density.

 Excited State   2:      Singlet-A      1.6898 eV  733.70 nm  f=0.7326  <S**2>=0.000
     309 -> 315        0.13362
     310 -> 316       -0.11694
     311 -> 313        0.51368
     312 -> 314        0.45322

 Excited State   3:      Singlet-A      2.1845 eV  567.55 nm  f=0.0885  <S**2>=0.000
     309 -> 313        0.10911
     310 -> 314        0.63357
     312 -> 316        0.26794

 Excited State   4:      Singlet-A      2.1930 eV  565.36 nm  f=0.1108  <S**2>=0.000
     309 -> 313        0.63135
     310 -> 314       -0.10818
     311 -> 315       -0.27460

 Excited State   5:      Singlet-A      2.5776 eV  481.01 nm  f=0.0000  <S**2>=0.000
     312 -> 313        0.70683

 The electronic state is 1-A.
 Alpha  occ. eigenvalues --  -46.88017 -46.87503 -19.26485 -19.25928 -19.19234
 Alpha  occ. eigenvalues --  -19.19041 -19.18826 -19.18593 -19.18345 -19.17838
 Alpha  occ. eigenvalues --  -14.42664 -14.42331 -14.41657 -14.41204 -14.39623
 Alpha  occ. eigenvalues --  -14.39198 -14.38797 -14.38438 -10.39290 -10.38753
 Alpha  occ. eigenvalues --  -10.35676 -10.35273 -10.34567 -10.34006 -10.31877
 Alpha  occ. eigenvalues --  -10.31606 -10.31248 -10.31129 -10.31128 -10.30843
 Alpha  occ. eigenvalues --  -10.30772 -10.30713 -10.30414 -10.30240 -10.30194
 Alpha  occ. eigenvalues --  -10.30115 -10.30006 -10.29834 -10.29741 -10.29467
 Alpha  occ. eigenvalues --  -10.29294 -10.29247 -10.28965 -10.28768 -10.28578
 Alpha  occ. eigenvalues --  -10.28474 -10.28352 -10.28319 -10.28236 -10.27991
 Alpha  occ. eigenvalues --  -10.27935 -10.27934 -10.27842 -10.27796 -10.27708
 Alpha  occ. eigenvalues --  -10.27679 -10.27628 -10.27612 -10.27511 -10.27400
 Alpha  occ. eigenvalues --  -10.27362 -10.27350 -10.27317 -10.27303 -10.27255
 Alpha  occ. eigenvalues --  -10.26954 -10.26784 -10.26659 -10.26445 -10.26412
 Alpha  occ. eigenvalues --  -10.26352 -10.26326 -10.26218 -10.26034 -10.25975
 Alpha  occ. eigenvalues --  -10.25813 -10.25787 -10.25703 -10.25593 -10.25290
 Alpha  occ. eigenvalues --  -10.25028 -10.24993 -10.24877 -10.24706 -10.24630
 Alpha  occ. eigenvalues --  -10.24535  -3.16761  -3.16253  -1.91643  -1.91229
 Alpha  occ. eigenvalues --   -1.91135  -1.91071  -1.90724  -1.90561  -1.16835
 Alpha  occ. eigenvalues --   -1.16243  -1.08801  -1.08430  -1.07443  -1.06852
 Alpha  occ. eigenvalues --   -1.06848  -1.06603  -1.04793  -1.04324  -1.03969
 Alpha  occ. eigenvalues --   -1.03503  -1.03443  -1.02885  -1.02619  -1.01953
 Alpha  occ. eigenvalues --   -0.92174  -0.91793  -0.89713  -0.89398  -0.89348
 Alpha  occ. eigenvalues --   -0.88939  -0.88476  -0.88084  -0.88050  -0.87881
 Alpha  occ. eigenvalues --   -0.87634  -0.87512  -0.87494  -0.86990  -0.85194
 Alpha  occ. eigenvalues --   -0.84798  -0.84122  -0.83732  -0.83188  -0.82858
 Alpha  occ. eigenvalues --   -0.82810  -0.82456  -0.81784  -0.81323  -0.80803
 Alpha  occ. eigenvalues --   -0.80215  -0.79005  -0.78491  -0.77417  -0.77134
 Alpha  occ. eigenvalues --   -0.76970  -0.76670  -0.76121  -0.75605  -0.75084
 Alpha  occ. eigenvalues --   -0.74637  -0.72970  -0.72539  -0.71868  -0.71401
 Alpha  occ. eigenvalues --   -0.70092  -0.69630  -0.69081  -0.68631  -0.67846
 Alpha  occ. eigenvalues --   -0.67444  -0.67426  -0.66998  -0.65496  -0.65056
 Alpha  occ. eigenvalues --   -0.65053  -0.64823  -0.64591  -0.64463  -0.64425
 Alpha  occ. eigenvalues --   -0.64048  -0.62497  -0.61985  -0.60654  -0.60202
 Alpha  occ. eigenvalues --   -0.60011  -0.59599  -0.59187  -0.58816  -0.58703
 Alpha  occ. eigenvalues --   -0.58238  -0.57780  -0.57507  -0.57306  -0.57063
 Alpha  occ. eigenvalues --   -0.56508  -0.56182  -0.56039  -0.55727  -0.55596
 Alpha  occ. eigenvalues --   -0.55527  -0.55250  -0.55049  -0.54716  -0.54252
 Alpha  occ. eigenvalues --   -0.54107  -0.53701  -0.53506  -0.53431  -0.53120
 Alpha  occ. eigenvalues --   -0.53061  -0.52977  -0.52941  -0.52676  -0.52622
 Alpha  occ. eigenvalues --   -0.52514  -0.52269  -0.52079  -0.51832  -0.51722
 Alpha  occ. eigenvalues --   -0.51453  -0.51388  -0.50999  -0.50802  -0.50359
 Alpha  occ. eigenvalues --   -0.50223  -0.50132  -0.49823  -0.49730  -0.49725
 Alpha  occ. eigenvalues --   -0.49414  -0.49317  -0.49290  -0.49010  -0.48894
 Alpha  occ. eigenvalues --   -0.48785  -0.48668  -0.48637  -0.48337  -0.48234
 Alpha  occ. eigenvalues --   -0.48163  -0.47900  -0.47498  -0.47407  -0.46994
 Alpha  occ. eigenvalues --   -0.46953  -0.46767  -0.46559  -0.46539  -0.46351
 Alpha  occ. eigenvalues --   -0.46350  -0.46109  -0.46002  -0.45892  -0.45584
 Alpha  occ. eigenvalues --   -0.45388  -0.45060  -0.44769  -0.44715  -0.44345
 Alpha  occ. eigenvalues --   -0.44305  -0.44292  -0.44291  -0.44217  -0.43945
 Alpha  occ. eigenvalues --   -0.43913  -0.43747  -0.43689  -0.43589  -0.43295
 Alpha  occ. eigenvalues --   -0.43222  -0.43176  -0.42898  -0.42847  -0.42733
 Alpha  occ. eigenvalues --   -0.42568  -0.42417  -0.42204  -0.41899  -0.41794
 Alpha  occ. eigenvalues --   -0.41742  -0.41476  -0.41338  -0.41261  -0.41078
 Alpha  occ. eigenvalues --   -0.41047  -0.40812  -0.40760  -0.40569  -0.40519
 Alpha  occ. eigenvalues --   -0.40465  -0.40331  -0.39990  -0.39628  -0.39302
 Alpha  occ. eigenvalues --   -0.38662  -0.38203  -0.37969  -0.37516  -0.37480
 Alpha  occ. eigenvalues --   -0.37436  -0.37111  -0.36999  -0.36913  -0.36471
 Alpha  occ. eigenvalues --   -0.36393  -0.35995  -0.34492  -0.34086  -0.33985
 Alpha  occ. eigenvalues --   -0.33565  -0.33394  -0.33005  -0.31569  -0.31243
 Alpha  occ. eigenvalues --   -0.31150  -0.30804  -0.30204  -0.29733  -0.29664
 Alpha  occ. eigenvalues --   -0.29519  -0.29179  -0.29047  -0.24290  -0.23871
 Alpha  occ. eigenvalues --   -0.21333  -0.20960
 Alpha virt. eigenvalues --   -0.08982  -0.08634  -0.01961  -0.01530  -0.00274
 Alpha virt. eigenvalues --    0.00123   0.02010   0.02387   0.02796   0.03370
 Alpha virt. eigenvalues --    0.04506   0.04891   0.04915   0.05486   0.05956

 Mulliken charges:
               1
     1  Mg   0.836817
     2  C   -0.003471
     3  C   -0.094484
     4  C   -0.045976
     5  C   -0.063679
     6  N   -0.256825
     7  C   -0.052613
     8  C   -0.013841
     9  C   -0.086860
    10  C    0.045843
    11  C    0.104706
    12  C    0.053562
    13  C   -0.071803
    14  H    0.035831
    15  N   -0.433162
    16  C    0.167707
    17  C   -0.177612
    18  C   -0.004445
    19  C    0.148155
    20  C    0.110161
    21  C    0.011552
    22  O   -0.249456
    23  C    0.062873
    24  N   -0.341080
    25  C    0.041107
    26  C   -0.028212
    27  C   -0.024149
    28  C    0.074783
    29  C    0.076038
    30  C    0.035049
    31  C   -0.004545
    32  N   -0.310664
    33  C    0.080417
    34  C   -0.168983
    35  C    0.008845
    36  C    0.082809
    37  C    0.127118
    38  C    0.046504
    39  O   -0.187269
    40  C   -0.005428
    41  C    0.213331
    42  O   -0.258062
    43  O   -0.304453
    44  C    0.157820
    45  H   -0.017364
    46  H   -0.016676
    47  H   -0.040723
    48  H    0.001438
    49  H   -0.004160
    50  H    0.025771
    51  H    0.016648
    52  H    0.017003
    53  H    0.010215
    54  H    0.043294
    55  H    0.018629
    56  H    0.017988
    57  H    0.006025
    58  H    0.027265
    59  H    0.038438
    60  H    0.037908
    61  H    0.035699
    62  H    0.030059
    63  H    0.016417
    64  H    0.010018
    65  H    0.023462
    66  H    0.012664
    67  H    0.005185
    68  H    0.006852
    69  H    0.005456
    70  H    0.008482
    71  H    0.018790
    72  H    0.027965
    73  H    0.048681
    74  H    0.009591
    75  H    0.046438
    76  H    0.035671
    77  H    0.043860
    78  H    0.046369
    79  H    0.052663
    80  Mg   0.837377
    81  C   -0.016840
    82  C   -0.087898
    83  C   -0.045801
    84  C   -0.065321
    85  N   -0.254528
    86  C   -0.049771
    87  C   -0.015328
    88  C   -0.090472
    89  C    0.045767
    90  C    0.114581
    91  C    0.062717
    92  C   -0.077984
    93  H    0.034109
    94  N   -0.423419
    95  C    0.162752
    96  C   -0.174877
    97  C   -0.008160
    98  C    0.152031
    99  C    0.099561
   100  C    0.015330
   101  O   -0.253560
   102  C    0.061307
   103  N   -0.350128
   104  C    0.037404
   105  C   -0.019736
   106  C   -0.034787
   107  C    0.089073
   108  C    0.073793
   109  C    0.034818
   110  C   -0.007611
   111  N   -0.324169
   112  C    0.078644
   113  C   -0.163392
   114  C    0.002572
   115  C    0.096049
   116  C    0.131540
   117  C    0.042191
   118  O   -0.186778
   119  C    0.001383
   120  C    0.211059
   121  O   -0.252417
   122  O   -0.303854
   123  C    0.152756
   124  H   -0.020111
   125  H   -0.016010
   126  H   -0.040753
   127  H    0.002361
   128  H   -0.005113
   129  H    0.023425
   130  H    0.013934
   131  H    0.015868
   132  H    0.012561
   133  H    0.037625
   134  H    0.025316
   135  H    0.017212
   136  H    0.008234
   137  H    0.025767
   138  H    0.039064
   139  H    0.038037
   140  H    0.035967
   141  H    0.033587
   142  H    0.014104
   143  H    0.012209
   144  H    0.024784
   145  H    0.011632
   146  H    0.005414
   147  H    0.005955
   148  H    0.003544
   149  H    0.010758
   150  H    0.017698
   151  H    0.030302
   152  H    0.046086
   153  H    0.008147
   154  H    0.046988
   155  H    0.036682
   156  H    0.046731
   157  H    0.050913
   158  H    0.051117
 Sum of Mulliken charges =  -0.00000

 Dipole moment (field-independent basis, Debye):
    X=              4.6215    Y=              6.1792    Z=             -3.6579  Tot=              8.5393
 Quadrupole moment (field-independent basis, Debye-Ang):
   XX=           -497.5285   YY=           -564.0484   ZZ=           -460.5010
   XY=             11.6937   XZ=            -38.9616   YZ=             -4.3385

 Normal termination of Gaussian 16 at Sat Sep 11 12:44:08 2021.
