 Gaussian 16, Revision A.03,
 Gaussian 16:  ES64L-G16RevA.03 25-Dec-2016

 -----------------------------------
 #p cam-b3lyp/Def2SVP td=(nstates=5)
 -----------------------------------

 --------------------------------
 TDDFT excited states in gaussian
 --------------------------------
 Symbolic Z-matrix:
 Charge =  0 Multiplicity = 1

                         Standard orientation:
 ---------------------------------------------------------------------
 Center     Atomic      Atomic             Coordinates (Angstroms)
 Number     Number       Type             X           Y           Z
 ---------------------------------------------------------------------
      1         12           0       16.089982    0.540340    0.273243
      2          6           0       16.272775   -2.850077   -0.859839
      3          6           0       16.974126    1.486495   -2.883677
      4          6           0       16.378483    3.505604    1.359797
      5          6           0       16.340402   -0.688131    3.524983
      6          7           0       16.537799   -0.626688   -1.553818
      7          6           0       16.513859   -1.917399   -1.871093
      8          6           0       16.694441   -2.182277   -3.395758
      9          6           0       17.455991   -0.839947   -3.795992
     10          6           0       16.932018    0.072328   -2.700944
     11          6           0       18.972752   -0.938907   -3.668918
     12          6           0       15.324581   -2.308547   -4.143603
     13          6           0       15.403990   -2.886785   -5.559474
     14          1           0       14.323527   -3.741093   -6.028627
     15          7           0       16.121384    2.262175   -0.694820
     16          6           0       16.493223    2.460722   -1.982298
     17          6           0       16.342765    3.910611   -2.231025
     18          6           0       16.035060    4.566020   -0.929545
     19          6           0       16.193913    3.460145   -0.020049
     20          6           0       16.442379    4.526526   -3.592816
     21          6           0       15.667974    5.969084   -0.562404
     22          8           0       15.669878    6.377830    0.648999
     23          6           0       15.388151    6.888765   -1.679958
     24          7           0       16.546144    1.325931    2.152710
     25          6           0       16.548652    2.646235    2.366661
     26          6           0       16.620689    2.961899    3.831279
     27          6           0       16.421338    1.572838    4.593199
     28          6           0       16.346831    0.636776    3.361734
     29          6           0       17.919772    3.624672    4.309949
     30          6           0       15.283497    1.503303    5.642437
     31          6           0       13.942014    1.611408    4.952629
     32          7           0       16.096896   -1.416461    1.212353
     33          6           0       16.234455   -1.694863    2.579922
     34          6           0       16.289510   -3.161752    2.718748
     35          6           0       16.196213   -3.637401    1.412265
     36          6           0       16.116052   -2.536703    0.512081
     37          6           0       16.469228   -3.877552    3.935205
     38          6           0       16.170396   -4.818923    0.565391
     39          8           0       16.113367   -6.032160    0.771051
     40          6           0       16.341645   -4.354406   -0.948124
     41          6           0       15.291062   -5.059858   -1.761710
     42          8           0       14.079996   -4.804308   -1.602401
     43          8           0       15.881678   -5.742220   -2.754734
     44          6           0       14.892818   -6.441652   -3.617928
     45          1           0       17.472245    1.889903   -3.767465
     46          1           0       16.372159    4.510347    1.787451
     47          1           0       16.332880   -1.145933    4.515848
     48          1           0       17.312826   -3.047131   -3.636700
     49          1           0       17.147222   -0.473235   -4.774719
     50          1           0       19.272975   -1.875893   -3.200043
     51          1           0       19.268893   -0.091574   -3.050193
     52          1           0       19.453230   -0.786400   -4.635696
     53          1           0       14.946112   -1.312027   -4.371133
     54          1           0       14.616056   -2.892345   -3.554962
     55          1           0       16.370327   -3.356769   -5.744446
     56          1           0       15.364672   -2.060001   -6.268757
     57          1           0       16.839585    3.822315   -4.322789
     58          1           0       17.196996    5.310562   -3.533237
     59          1           0       15.494247    4.953001   -3.920684
     60          1           0       16.265594    6.949847   -2.324095
     61          1           0       15.056565    7.821814   -1.225733
     62          1           0       14.588149    6.469230   -2.290643
     63          1           0       15.825639    3.646781    4.123268
     64          1           0       17.312789    1.278947    5.147831
     65          1           0       17.764893    4.580766    4.810551
     66          1           0       18.578299    3.736174    3.449019
     67          1           0       18.529828    3.009897    4.971236
     68          1           0       15.355796    2.340218    6.336189
     69          1           0       15.294419    0.584495    6.228886
     70          1           0       13.811906    2.687207    4.840563
     71          1           0       13.156922    1.186336    5.578853
     72          1           0       13.973316    1.180936    3.951530
     73          1           0       15.765652   -4.709489    3.906388
     74          1           0       16.292263   -3.238890    4.800304
     75          1           0       17.513695   -4.174707    3.842225
     76          1           0       17.350188   -4.635186   -1.249994
     77          1           0       15.166537   -7.496723   -3.629652
     78          1           0       14.882577   -5.910971   -4.570125
     79          1           0       13.873239   -6.497804   -3.234987
     80         12           0      -15.669588    0.739882    0.242542
     81          6           0      -17.765505   -2.165285    0.027540
     82          6           0      -17.205304    1.873195   -2.584431
     83          6           0      -13.538254    3.088377    0.145600
     84          6           0      -13.564396   -1.103568    2.319936
     85          7           0      -17.265058   -0.124169   -1.022430
     86          6           0      -18.029038   -1.204931   -0.971315
     87          6           0      -19.189644   -1.221507   -2.001985
     88          6           0      -18.558275   -0.224526   -3.091140
     89          6           0      -17.642475    0.587365   -2.177462
     90          6           0      -17.697216   -0.930339   -4.125422
     91          6           0      -20.525174   -0.651493   -1.407475
     92          6           0      -21.772091   -0.921389   -2.252526
     93          1           0      -23.036277   -1.174435   -1.566751
     94          7           0      -15.714291    2.475879   -0.718113
     95          6           0      -16.409301    2.768955   -1.837205
     96          6           0      -16.089056    4.169272   -2.154541
     97          6           0      -15.020781    4.628255   -1.225658
     98          6           0      -14.694574    3.381686   -0.562530
     99          6           0      -16.828908    4.957239   -3.196253
    100          6           0      -14.387518    5.965018   -0.984314
    101          8           0      -13.312396    6.086574   -0.297169
    102          6           0      -15.010702    7.116119   -1.653721
    103          7           0      -13.714533    0.898985    0.931596
    104          6           0      -13.029380    2.049284    0.807893
    105          6           0      -11.754398    2.014425    1.616353
    106          6           0      -11.845218    0.687811    2.504855
    107          6           0      -13.174400    0.113677    1.967246
    108          6           0      -10.455791    1.998855    0.810269
    109          6           0      -11.680102    0.856346    4.040108
    110          6           0      -12.856309    1.619795    4.604966
    111          7           0      -15.731082   -1.199192    1.193470
    112          6           0      -14.731780   -1.785336    2.000887
    113          6           0      -15.179298   -3.156371    2.320890
    114          6           0      -16.406870   -3.281728    1.653167
    115          6           0      -16.693811   -2.081157    0.949035
    116          6           0      -14.455291   -4.109150    3.091705
    117          6           0      -17.520107   -4.160430    1.375199
    118          8           0      -17.868555   -5.272522    1.769654
    119          6           0      -18.388670   -3.521746    0.207266
    120          6           0      -19.834346   -3.579692    0.618564
    121          8           0      -20.241930   -2.919433    1.590448
    122          8           0      -20.536118   -4.229072   -0.328108
    123          6           0      -21.977850   -4.302636    0.029369
    124          1           0      -17.459960    2.214108   -3.588334
    125          1           0      -12.819606    3.906368    0.234614
    126          1           0      -13.011029   -1.707469    3.042275
    127          1           0      -19.384397   -2.187932   -2.451291
    128          1           0      -19.320321    0.413277   -3.531449
    129          1           0      -17.555602   -1.974063   -3.887219
    130          1           0      -16.748560   -0.409666   -4.123179
    131          1           0      -18.116674   -0.788174   -5.125514
    132          1           0      -20.499336    0.444761   -1.455498
    133          1           0      -20.681113   -1.009898   -0.408548
    134          1           0      -21.592401   -1.683276   -3.020759
    135          1           0      -22.008375   -0.018398   -2.820681
    136          1           0      -17.446708    4.307638   -3.828496
    137          1           0      -16.077950    5.367364   -3.880155
    138          1           0      -17.406240    5.780634   -2.770359
    139          1           0      -15.011035    6.952045   -2.728686
    140          1           0      -14.472290    7.992992   -1.288929
    141          1           0      -16.060103    7.174931   -1.344009
    142          1           0      -11.689221    2.873348    2.272936
    143          1           0      -11.060175   -0.035248    2.238896
    144          1           0       -9.775072    2.833573    1.063144
    145          1           0      -10.706919    2.018385   -0.241916
    146          1           0       -9.872682    1.083123    0.891662
    147          1           0      -10.789542    1.449348    4.262391
    148          1           0      -11.580490   -0.085219    4.569755
    149          1           0      -12.582880    2.663618    4.423974
    150          1           0      -12.967673    1.419702    5.668744
    151          1           0      -13.769446    1.414520    4.034280
    152          1           0      -15.168262   -4.577999    3.756798
    153          1           0      -13.644109   -3.639660    3.644280
    154          1           0      -14.086124   -4.762927    2.296998
    155          1           0      -18.196926   -4.100010   -0.697396
    156          1           0      -22.258031   -5.360391    0.010898
    157          1           0      -22.496406   -3.631712   -0.681059
    158          1           0      -22.258524   -4.027108    1.039207
 ---------------------------------------------------------------------

 SCF Done:  E(RCAM-B3LYP) =  -4069.81177040     A.U. after   19 cycles

 Excitation energies and oscillator strengths:

 Excited State   1:      Singlet-A      1.6753 eV  740.08 nm  f=0.2131  <S**2>=0.000
     310 -> 316        0.16866
     311 -> 313        0.66674
     312 -> 314       -0.16163
     310 <- 316        0.10168
 This state for optimization and/or second-order correction.
 Total Energy, E(TD-HF/TD-DFT) =  -4069.75020488
 Copying the excited state density for this state as the 1-particle RhoCI density.

 Excited State   2:      Singlet-A      1.6801 eV  737.95 nm  f=0.5643  <S**2>=0.000
     309 -> 315        0.17068
     311 -> 313        0.16158
     312 -> 314        0.66638
     309 <- 315        0.10219

 Excited State   3:      Singlet-A      2.1861 eV  567.16 nm  f=0.1006  <S**2>=0.000
     310 -> 313        0.64236
     311 -> 316       -0.27306

 Excited State   4:      Singlet-A      2.1925 eV  565.48 nm  f=0.1005  <S**2>=0.000
     309 -> 314        0.64058
     312 -> 315       -0.27826

 Excited State   5:      Singlet-A      3.0631 eV  404.76 nm  f=0.0000  <S**2>=0.000
     312 -> 313        0.70710

 The electronic state is 1-A.
 Alpha  occ. eigenvalues --  -46.87781 -46.87660 -19.26350 -19.26269 -19.19161
 Alpha  occ. eigenvalues --  -19.19005 -19.18799 -19.18714 -19.18154 -19.18051
 Alpha  occ. eigenvalues --  -14.42497 -14.42434 -14.41434 -14.41358 -14.39387
 Alpha  occ. eigenvalues --  -14.39352 -14.38600 -14.38571 -10.39091 -10.39064
 Alpha  occ. eigenvalues --  -10.35432 -10.35392 -10.34374 -10.34228 -10.31757
 Alpha  occ. eigenvalues --  -10.31664 -10.31390 -10.31309 -10.31024 -10.30893
 Alpha  occ. eigenvalues --  -10.30554 -10.30492 -10.30397 -10.30360 -10.30191
 Alpha  occ. eigenvalues --  -10.30139 -10.29905 -10.29893 -10.29615 -10.29436
 Alpha  occ. eigenvalues --  -10.29400 -10.29239 -10.28734 -10.28721 -10.28657
 Alpha  occ. eigenvalues --  -10.28523 -10.28405 -10.28349 -10.28142 -10.28102
 Alpha  occ. eigenvalues --  -10.28001 -10.27777 -10.27712 -10.27669 -10.27569
 Alpha  occ. eigenvalues --  -10.27513 -10.27485 -10.27483 -10.27469 -10.27466
 Alpha  occ. eigenvalues --  -10.27465 -10.27434 -10.27388 -10.27371 -10.27143
 Alpha  occ. eigenvalues --  -10.27051 -10.26694 -10.26689 -10.26417 -10.26394
 Alpha  occ. eigenvalues --  -10.26220 -10.26168 -10.26131 -10.26028 -10.26004
 Alpha  occ. eigenvalues --  -10.25933 -10.25847 -10.25828 -10.25420 -10.25391
 Alpha  occ. eigenvalues --  -10.24872 -10.24817 -10.24772 -10.24725 -10.24689
 Alpha  occ. eigenvalues --  -10.24671  -3.16524  -3.16410  -1.91406  -1.91292
 Alpha  occ. eigenvalues --   -1.90992  -1.90881  -1.90834  -1.90718  -1.16644
 Alpha  occ. eigenvalues --   -1.16618  -1.08657  -1.08612  -1.07200  -1.06967
 Alpha  occ. eigenvalues --   -1.06946  -1.06627  -1.04566  -1.04495  -1.03745
 Alpha  occ. eigenvalues --   -1.03663  -1.03218  -1.03038  -1.02396  -1.02111
 Alpha  occ. eigenvalues --   -0.91987  -0.91957  -0.89504  -0.89492  -0.89173
 Alpha  occ. eigenvalues --   -0.89152  -0.88271  -0.88217  -0.87855  -0.87792
 Alpha  occ. eigenvalues --   -0.87684  -0.87658  -0.87258  -0.87121  -0.85000
 Alpha  occ. eigenvalues --   -0.84967  -0.83921  -0.83873  -0.82951  -0.82931
 Alpha  occ. eigenvalues --   -0.82653  -0.82633  -0.81596  -0.81570  -0.80581
 Alpha  occ. eigenvalues --   -0.80443  -0.78782  -0.78635  -0.77203  -0.77144
 Alpha  occ. eigenvalues --   -0.76919  -0.76898  -0.75908  -0.75839  -0.74883
 Alpha  occ. eigenvalues --   -0.74800  -0.72759  -0.72698  -0.71657  -0.71580
 Alpha  occ. eigenvalues --   -0.69891  -0.69753  -0.68858  -0.68828  -0.67626
 Alpha  occ. eigenvalues --   -0.67601  -0.67204  -0.67201  -0.65272  -0.65271
 Alpha  occ. eigenvalues --   -0.64838  -0.64770  -0.64654  -0.64605  -0.64254
 Alpha  occ. eigenvalues --   -0.64201  -0.62282  -0.62278  -0.60426  -0.60339
 Alpha  occ. eigenvalues --   -0.59797  -0.59789  -0.58992  -0.58972  -0.58488
 Alpha  occ. eigenvalues --   -0.58425  -0.57569  -0.57554  -0.57293  -0.57235
 Alpha  occ. eigenvalues --   -0.56294  -0.56204  -0.55963  -0.55887  -0.55505
 Alpha  occ. eigenvalues --   -0.55452  -0.55324  -0.55245  -0.54508  -0.54486
 Alpha  occ. eigenvalues --   -0.53914  -0.53880  -0.53283  -0.53227  -0.53206
 Alpha  occ. eigenvalues --   -0.53142  -0.52902  -0.52899  -0.52740  -0.52669
 Alpha  occ. eigenvalues --   -0.52422  -0.52397  -0.51899  -0.51883  -0.51660
 Alpha  occ. eigenvalues --   -0.51601  -0.51200  -0.51180  -0.50557  -0.50476
 Alpha  occ. eigenvalues --   -0.50016  -0.49980  -0.49903  -0.49865  -0.49499
 Alpha  occ. eigenvalues --   -0.49488  -0.49203  -0.49199  -0.49105  -0.49081
 Alpha  occ. eigenvalues --   -0.48578  -0.48559  -0.48446  -0.48430  -0.48373
 Alpha  occ. eigenvalues --   -0.48339  -0.47679  -0.47594  -0.47281  -0.47118
 Alpha  occ. eigenvalues --   -0.46782  -0.46708  -0.46555  -0.46540  -0.46344
 Alpha  occ. eigenvalues --   -0.46269  -0.46147  -0.46084  -0.45821  -0.45807
 Alpha  occ. eigenvalues --   -0.45206  -0.45186  -0.44562  -0.44514  -0.44491
 Alpha  occ. eigenvalues --   -0.44476  -0.44129  -0.44127  -0.44076  -0.44073
 Alpha  occ. eigenvalues --   -0.44004  -0.43940  -0.43553  -0.43479  -0.43385
 Alpha  occ. eigenvalues --   -0.43370  -0.43012  -0.42930  -0.42900  -0.42684
 Alpha  occ. eigenvalues --   -0.42639  -0.42551  -0.41994  -0.41962  -0.41689
 Alpha  occ. eigenvalues --   -0.41669  -0.41518  -0.41459  -0.41126  -0.40989
 Alpha  occ. eigenvalues --   -0.40854  -0.40807  -0.40723  -0.40698  -0.40556
 Alpha  occ. eigenvalues --   -0.40491  -0.40228  -0.40219  -0.39425  -0.39421
 Alpha  occ. eigenvalues --   -0.38453  -0.38348  -0.37733  -0.37655  -0.37305
 Alpha  occ. eigenvalues --   -0.37264  -0.37248  -0.37200  -0.36771  -0.36698
 Alpha  occ. eigenvalues --   -0.36216  -0.36177  -0.34271  -0.34253  -0.33862
 Alpha  occ. eigenvalues --   -0.33755  -0.33175  -0.33171  -0.31329  -0.31273
 Alpha  occ. eigenvalues --   -0.31020  -0.30972  -0.30014  -0.29955  -0.29434
 Alpha  occ. eigenvalues --   -0.29327  -0.29306  -0.29211  -0.24065  -0.24036
 Alpha  occ. eigenvalues --   -0.21117  -0.21112
 Alpha virt. eigenvalues --   -0.08792  -0.08759  -0.01734  -0.01683  -0.00042
 Alpha virt. eigenvalues --   -0.00029   0.02208   0.02216   0.03139   0.03227
 Alpha virt. eigenvalues --    0.04729   0.04734   0.05113   0.05164   0.06181

 Mulliken charges:
               1
     1  Mg   0.838808
     2  C   -0.002969
     3  C   -0.094108
     4  C   -0.045879
     5  C   -0.063950
     6  N   -0.256780
     7  C   -0.052475
     8  C   -0.014015
     9  C   -0.087001
    10  C    0.046315
    11  C    0.104815
    12  C    0.053469
    13  C   -0.071805
    14  H    0.036135
    15  N   -0.433150
    16  C    0.168418
    17  C   -0.177159
    18  C   -0.004004
    19  C    0.148730
    20  C    0.110181
    21  C    0.012293
    22  O   -0.249618
    23  C    0.062469
    24  N   -0.341154
    25  C    0.041245
    26  C   -0.028167
    27  C   -0.023984
    28  C    0.074826
    29  C    0.076178
    30  C    0.035134
    31  C   -0.004505
    32  N   -0.310476
    33  C    0.080417
    34  C   -0.169716
    35  C    0.008357
    36  C    0.082971
    37  C    0.127313
    38  C    0.046111
    39  O   -0.188445
    40  C   -0.005320
    41  C    0.212861
    42  O   -0.257094
    43  O   -0.304798
    44  C    0.157693
    45  H   -0.017610
    46  H   -0.016833
    47  H   -0.041494
    48  H    0.000930
    49  H   -0.004032
    50  H    0.025469
    51  H    0.016441
    52  H    0.016649
    53  H    0.011214
    54  H    0.044129
    55  H    0.017860
    56  H    0.017950
    57  H    0.005869
    58  H    0.026817
    59  H    0.039569
    60  H    0.037336
    61  H    0.035665
    62  H    0.031520
    63  H    0.016562
    64  H    0.009454
    65  H    0.023214
    66  H    0.012537
    67  H    0.004745
    68  H    0.006367
    69  H    0.004727
    70  H    0.008790
    71  H    0.018147
    72  H    0.028983
    73  H    0.047570
    74  H    0.009112
    75  H    0.045999
    76  H    0.035142
    77  H    0.042941
    78  H    0.046400
    79  H    0.053693
    80  Mg   0.837822
    81  C   -0.016838
    82  C   -0.087808
    83  C   -0.045488
    84  C   -0.064854
    85  N   -0.254566
    86  C   -0.049850
    87  C   -0.015112
    88  C   -0.090492
    89  C    0.045775
    90  C    0.114368
    91  C    0.062527
    92  C   -0.077902
    93  H    0.034906
    94  N   -0.423497
    95  C    0.162916
    96  C   -0.174645
    97  C   -0.007810
    98  C    0.152107
    99  C    0.099374
   100  C    0.015567
   101  O   -0.253159
   102  C    0.061200
   103  N   -0.350027
   104  C    0.037495
   105  C   -0.019836
   106  C   -0.034840
   107  C    0.088906
   108  C    0.073637
   109  C    0.034716
   110  C   -0.007687
   111  N   -0.324108
   112  C    0.078455
   113  C   -0.163106
   114  C    0.002252
   115  C    0.096208
   116  C    0.131486
   117  C    0.042393
   118  O   -0.187862
   119  C    0.000920
   120  C    0.211273
   121  O   -0.251025
   122  O   -0.305637
   123  C    0.152030
   124  H   -0.019682
   125  H   -0.015543
   126  H   -0.040377
   127  H   -0.000649
   128  H   -0.004332
   129  H    0.022466
   130  H    0.014428
   131  H    0.016263
   132  H    0.013922
   133  H    0.037687
   134  H    0.020781
   135  H    0.019588
   136  H    0.008745
   137  H    0.026123
   138  H    0.039791
   139  H    0.038234
   140  H    0.036398
   141  H    0.033895
   142  H    0.014418
   143  H    0.012503
   144  H    0.025188
   145  H    0.011606
   146  H    0.005763
   147  H    0.006341
   148  H    0.003709
   149  H    0.010934
   150  H    0.017969
   151  H    0.030053
   152  H    0.046026
   153  H    0.008577
   154  H    0.046983
   155  H    0.035021
   156  H    0.043915
   157  H    0.049481
   158  H    0.053588
 Sum of Mulliken charges =  -0.00000

 Dipole moment (field-independent basis, Debye):
    X=              1.7306    Y=              4.7544    Z=             -7.0867  Tot=              8.7075
 Quadrupole moment (field-independent basis, Debye-Ang):
   XX=           -422.5852   YY=           -562.0428   ZZ=           -456.1757
   XY=            -11.0667   XZ=             35.5246   YZ=             -0.3543

 Normal termination of Gaussian 16 at Sun Sep 12 21:10:38 2021.
