 Gaussian 16, Revision A.03,
 Gaussian 16:  ES64L-G16RevA.03 25-Dec-2016

 -----------------------------------
 #p cam-b3lyp/Def2SVP td=(nstates=5)
 -----------------------------------

 --------------------------------
 TDDFT excited states in gaussian
 --------------------------------
 Symbolic Z-matrix:
 Charge =  0 Multiplicity = 1

                         Standard orientation:
 ---------------------------------------------------------------------
 Center     Atomic      Atomic             Coordinates (Angstroms)
 Number     Number       Type             X           Y           Z
 ---------------------------------------------------------------------
      1         12           0       -6.527905    0.691898    0.291421
      2          6           0       -6.821096   -2.443256   -1.410655
      3          6           0       -7.240320   -0.978978    3.179967
      4          6           0       -6.722844    3.504860    1.742581
      5          6           0       -6.964739    2.242614   -2.798906
      6          7           0       -6.955419   -1.440615    0.704050
      7          6           0       -6.978253   -2.550647   -0.027031
      8          6           0       -7.109600   -3.848694    0.824553
      9          6           0       -7.791872   -3.228470    2.125254
     10          6           0       -7.270743   -1.806192    2.018148
     11          6           0       -9.315453   -3.199620    2.059139
     12          6           0       -5.718143   -4.485690    1.155937
     13          6           0       -5.767297   -5.917110    1.698131
     14          1           0       -4.709394   -6.843956    1.325109
     15          7           0       -6.441157    1.152156    2.210662
     16          6           0       -6.751567    0.343431    3.252245
     17          6           0       -6.524648    1.146149    4.473242
     18          6           0       -6.239486    2.545677    4.051226
     19          6           0       -6.485419    2.461476    2.634256
     20          6           0       -6.541141    0.566068    5.854178
     21          6           0       -5.823180    3.767902    4.806864
     22          8           0       -5.854799    4.934299    4.284282
     23          6           0       -5.456740    3.572708    6.221312
     24          7           0       -7.022351    2.605330   -0.380844
     25          6           0       -6.972621    3.659644    0.440698
     26          6           0       -7.088677    4.948646   -0.317552
     27          6           0       -6.984202    4.563037   -1.863561
     28          6           0       -6.903596    3.023383   -1.717828
     29          6           0       -8.373994    5.752710   -0.077864
     30          6           0       -5.893730    5.283230   -2.695794
     31          6           0       -4.522128    4.848158   -2.230479
     32          7           0       -6.662558    0.050778   -1.777849
     33          6           0       -6.867483    0.864948   -2.901150
     34          6           0       -6.995555   -0.030120   -4.065847
     35          6           0       -6.871985   -1.311907   -3.533308
     36          6           0       -6.705209   -1.224243   -2.121645
     37          6           0       -7.256650    0.376001   -5.404253
     38          6           0       -6.866694   -2.736198   -3.825240
     39          8           0       -6.873888   -3.410056   -4.856431
     40          6           0       -6.955581   -3.530333   -2.447824
     41          6           0       -5.906844   -4.608594   -2.476354
     42          8           0       -4.692652   -4.320365   -2.471260
     43          8           0       -6.487992   -5.799644   -2.266092
     44          6           0       -5.498598   -6.910084   -2.252791
     45          1           0       -7.683516   -1.352110    4.105327
     46          1           0       -6.687397    4.501435    2.187576
     47          1           0       -7.018021    2.658256   -3.806803
     48          1           0       -7.757007   -4.612063    0.392631
     49          1           0       -7.427570   -3.697726    3.038931
     50          1           0       -9.677058   -3.491964    1.073392
     51          1           0       -9.596812   -2.169302    2.277714
     52          1           0       -9.749271   -3.804191    2.856054
     53          1           0       -5.285368   -3.976003    2.016741
     54          1           0       -5.061414   -4.452061    0.285936
     55          1           0       -6.746065   -6.370378    1.538536
     56          1           0       -5.661553   -5.875512    2.782238
     57          1           0       -6.940787   -0.447249    5.858165
     58          1           0       -7.260629    1.144102    6.433767
     59          1           0       -5.561998    0.613624    6.330990
     60          1           0       -6.303921    3.143419    6.756609
     61          1           0       -5.101003    4.539422    6.575946
     62          1           0       -4.653080    2.838087    6.279714
     63          1           0       -6.275268    5.626800   -0.062796
     64          1           0       -7.909750    4.771822   -2.400630
     65          1           0       -8.195431    6.769443    0.272957
     66          1           0       -8.991658    5.198251    0.628080
     67          1           0       -9.037725    5.821094   -0.939376
     68          1           0       -5.955151    6.361073   -2.549410
     69          1           0       -5.970447    5.088931   -3.765660
     70          1           0       -4.338227    5.496899   -1.374822
     71          1           0       -3.783171    5.017091   -3.014453
     72          1           0       -4.533081    3.821319   -1.864464
     73          1           0       -6.591546   -0.211927   -6.036666
     74          1           0       -7.085268    1.444305   -5.534471
     75          1           0       -8.309128    0.107828   -5.494974
     76          1           0       -7.963078   -3.940669   -2.387018
     77          1           0       -5.819928   -7.635263   -3.000519
     78          1           0       -5.425780   -7.247863   -1.218862
     79          1           0       -4.498852   -6.669306   -2.615933
     80         12           0        6.688500    0.712837   -0.440123
     81          6           0        6.563514   -2.603724    0.925090
     82          6           0        5.983378    1.867323    2.691098
     83          6           0        6.346447    3.608057   -1.692388
     84          6           0        6.246940   -0.716019   -3.587996
     85          7           0        6.340904   -0.331439    1.478444
     86          6           0        6.379686   -1.590229    1.888666
     87          6           0        6.292258   -1.767962    3.428250
     88          6           0        5.549297   -0.390361    3.787541
     89          6           0        6.010039    0.452705    2.600264
     90          6           0        4.033906   -0.493810    3.740439
     91          6           0        7.707059   -1.850189    4.101754
     92          6           0        7.700776   -2.331155    5.554468
     93          1           0        8.811290   -3.158024    6.018696
     94          7           0        6.718017    2.498301    0.425792
     95          6           0        6.426164    2.783762    1.712111
     96          6           0        6.576220    4.241158    1.844845
     97          6           0        6.820000    4.812697    0.492570
     98          6           0        6.612380    3.638638   -0.331175
     99          6           0        6.563488    4.942987    3.171754
    100          6           0        7.168172    6.191061    0.018129
    101          8           0        7.099305    6.514347   -1.220251
    102          6           0        7.501953    7.176971    1.056422
    103          7           0        6.135663    1.374476   -2.331939
    104          6           0        6.117357    2.686022   -2.627637
    105          6           0        5.959461    2.908172   -4.112926
    106          6           0        6.118944    1.464667   -4.782580
    107          6           0        6.258684    0.607319   -3.505552
    108          6           0        4.635418    3.530697   -4.555403
    109          6           0        7.195905    1.318765   -5.892329
    110          6           0        8.576178    1.474418   -5.295671
    111          7           0        6.631152   -1.291726   -1.244164
    112          6           0        6.408694   -1.665895   -2.587513
    113          6           0        6.344657   -3.141374   -2.623592
    114          6           0        6.512651   -3.525392   -1.284647
    115          6           0        6.650068   -2.370038   -0.468698
    116          6           0        6.105761   -3.935624   -3.780408
    117          6           0        6.594349   -4.645071   -0.374513
    118          8           0        6.631069   -5.868128   -0.503049
    119          6           0        6.504361   -4.094211    1.113723
    120          6           0        7.598871   -4.742876    1.916080
    121          8           0        8.793314   -4.509353    1.660388
    122          8           0        7.057716   -5.356454    2.984282
    123          6           0        8.105062   -6.005466    3.817148
    124          1           0        5.543055    2.321993    3.578942
    125          1           0        6.329031    4.579769   -2.191346
    126          1           0        6.209824   -1.240988   -4.544918
    127          1           0        5.693425   -2.609603    3.755085
    128          1           0        5.921342    0.027712    4.719288
    129          1           0        3.707003   -1.448785    3.356645
    130          1           0        3.704379    0.307424    3.091985
    131          1           0        3.610520   -0.277736    4.725520
    132          1           0        8.096442   -0.833614    4.242090
    133          1           0        8.370292   -2.461784    3.521483
    134          1           0        6.741622   -2.783226    5.834848
    135          1           0        7.788057   -1.460309    6.208707
    136          1           0        6.200481    4.285323    3.971189
    137          1           0        5.808994    5.734511    3.107605
    138          1           0        7.527302    5.392731    3.419649
    139          1           0        6.663896    7.277172    1.742050
    140          1           0        7.808788    8.075816    0.518085
    141          1           0        8.344822    6.795221    1.643330
    142          1           0        6.737940    3.559135   -4.491507
    143          1           0        5.192086    1.140938   -5.278549
    144          1           0        4.764036    4.466465   -5.131491
    145          1           0        4.029796    3.705668   -3.676114
    146          1           0        3.995958    2.881317   -5.150881
    147          1           0        7.086499    2.114563   -6.633202
    148          1           0        7.143231    0.374473   -6.423858
    149          1           0        8.708217    2.559911   -5.259046
    150          1           0        9.324012    1.007115   -5.933178
    151          1           0        8.603139    1.104091   -4.264271
    152          1           0        6.801634   -4.763004   -3.739128
    153          1           0        6.229463   -3.356229   -4.692968
    154          1           0        5.063095   -4.217670   -3.611428
    155          1           0        5.513757   -4.343533    1.495984
    156          1           0        7.827929   -7.059682    3.914670
    157          1           0        8.157758   -5.410284    4.748134
    158          1           0        9.100702   -6.086532    3.396917
 ---------------------------------------------------------------------

 SCF Done:  E(RCAM-B3LYP) =  -4069.81174475     A.U. after   19 cycles

 Excitation energies and oscillator strengths:

 Excited State   1:      Singlet-A      1.6692 eV  742.77 nm  f=0.1498  <S**2>=0.000
     309 -> 315       -0.10559
     310 -> 316        0.13611
     311 -> 313       -0.41943
     312 -> 314        0.54325
 This state for optimization and/or second-order correction.
 Total Energy, E(TD-HF/TD-DFT) =  -4069.75040261
 Copying the excited state density for this state as the 1-particle RhoCI density.

 Excited State   2:      Singlet-A      1.6848 eV  735.90 nm  f=0.5849  <S**2>=0.000
     309 -> 315        0.13976
     310 -> 316        0.10773
     311 -> 313        0.54245
     312 -> 314        0.41894

 Excited State   3:      Singlet-A      2.1855 eV  567.30 nm  f=0.0753  <S**2>=0.000
     309 -> 313       -0.13670
     310 -> 314        0.62795
     312 -> 316       -0.26674

 Excited State   4:      Singlet-A      2.1920 eV  565.62 nm  f=0.1202  <S**2>=0.000
     309 -> 313        0.62621
     310 -> 314        0.13568
     311 -> 315       -0.27153

 Excited State   5:      Singlet-A      2.6502 eV  467.83 nm  f=0.0000  <S**2>=0.000
     312 -> 313        0.70710

 The electronic state is 1-A.
 Alpha  occ. eigenvalues --  -46.87851 -46.87556 -19.26301 -19.26281 -19.19101
 Alpha  occ. eigenvalues --  -19.19026 -19.18899 -19.18622 -19.18210 -19.17954
 Alpha  occ. eigenvalues --  -14.42500 -14.42399 -14.41502 -14.41252 -14.39460
 Alpha  occ. eigenvalues --  -14.39249 -14.38639 -14.38493 -10.39088 -10.39028
 Alpha  occ. eigenvalues --  -10.35535 -10.35300 -10.34428 -10.34133 -10.31726
 Alpha  occ. eigenvalues --  -10.31653 -10.31450 -10.31212 -10.30959 -10.30935
 Alpha  occ. eigenvalues --  -10.30620 -10.30562 -10.30289 -10.30265 -10.30255
 Alpha  occ. eigenvalues --  -10.30032 -10.29970 -10.29781 -10.29688 -10.29331
 Alpha  occ. eigenvalues --  -10.29315 -10.29295 -10.28781 -10.28656 -10.28631
 Alpha  occ. eigenvalues --  -10.28541 -10.28418 -10.28306 -10.28153 -10.28074
 Alpha  occ. eigenvalues --  -10.27895 -10.27848 -10.27779 -10.27647 -10.27572
 Alpha  occ. eigenvalues --  -10.27562 -10.27550 -10.27499 -10.27451 -10.27394
 Alpha  occ. eigenvalues --  -10.27386 -10.27380 -10.27363 -10.27259 -10.27188
 Alpha  occ. eigenvalues --  -10.26964 -10.26727 -10.26645 -10.26524 -10.26335
 Alpha  occ. eigenvalues --  -10.26268 -10.26229 -10.26072 -10.26023 -10.25965
 Alpha  occ. eigenvalues --  -10.25890 -10.25821 -10.25702 -10.25482 -10.25270
 Alpha  occ. eigenvalues --  -10.24885 -10.24841 -10.24765 -10.24733 -10.24629
 Alpha  occ. eigenvalues --  -10.24585  -3.16594  -3.16306  -1.91475  -1.91188
 Alpha  occ. eigenvalues --   -1.91062  -1.90904  -1.90777  -1.90614  -1.16632
 Alpha  occ. eigenvalues --   -1.16592  -1.08664  -1.08564  -1.07302  -1.06886
 Alpha  occ. eigenvalues --   -1.06875  -1.06648  -1.04631  -1.04399  -1.03813
 Alpha  occ. eigenvalues --   -1.03560  -1.03288  -1.02931  -1.02464  -1.02006
 Alpha  occ. eigenvalues --   -0.92017  -0.91890  -0.89569  -0.89386  -0.89223
 Alpha  occ. eigenvalues --   -0.89081  -0.88336  -0.88110  -0.87921  -0.87721
 Alpha  occ. eigenvalues --   -0.87677  -0.87587  -0.87347  -0.87024  -0.85022
 Alpha  occ. eigenvalues --   -0.84923  -0.83982  -0.83768  -0.83047  -0.82838
 Alpha  occ. eigenvalues --   -0.82692  -0.82574  -0.81611  -0.81517  -0.80639
 Alpha  occ. eigenvalues --   -0.80356  -0.78861  -0.78534  -0.77265  -0.77056
 Alpha  occ. eigenvalues --   -0.76965  -0.76817  -0.75957  -0.75759  -0.74942
 Alpha  occ. eigenvalues --   -0.74698  -0.72825  -0.72593  -0.71717  -0.71485
 Alpha  occ. eigenvalues --   -0.69954  -0.69649  -0.68917  -0.68748  -0.67693
 Alpha  occ. eigenvalues --   -0.67506  -0.67263  -0.67129  -0.65323  -0.65195
 Alpha  occ. eigenvalues --   -0.64895  -0.64674  -0.64659  -0.64569  -0.64317
 Alpha  occ. eigenvalues --   -0.64098  -0.62318  -0.62201  -0.60508  -0.60239
 Alpha  occ. eigenvalues --   -0.59846  -0.59715  -0.59034  -0.58893  -0.58550
 Alpha  occ. eigenvalues --   -0.58329  -0.57616  -0.57468  -0.57357  -0.57135
 Alpha  occ. eigenvalues --   -0.56363  -0.56106  -0.55994  -0.55818  -0.55579
 Alpha  occ. eigenvalues --   -0.55377  -0.55367  -0.55149  -0.54553  -0.54398
 Alpha  occ. eigenvalues --   -0.53931  -0.53843  -0.53357  -0.53270  -0.53129
 Alpha  occ. eigenvalues --   -0.53059  -0.52953  -0.52822  -0.52819  -0.52586
 Alpha  occ. eigenvalues --   -0.52484  -0.52295  -0.51962  -0.51755  -0.51661
 Alpha  occ. eigenvalues --   -0.51585  -0.51236  -0.51107  -0.50658  -0.50386
 Alpha  occ. eigenvalues --   -0.50083  -0.49984  -0.49895  -0.49761  -0.49566
 Alpha  occ. eigenvalues --   -0.49403  -0.49263  -0.49133  -0.49116  -0.49020
 Alpha  occ. eigenvalues --   -0.48628  -0.48526  -0.48492  -0.48474  -0.48270
 Alpha  occ. eigenvalues --   -0.48249  -0.47744  -0.47508  -0.47349  -0.47023
 Alpha  occ. eigenvalues --   -0.46843  -0.46613  -0.46592  -0.46479  -0.46409
 Alpha  occ. eigenvalues --   -0.46203  -0.46169  -0.45980  -0.45853  -0.45729
 Alpha  occ. eigenvalues --   -0.45250  -0.45102  -0.44618  -0.44564  -0.44431
 Alpha  occ. eigenvalues --   -0.44389  -0.44196  -0.44129  -0.44066  -0.44042
 Alpha  occ. eigenvalues --   -0.43982  -0.43853  -0.43524  -0.43475  -0.43430
 Alpha  occ. eigenvalues --   -0.43298  -0.43072  -0.42858  -0.42806  -0.42733
 Alpha  occ. eigenvalues --   -0.42676  -0.42449  -0.42051  -0.41873  -0.41749
 Alpha  occ. eigenvalues --   -0.41575  -0.41571  -0.41380  -0.41186  -0.40917
 Alpha  occ. eigenvalues --   -0.40899  -0.40889  -0.40643  -0.40619  -0.40616
 Alpha  occ. eigenvalues --   -0.40390  -0.40266  -0.40168  -0.39488  -0.39316
 Alpha  occ. eigenvalues --   -0.38514  -0.38247  -0.37779  -0.37589  -0.37369
 Alpha  occ. eigenvalues --   -0.37302  -0.37163  -0.37114  -0.36732  -0.36703
 Alpha  occ. eigenvalues --   -0.36224  -0.36123  -0.34336  -0.34152  -0.33794
 Alpha  occ. eigenvalues --   -0.33786  -0.33235  -0.33072  -0.31427  -0.31181
 Alpha  occ. eigenvalues --   -0.31086  -0.30873  -0.30067  -0.29860  -0.29512
 Alpha  occ. eigenvalues --   -0.29375  -0.29225  -0.29102  -0.24131  -0.23932
 Alpha  occ. eigenvalues --   -0.21181  -0.21013
 Alpha virt. eigenvalues --   -0.08831  -0.08688  -0.01805  -0.01580  -0.00123
 Alpha virt. eigenvalues --    0.00065   0.02152   0.02312   0.03059   0.03319
 Alpha virt. eigenvalues --    0.04678   0.04818   0.05085   0.05231   0.06160

 Mulliken charges:
               1
     1  Mg   0.838614
     2  C   -0.002892
     3  C   -0.094226
     4  C   -0.045988
     5  C   -0.063970
     6  N   -0.256788
     7  C   -0.052354
     8  C   -0.013973
     9  C   -0.086970
    10  C    0.046283
    11  C    0.104806
    12  C    0.053499
    13  C   -0.072132
    14  H    0.037094
    15  N   -0.433108
    16  C    0.168244
    17  C   -0.177374
    18  C   -0.004281
    19  C    0.148628
    20  C    0.110211
    21  C    0.011934
    22  O   -0.249723
    23  C    0.062688
    24  N   -0.341178
    25  C    0.041259
    26  C   -0.028151
    27  C   -0.024039
    28  C    0.074927
    29  C    0.076144
    30  C    0.035109
    31  C   -0.004481
    32  N   -0.310522
    33  C    0.080538
    34  C   -0.169699
    35  C    0.008472
    36  C    0.083031
    37  C    0.127303
    38  C    0.046196
    39  O   -0.188077
    40  C   -0.005321
    41  C    0.212902
    42  O   -0.256991
    43  O   -0.304867
    44  C    0.157482
    45  H   -0.017608
    46  H   -0.016945
    47  H   -0.041391
    48  H    0.001153
    49  H   -0.004055
    50  H    0.025573
    51  H    0.016371
    52  H    0.016738
    53  H    0.010843
    54  H    0.044333
    55  H    0.017941
    56  H    0.017751
    57  H    0.005982
    58  H    0.026830
    59  H    0.038796
    60  H    0.037570
    61  H    0.035222
    62  H    0.030704
    63  H    0.016460
    64  H    0.009579
    65  H    0.023198
    66  H    0.012547
    67  H    0.004862
    68  H    0.006520
    69  H    0.004795
    70  H    0.008738
    71  H    0.018323
    72  H    0.028807
    73  H    0.047624
    74  H    0.009132
    75  H    0.046185
    76  H    0.035286
    77  H    0.043176
    78  H    0.046550
    79  H    0.054151
    80  Mg   0.838108
    81  C   -0.016873
    82  C   -0.087910
    83  C   -0.045417
    84  C   -0.064065
    85  N   -0.254528
    86  C   -0.049730
    87  C   -0.015082
    88  C   -0.090544
    89  C    0.045776
    90  C    0.114441
    91  C    0.062599
    92  C   -0.077635
    93  H    0.034588
    94  N   -0.423471
    95  C    0.162851
    96  C   -0.174670
    97  C   -0.007877
    98  C    0.152084
    99  C    0.099391
   100  C    0.015507
   101  O   -0.253324
   102  C    0.061228
   103  N   -0.349935
   104  C    0.037647
   105  C   -0.019945
   106  C   -0.034980
   107  C    0.088944
   108  C    0.073519
   109  C    0.034688
   110  C   -0.007621
   111  N   -0.324207
   112  C    0.078508
   113  C   -0.162519
   114  C    0.002375
   115  C    0.096325
   116  C    0.131366
   117  C    0.042670
   118  O   -0.188019
   119  C    0.000795
   120  C    0.211148
   121  O   -0.251083
   122  O   -0.305699
   123  C    0.152112
   124  H   -0.020028
   125  H   -0.015661
   126  H   -0.039924
   127  H   -0.001004
   128  H   -0.004773
   129  H    0.022638
   130  H    0.014992
   131  H    0.015224
   132  H    0.013931
   133  H    0.037690
   134  H    0.020371
   135  H    0.019388
   136  H    0.008448
   137  H    0.026218
   138  H    0.039476
   139  H    0.038305
   140  H    0.036181
   141  H    0.033711
   142  H    0.014146
   143  H    0.013352
   144  H    0.024700
   145  H    0.011828
   146  H    0.006377
   147  H    0.006198
   148  H    0.003913
   149  H    0.010750
   150  H    0.017777
   151  H    0.029990
   152  H    0.045649
   153  H    0.008656
   154  H    0.048432
   155  H    0.035101
   156  H    0.043619
   157  H    0.049238
   158  H    0.053554
 Sum of Mulliken charges =  -0.00000

 Dipole moment (field-independent basis, Debye):
    X=             -3.6647    Y=              2.0680    Z=              7.0516  Tot=              8.2117
 Quadrupole moment (field-independent basis, Debye-Ang):
   XX=           -518.4288   YY=           -532.3670   ZZ=           -466.6853
   XY=             25.1038   XZ=             -4.5250   YZ=            -30.5722

 Normal termination of Gaussian 16 at Sat Sep 11 13:00:50 2021.
