 Gaussian 16, Revision A.03,
 Gaussian 16:  ES64L-G16RevA.03 25-Dec-2016

 -----------------------------------
 #p cam-b3lyp/Def2SVP td=(nstates=5)
 -----------------------------------

 --------------------------------
 TDDFT excited states in gaussian
 --------------------------------
 Symbolic Z-matrix:
 Charge =  0 Multiplicity = 1

                         Standard orientation:
 ---------------------------------------------------------------------
 Center     Atomic      Atomic             Coordinates (Angstroms)
 Number     Number       Type             X           Y           Z
 ---------------------------------------------------------------------
      1         12           0        5.572882    0.239098    0.346887
      2          6           0        5.611105   -2.971086   -1.235980
      3          6           0        6.575585    1.556787   -2.636626
      4          6           0        5.984948    3.010055    1.833030
      5          6           0        5.686658   -1.430756    3.403732
      6          7           0        6.003301   -0.691247   -1.615215
      7          6           0        5.921851   -1.923879   -2.106289
      8          6           0        6.123816   -1.988596   -3.649791
      9          6           0        6.960798   -0.646537   -3.850635
     10          6           0        6.458330    0.135128   -2.649615
     11          6           0        8.467361   -0.841890   -3.714224
     12          6           0        4.766854   -1.939606   -4.429523
     13          6           0        4.849568   -2.323753   -5.909707
     14          1           0        3.738606   -3.048159   -6.508328
     15          7           0        5.712907    2.072276   -0.376094
     16          6           0        6.123674    2.423746   -1.618280
     17          6           0        6.051965    3.899884   -1.668830
     18          6           0        5.747801    4.387975   -0.295023
     19          6           0        5.830017    3.162077    0.457170
     20          6           0        6.213587    4.688751   -2.931888
     21          6           0        5.443321    5.745672    0.254596
     22          8           0        5.437971    5.985581    1.510379
     23          6           0        5.235739    6.821990   -0.731047
     24          7           0        6.024704    0.737162    2.323101
     25          6           0        6.088610    2.014226    2.715540
     26          6           0        6.142806    2.123976    4.210517
     27          6           0        5.856526    0.656878    4.772141
     28          6           0        5.763361   -0.098163    3.423251
     29          6           0        7.462217    2.646037    4.795852
     30          6           0        4.692868    0.505877    5.783831
     31          6           0        3.374678    0.777367    5.094073
     32          7           0        5.459976   -1.824637    1.009679
     33          6           0        5.551984   -2.292914    2.328362
     34          6           0        5.530101   -3.765914    2.266219
     35          6           0        5.443018   -4.054277    0.905665
     36          6           0        5.438900   -2.838927    0.163238
     37          6           0        5.645703   -4.648651    3.376104
     38          6           0        5.377322   -5.106922   -0.095075
     39          8           0        5.254733   -6.332116   -0.058124
     40          6           0        5.606344   -4.451040   -1.527972
     41          6           0        4.540591   -4.983018   -2.446926
     42          8           0        3.340553   -4.687771   -2.273421
     43          8           0        5.118807   -5.554590   -3.514406
     44          6           0        4.116122   -6.077146   -4.480694
     45          1           0        7.113470    2.049478   -3.448953
     46          1           0        6.019288    3.946391    2.393863
     47          1           0        5.633435   -2.017734    4.322468
     48          1           0        6.703349   -2.844234   -3.996850
     49          1           0        6.693359   -0.134601   -4.774821
     50          1           0        8.709318   -1.848385   -3.373130
     51          1           0        8.791417   -0.103207   -2.980856
     52          1           0        8.976935   -0.585231   -4.643330
     53          1           0        4.444226   -0.902823   -4.524672
     54          1           0        4.016592   -2.559588   -3.937533
     55          1           0        5.795070   -2.814726   -6.141828
     56          1           0        4.868097   -1.407460   -6.499845
     57          1           0        6.591559    4.070097   -3.744876
     58          1           0        7.005062    5.416441   -2.753722
     59          1           0        5.295838    5.205305   -3.213386
     60          1           0        6.129682    6.923428   -1.346779
     61          1           0        4.941103    7.700989   -0.158859
     62          1           0        4.429891    6.532097   -1.405968
     63          1           0        5.376669    2.803977    4.580732
     64          1           0        6.719139    0.243721    5.295471
     65          1           0        7.344111    3.532199    5.419930
     66          1           0        8.145081    2.838351    3.968807
     67          1           0        8.025303    1.915825    5.376491
     68          1           0        4.791180    1.235909    6.586536
     69          1           0        4.644181   -0.483290    6.239274
     70          1           0        3.301367    1.863784    5.128069
     71          1           0        2.555076    0.313368    5.643771
     72          1           0        3.407269    0.485673    4.044150
     73          1           0        4.902079   -5.430604    3.222670
     74          1           0        5.481244   -4.124829    4.317469
     75          1           0        6.675784   -4.985251    3.259966
     76          1           0        6.606170   -4.741194   -1.849345
     77          1           0        4.336705   -7.133851   -4.632189
     78          1           0        4.154383   -5.422374   -5.351450
     79          1           0        3.086497   -6.130748   -4.125254
     80         12           0       -4.998894    0.870177    0.181249
     81          6           0       -7.602772   -1.599186    0.215039
     82          6           0       -6.950903    2.683105   -1.948908
     83          6           0       -2.548334    2.844104   -0.225979
     84          6           0       -2.834625   -1.597028    1.353659
     85          7           0       -6.998899    0.486472   -0.681867
     86          6           0       -7.919467   -0.456492   -0.548763
     87          6           0       -9.283760   -0.121250   -1.208986
     88          6           0       -8.768059    0.933974   -2.304175
     89          6           0       -7.511313    1.430541   -1.592356
     90          6           0       -8.350725    0.286387   -3.614065
     91          6           0      -10.288499    0.540835   -0.201925
     92          6           0      -11.736662    0.611722   -0.691371
     93          1           0      -12.810141    0.446044    0.284660
     94          7           0       -4.948217    2.728011   -0.514797
     95          6           0       -5.833610    3.307629   -1.352279
     96          6           0       -5.339132    4.674777   -1.577154
     97          6           0       -4.002402    4.801594   -0.935449
     98          6           0       -3.766819    3.426585   -0.543134
     99          6           0       -6.151536    5.730327   -2.269432
    100          6           0       -3.082044    5.965196   -0.722892
    101          8           0       -1.865452    5.802749   -0.353646
    102          6           0       -3.619207    7.294160   -1.049704
    103          7           0       -2.940561    0.608069    0.311264
    104          6           0       -2.099627    1.643043    0.139293
    105          6           0       -0.693189    1.277158    0.549721
    106          6           0       -0.811256   -0.149031    1.263616
    107          6           0       -2.318472   -0.413032    1.053822
    108          6           0        0.330396    1.196029   -0.582559
    109          6           0       -0.233214   -0.266809    2.700502
    110          6           0       -1.056975    0.563962    3.657905
    111          7           0       -5.192037   -1.167365    0.873467
    112          6           0       -4.153979   -2.027332    1.294136
    113          6           0       -4.762740   -3.346741    1.560562
    114          6           0       -6.119635   -3.167688    1.251914
    115          6           0       -6.337316   -1.836680    0.804094
    116          6           0       -4.065911   -4.515091    1.979499
    117          6           0       -7.415428   -3.804996    1.192963
    118          8           0       -7.861251   -4.899973    1.533544
    119          6           0       -8.410718   -2.853840    0.398549
    120          6           0       -9.687939   -2.755664    1.186942
    121          8           0       -9.700109   -2.212071    2.305403
    122          8           0      -10.718695   -3.121530    0.403320
    123          6           0      -12.008851   -3.030178    1.137471
    124          1           0       -7.380495    3.222065   -2.793810
    125          1           0       -1.686164    3.514777   -0.244219
    126          1           0       -2.244197   -2.391199    1.815572
    127          1           0       -9.769423   -0.957217   -1.697926
    128          1           0       -9.478251    1.746286   -2.435091
    129          1           0       -8.358414   -0.791613   -3.550967
    130          1           0       -7.350153    0.646515   -3.814594
    131          1           0       -8.974063    0.656631   -4.433029
    132          1           0      -10.063748    1.612374   -0.124268
    133          1           0      -10.252697    0.049075    0.750710
    134          1           0      -11.908590   -0.029645   -1.564323
    135          1           0      -11.929547    1.622413   -1.059223
    136          1           0       -7.023105    5.298769   -2.776897
    137          1           0       -5.533557    6.127926   -3.081764
    138          1           0       -6.431278    6.550188   -1.604415
    139          1           0       -3.923613    7.313972   -2.093447
    140          1           0       -2.846585    8.003967   -0.747854
    141          1           0       -4.523955    7.461798   -0.454774
    142          1           0       -0.298649    1.993838    1.259519
    143          1           0       -0.274699   -0.929974    0.704985
    144          1           0        1.201377    1.861483   -0.432090
    145          1           0       -0.170348    1.429547   -1.512748
    146          1           0        0.726232    0.200650   -0.776827
    147          1           0        0.782053    0.135966    2.734478
    148          1           0       -0.187101   -1.287526    3.065202
    149          1           0       -0.641407    1.568418    3.533527
    150          1           0       -0.931837    0.208661    4.678760
    151          1           0       -2.106774    0.600415    3.344446
    152          1           0       -4.664028   -4.972594    2.756315
    153          1           0       -3.066142   -4.275492    2.335621
    154          1           0       -4.044006   -5.076036    1.041340
    155          1           0       -8.570188   -3.295484   -0.585884
    156          1           0      -12.484041   -4.013843    1.072010
    157          1           0      -12.550277   -2.178107    0.685165
    158          1           0      -11.965675   -2.887169    2.210845
 ---------------------------------------------------------------------

 SCF Done:  E(RCAM-B3LYP) =  -4069.81247354     A.U. after   19 cycles

 Excitation energies and oscillator strengths:

 Excited State   1:      Singlet-A      1.6542 eV  749.49 nm  f=0.0039  <S**2>=0.000
     309 -> 315       -0.11212
     310 -> 316        0.12550
     311 -> 313       -0.45601
     312 -> 314        0.51418
 This state for optimization and/or second-order correction.
 Total Energy, E(TD-HF/TD-DFT) =  -4069.75168126
 Copying the excited state density for this state as the 1-particle RhoCI density.

 Excited State   2:      Singlet-A      1.6979 eV  730.20 nm  f=0.7095  <S**2>=0.000
     309 -> 315        0.13493
     310 -> 316        0.11841
     311 -> 313        0.51227
     312 -> 314        0.45424

 Excited State   3:      Singlet-A      2.1840 eV  567.70 nm  f=0.1042  <S**2>=0.000
     310 -> 314        0.63777
     312 -> 316       -0.26914

 Excited State   4:      Singlet-A      2.1962 eV  564.54 nm  f=0.0973  <S**2>=0.000
     309 -> 313        0.63514
     311 -> 315       -0.27754

 Excited State   5:      Singlet-A      2.4664 eV  502.70 nm  f=0.0000  <S**2>=0.000
     312 -> 313        0.70641

 The electronic state is 1-A.
 Alpha  occ. eigenvalues --  -46.87899 -46.87474 -19.26365 -19.26218 -19.19121
 Alpha  occ. eigenvalues --  -19.19022 -19.18760 -19.18579 -19.18237 -19.17878
 Alpha  occ. eigenvalues --  -14.42533 -14.42316 -14.41543 -14.41160 -14.39481
 Alpha  occ. eigenvalues --  -14.39172 -14.38685 -14.38407 -10.39177 -10.38948
 Alpha  occ. eigenvalues --  -10.35387 -10.35262 -10.34461 -10.34055 -10.31743
 Alpha  occ. eigenvalues --  -10.31641 -10.31496 -10.31124 -10.30970 -10.30867
 Alpha  occ. eigenvalues --  -10.30659 -10.30589 -10.30276 -10.30201 -10.30164
 Alpha  occ. eigenvalues --  -10.30016 -10.29932 -10.29690 -10.29684 -10.29313
 Alpha  occ. eigenvalues --  -10.29251 -10.29211 -10.28816 -10.28597 -10.28580
 Alpha  occ. eigenvalues --  -10.28550 -10.28435 -10.28235 -10.28183 -10.27996
 Alpha  occ. eigenvalues --  -10.27854 -10.27815 -10.27801 -10.27628 -10.27601
 Alpha  occ. eigenvalues --  -10.27532 -10.27490 -10.27480 -10.27465 -10.27344
 Alpha  occ. eigenvalues --  -10.27303 -10.27290 -10.27234 -10.27225 -10.27158
 Alpha  occ. eigenvalues --  -10.26887 -10.26779 -10.26570 -10.26338 -10.26328
 Alpha  occ. eigenvalues --  -10.26291 -10.26248 -10.26107 -10.25922 -10.25893
 Alpha  occ. eigenvalues --  -10.25867 -10.25701 -10.25552 -10.25488 -10.25244
 Alpha  occ. eigenvalues --  -10.24943 -10.24902 -10.24862 -10.24685 -10.24506
 Alpha  occ. eigenvalues --  -10.24505  -3.16640  -3.16224  -1.91522  -1.91108
 Alpha  occ. eigenvalues --   -1.91106  -1.90949  -1.90694  -1.90531  -1.16716
 Alpha  occ. eigenvalues --   -1.16510  -1.08699  -1.08486  -1.07154  -1.06836
 Alpha  occ. eigenvalues --   -1.06806  -1.06740  -1.04660  -1.04319  -1.03843
 Alpha  occ. eigenvalues --   -1.03476  -1.03315  -1.02842  -1.02494  -1.01921
 Alpha  occ. eigenvalues --   -0.92050  -0.91807  -0.89624  -0.89274  -0.89259
 Alpha  occ. eigenvalues --   -0.89000  -0.88382  -0.88006  -0.87944  -0.87747
 Alpha  occ. eigenvalues --   -0.87576  -0.87499  -0.87278  -0.86969  -0.85044
 Alpha  occ. eigenvalues --   -0.84844  -0.84046  -0.83669  -0.82962  -0.82788
 Alpha  occ. eigenvalues --   -0.82678  -0.82500  -0.81659  -0.81428  -0.80654
 Alpha  occ. eigenvalues --   -0.80275  -0.78832  -0.78460  -0.77295  -0.77012
 Alpha  occ. eigenvalues --   -0.76969  -0.76727  -0.75993  -0.75677  -0.74980
 Alpha  occ. eigenvalues --   -0.74621  -0.72851  -0.72500  -0.71743  -0.71405
 Alpha  occ. eigenvalues --   -0.70042  -0.69529  -0.68929  -0.68669  -0.67697
 Alpha  occ. eigenvalues --   -0.67426  -0.67256  -0.67060  -0.65362  -0.65114
 Alpha  occ. eigenvalues --   -0.64935  -0.64700  -0.64581  -0.64482  -0.64366
 Alpha  occ. eigenvalues --   -0.63988  -0.62379  -0.62110  -0.60475  -0.60170
 Alpha  occ. eigenvalues --   -0.59873  -0.59634  -0.59065  -0.58804  -0.58577
 Alpha  occ. eigenvalues --   -0.58243  -0.57663  -0.57384  -0.57376  -0.57049
 Alpha  occ. eigenvalues --   -0.56365  -0.56048  -0.56018  -0.55736  -0.55541
 Alpha  occ. eigenvalues --   -0.55433  -0.55298  -0.55049  -0.54619  -0.54299
 Alpha  occ. eigenvalues --   -0.53962  -0.53764  -0.53358  -0.53240  -0.53051
 Alpha  occ. eigenvalues --   -0.52993  -0.52978  -0.52751  -0.52739  -0.52575
 Alpha  occ. eigenvalues --   -0.52539  -0.52164  -0.51993  -0.51653  -0.51639
 Alpha  occ. eigenvalues --   -0.51514  -0.51280  -0.51014  -0.50537  -0.50344
 Alpha  occ. eigenvalues --   -0.50118  -0.49931  -0.49829  -0.49689  -0.49541
 Alpha  occ. eigenvalues --   -0.49340  -0.49263  -0.49153  -0.49043  -0.48934
 Alpha  occ. eigenvalues --   -0.48664  -0.48534  -0.48435  -0.48393  -0.48196
 Alpha  occ. eigenvalues --   -0.48180  -0.47748  -0.47429  -0.47341  -0.46952
 Alpha  occ. eigenvalues --   -0.46885  -0.46616  -0.46516  -0.46435  -0.46400
 Alpha  occ. eigenvalues --   -0.46247  -0.46078  -0.45899  -0.45889  -0.45630
 Alpha  occ. eigenvalues --   -0.45286  -0.45035  -0.44656  -0.44543  -0.44362
 Alpha  occ. eigenvalues --   -0.44295  -0.44229  -0.44150  -0.44037  -0.43971
 Alpha  occ. eigenvalues --   -0.43893  -0.43787  -0.43570  -0.43458  -0.43385
 Alpha  occ. eigenvalues --   -0.43218  -0.43103  -0.42803  -0.42774  -0.42761
 Alpha  occ. eigenvalues --   -0.42710  -0.42354  -0.42116  -0.41780  -0.41766
 Alpha  occ. eigenvalues --   -0.41602  -0.41491  -0.41292  -0.41208  -0.40957
 Alpha  occ. eigenvalues --   -0.40822  -0.40791  -0.40666  -0.40589  -0.40525
 Alpha  occ. eigenvalues --   -0.40282  -0.40277  -0.40100  -0.39586  -0.39182
 Alpha  occ. eigenvalues --   -0.38561  -0.38151  -0.37818  -0.37509  -0.37410
 Alpha  occ. eigenvalues --   -0.37335  -0.37060  -0.37029  -0.36804  -0.36617
 Alpha  occ. eigenvalues --   -0.36281  -0.36026  -0.34371  -0.34066  -0.33869
 Alpha  occ. eigenvalues --   -0.33714  -0.33267  -0.32984  -0.31305  -0.31137
 Alpha  occ. eigenvalues --   -0.31099  -0.30791  -0.30101  -0.29781  -0.29499
 Alpha  occ. eigenvalues --   -0.29393  -0.29156  -0.29019  -0.24166  -0.23844
 Alpha  occ. eigenvalues --   -0.21204  -0.20928
 Alpha virt. eigenvalues --   -0.08837  -0.08608  -0.01824  -0.01509  -0.00073
 Alpha virt. eigenvalues --    0.00124   0.02127   0.02358   0.02508   0.03406
 Alpha virt. eigenvalues --    0.04636   0.04895   0.05006   0.05311   0.06069

 Mulliken charges:
               1
     1  Mg   0.831648
     2  C   -0.002846
     3  C   -0.093191
     4  C   -0.045421
     5  C   -0.064028
     6  N   -0.256523
     7  C   -0.053260
     8  C   -0.013724
     9  C   -0.087111
    10  C    0.046259
    11  C    0.104737
    12  C    0.053221
    13  C   -0.071928
    14  H    0.036231
    15  N   -0.434263
    16  C    0.168695
    17  C   -0.176452
    18  C   -0.003150
    19  C    0.148190
    20  C    0.110193
    21  C    0.014480
    22  O   -0.248815
    23  C    0.061642
    24  N   -0.340576
    25  C    0.040431
    26  C   -0.028504
    27  C   -0.024542
    28  C    0.073732
    29  C    0.076137
    30  C    0.037194
    31  C   -0.013640
    32  N   -0.310372
    33  C    0.078840
    34  C   -0.170775
    35  C    0.008254
    36  C    0.081382
    37  C    0.127505
    38  C    0.045532
    39  O   -0.188358
    40  C   -0.005373
    41  C    0.213252
    42  O   -0.258415
    43  O   -0.304557
    44  C    0.157552
    45  H   -0.017294
    46  H   -0.016194
    47  H   -0.041837
    48  H    0.001083
    49  H   -0.003706
    50  H    0.025618
    51  H    0.016609
    52  H    0.016949
    53  H    0.011401
    54  H    0.043349
    55  H    0.018071
    56  H    0.018226
    57  H    0.005662
    58  H    0.027098
    59  H    0.041442
    60  H    0.036222
    61  H    0.037122
    62  H    0.034682
    63  H    0.016987
    64  H    0.009936
    65  H    0.023833
    66  H    0.012868
    67  H    0.004934
    68  H    0.007436
    69  H    0.004761
    70  H    0.010627
    71  H    0.018544
    72  H    0.032850
    73  H    0.047036
    74  H    0.008830
    75  H    0.046394
    76  H    0.035514
    77  H    0.043365
    78  H    0.046556
    79  H    0.053611
    80  Mg   0.837713
    81  C   -0.017240
    82  C   -0.088271
    83  C   -0.045656
    84  C   -0.063013
    85  N   -0.254598
    86  C   -0.049689
    87  C   -0.015124
    88  C   -0.090457
    89  C    0.045686
    90  C    0.114543
    91  C    0.062615
    92  C   -0.077655
    93  H    0.034519
    94  N   -0.423264
    95  C    0.162644
    96  C   -0.175376
    97  C   -0.008414
    98  C    0.151921
    99  C    0.099701
   100  C    0.014965
   101  O   -0.253646
   102  C    0.061258
   103  N   -0.350018
   104  C    0.037305
   105  C   -0.020260
   106  C   -0.037941
   107  C    0.088713
   108  C    0.064661
   109  C    0.032893
   110  C   -0.007838
   111  N   -0.324281
   112  C    0.078172
   113  C   -0.162284
   114  C    0.002134
   115  C    0.096476
   116  C    0.131771
   117  C    0.042620
   118  O   -0.187821
   119  C    0.000888
   120  C    0.211182
   121  O   -0.251172
   122  O   -0.305637
   123  C    0.152138
   124  H   -0.020481
   125  H   -0.016069
   126  H   -0.037264
   127  H   -0.000839
   128  H   -0.004783
   129  H    0.022469
   130  H    0.014343
   131  H    0.015633
   132  H    0.013851
   133  H    0.037642
   134  H    0.020644
   135  H    0.019341
   136  H    0.008384
   137  H    0.025032
   138  H    0.039264
   139  H    0.037459
   140  H    0.035757
   141  H    0.034041
   142  H    0.014512
   143  H    0.019256
   144  H    0.029152
   145  H    0.010778
   146  H    0.012646
   147  H    0.007859
   148  H    0.005580
   149  H    0.011282
   150  H    0.016564
   151  H    0.029443
   152  H    0.045365
   153  H    0.010320
   154  H    0.048706
   155  H    0.034933
   156  H    0.043740
   157  H    0.049271
   158  H    0.053439
 Sum of Mulliken charges =  -0.00000

 Dipole moment (field-independent basis, Debye):
    X=              1.5985    Y=              5.6846    Z=             -6.1392  Tot=              8.5181
 Quadrupole moment (field-independent basis, Debye-Ang):
   XX=           -460.7321   YY=           -551.4115   ZZ=           -469.7903
   XY=            -28.1333   XZ=             17.9798   YZ=            -11.1874

 Normal termination of Gaussian 16 at Sat Sep 11 01:43:04 2021.
