 Gaussian 16, Revision A.03,
 Gaussian 16:  ES64L-G16RevA.03 25-Dec-2016

 -----------------------------------
 #p cam-b3lyp/Def2SVP td=(nstates=5)
 -----------------------------------

 --------------------------------
 TDDFT excited states in gaussian
 --------------------------------
 Symbolic Z-matrix:
 Charge =  0 Multiplicity = 1

                         Standard orientation:
 ---------------------------------------------------------------------
 Center     Atomic      Atomic             Coordinates (Angstroms)
 Number     Number       Type             X           Y           Z
 ---------------------------------------------------------------------
      1         12           0       -3.515373    1.008141   -0.029758
      2          6           0       -4.157970   -2.059956    1.698265
      3          6           0       -4.141395    2.622317    2.910582
      4          6           0       -3.399818    3.742451   -1.631887
      5          6           0       -4.055743   -0.725559   -3.004307
      6          7           0       -4.067776    0.265370    1.981160
      7          6           0       -4.223871   -0.937045    2.526139
      8          6           0       -4.389248   -0.896698    4.074814
      9          6           0       -4.930031    0.594951    4.231447
     10          6           0       -4.314897    1.208370    2.985955
     11          6           0       -6.448226    0.705881    4.135117
     12          6           0       -3.028252   -1.094233    4.823413
     13          6           0       -3.143633   -1.393226    6.320959
     14          1           0       -2.185762   -2.304337    6.928994
     15          7           0       -3.258942    2.859011    0.611626
     16          6           0       -3.553049    3.336870    1.844687
     17          6           0       -3.181670    4.768102    1.826402
     18          6           0       -2.825314    5.127863    0.425803
     19          6           0       -3.176820    3.915162   -0.267868
     20          6           0       -3.142509    5.623771    3.055241
     21          6           0       -2.267829    6.371461   -0.191291
     22          8           0       -2.250846    6.554240   -1.456549
     23          6           0       -1.817121    7.421707    0.739778
     24          7           0       -3.914629    1.507608   -2.016907
     25          6           0       -3.729440    2.753890   -2.465760
     26          6           0       -3.804203    2.811841   -3.962754
     27          6           0       -3.838415    1.295709   -4.462681
     28          6           0       -3.860826    0.592730   -3.082976
     29          6           0       -5.006781    3.568123   -4.544005
     30          6           0       -2.759945    0.869572   -5.490168
     31          6           0       -1.394370    0.893942   -4.840778
     32          7           0       -3.843387   -1.060269   -0.599959
     33          6           0       -4.067328   -1.552845   -1.893749
     34          6           0       -4.343151   -2.995553   -1.764981
     35          6           0       -4.276421   -3.240357   -0.394776
     36          6           0       -4.003781   -2.022427    0.291230
     37          6           0       -4.668188   -3.880256   -2.830855
     38          6           0       -4.396389   -4.242898    0.651349
     39          8           0       -4.526252   -5.467790    0.667778
     40          6           0       -4.445198   -3.496676    2.057264
     41          6           0       -3.483075   -4.197389    2.977388
     42          8           0       -2.253724   -4.160575    2.765945
     43          8           0       -4.133620   -4.595251    4.081489
     44          6           0       -3.229918   -5.271960    5.049756
     45          1           0       -4.543895    3.246870    3.710500
     46          1           0       -3.259827    4.642619   -2.233998
     47          1           0       -4.149871   -1.347707   -3.896229
     48          1           0       -5.119962   -1.601275    4.472373
     49          1           0       -4.537137    1.078467    5.125634
     50          1           0       -6.899429   -0.242987    3.845315
     51          1           0       -6.636997    1.464882    3.375659
     52          1           0       -6.867503    1.098512    5.061845
     53          1           0       -2.499183   -0.142153    4.864536
     54          1           0       -2.434307   -1.873686    4.344864
     55          1           0       -4.161876   -1.671067    6.594630
     56          1           0       -2.958359   -0.469343    6.868966
     57          1           0       -3.614120    5.128690    3.903193
     58          1           0       -3.774647    6.489884    2.860410
     59          1           0       -2.131118    5.953069    3.293950
     60          1           0       -2.653330    7.728299    1.368511
     61          1           0       -1.367127    8.198183    0.122170
     62          1           0       -1.067406    7.000963    1.410487
     63          1           0       -2.927196    3.305599   -4.379273
     64          1           0       -4.781968    1.046511   -4.948769
     65          1           0       -4.729636    4.385540   -5.210131
     66          1           0       -5.611730    3.929062   -3.712710
     67          1           0       -5.723239    2.945352   -5.079039
     68          1           0       -2.731571    1.571228   -6.323127
     69          1           0       -2.926534   -0.126299   -5.900947
     70          1           0       -1.103039    1.940238   -4.925769
     71          1           0       -0.702589    0.250570   -5.385500
     72          1           0       -1.454588    0.657746   -3.778200
     73          1           0       -4.094629   -4.790677   -2.657267
     74          1           0       -4.428583   -3.439540   -3.798306
     75          1           0       -5.741282   -3.994528   -2.678319
     76          1           0       -5.473208   -3.563395    2.412038
     77          1           0       -3.655897   -6.254382    5.253776
     78          1           0       -3.108794   -4.588497    5.890359
     79          1           0       -2.243539   -5.548933    4.676017
     80         12           0        4.329711   -0.142010   -0.081228
     81          6           0        1.609785   -1.890340   -1.638280
     82          6           0        2.684353    2.756872   -0.805013
     83          6           0        6.906807    1.442974    0.874708
     84          6           0        6.242670   -3.024041   -0.505726
     85          7           0        2.403009    0.252748   -1.093290
     86          6           0        1.426341   -0.492747   -1.587953
     87          6           0        0.149771    0.297947   -1.981304
     88          6           0        0.820656    1.738732   -2.211344
     89          6           0        2.028565    1.596197   -1.287595
     90          6           0        1.325765    1.947920   -3.629249
     91          6           0       -0.909953    0.335831   -0.824773
     92          6           0       -2.299752    0.822042   -1.241669
     93          1           0       -3.467804    0.220166   -0.604597
     94          7           0        4.542184    1.754114    0.464783
     95          6           0        3.771129    2.798441    0.095827
     96          6           0        4.354859    3.980174    0.749238
     97          6           0        5.629745    3.574112    1.400779
     98          6           0        5.755599    2.216273    0.910372
     99          6           0        3.667342    5.314196    0.782799
    100          6           0        6.584987    4.293614    2.304130
    101          8           0        7.751178    3.827171    2.559586
    102          6           0        6.150738    5.605448    2.806135
    103          7           0        6.350178   -0.630139   -0.038925
    104          6           0        7.256118    0.219878    0.475517
    105          6           0        8.596613   -0.452699    0.651910
    106          6           0        8.337833   -2.006098    0.373426
    107          6           0        6.845534   -1.947444   -0.020284
    108          6           0        9.717026    0.047713   -0.259492
    109          6           0        8.770625   -3.001874    1.484194
    110          6           0        7.904269   -2.817021    2.709188
    111          7           0        3.966642   -2.166284   -0.743472
    112          6           0        4.914315   -3.205632   -0.868899
    113          6           0        4.215519   -4.362292   -1.465773
    114          6           0        2.904975   -3.904417   -1.669069
    115          6           0        2.799884   -2.551036   -1.248567
    116          6           0        4.808134   -5.614902   -1.791169
    117          6           0        1.589267   -4.254873   -2.153602
    118          8           0        1.057079   -5.290818   -2.550279
    119          6           0        0.724148   -2.926766   -2.272382
    120          6           0       -0.615042   -3.186540   -1.638666
    121          8           0       -0.704640   -3.406324   -0.417901
    122          8           0       -1.584720   -2.918934   -2.532259
    123          6           0       -2.931984   -3.151035   -1.946755
    124          1           0        2.365037    3.728347   -1.183373
    125          1           0        7.800452    1.907989    1.297352
    126          1           0        6.744830   -3.991050   -0.579267
    127          1           0       -0.330203   -0.038464   -2.892472
    128          1           0        0.169092    2.537431   -1.866540
    129          1           0        1.256263    1.045909   -4.218887
    130          1           0        2.358124    2.257187   -3.531141
    131          1           0        0.802635    2.787606   -4.095731
    132          1           0       -0.638296    1.128693   -0.116039
    133          1           0       -0.989873   -0.622586   -0.349709
    134          1           0       -2.421441    0.836964   -2.331581
    135          1           0       -2.404348    1.868766   -0.945954
    136          1           0        2.826423    5.351144    0.079310
    137          1           0        4.379087    6.050600    0.394249
    138          1           0        3.368888    5.608977    1.791116
    139          1           0        5.947756    6.264679    1.965503
    140          1           0        6.927143    5.922477    3.505118
    141          1           0        5.203736    5.478777    3.342569
    142          1           0        8.958934   -0.332996    1.665561
    143          1           0        8.883563   -2.357287   -0.514653
    144          1           0       10.603209    0.408512    0.296010
    145          1           0        9.319192    0.831014   -0.890934
    146          1           0       10.077306   -0.676105   -0.988523
    147          1           0        9.797653   -2.797639    1.796694
    148          1           0        8.729096   -4.040447    1.173328
    149          1           0        8.381242   -1.977911    3.224436
    150          1           0        7.913793   -3.714686    3.324132
    151          1           0        6.892095   -2.500860    2.431334
    152          1           0        4.116370   -6.380485   -1.465817
    153          1           0        5.780847   -5.729566   -1.317411
    154          1           0        4.889466   -5.516011   -2.876929
    155          1           0        0.635720   -2.687135   -3.332735
    156          1           0       -3.449229   -3.856018   -2.604894
    157          1           0       -3.383348   -2.147978   -1.828891
    158          1           0       -2.983075   -3.671401   -0.997517
 ---------------------------------------------------------------------

 SCF Done:  E(RCAM-B3LYP) =  -4068.60127068     A.U. after   24 cycles

 Excitation energies and oscillator strengths:

 Excited State   1:      Singlet-A      0.5330 eV 2326.13 nm  f=0.0382  <S**2>=0.000
     312 -> 313        0.68023
     312 -> 315        0.15686
 This state for optimization and/or second-order correction.
 Total Energy, E(TD-HF/TD-DFT) =  -4068.58168307
 Copying the excited state density for this state as the 1-particle RhoCI density.

 Excited State   2:      Singlet-A      1.5853 eV  782.09 nm  f=0.0268  <S**2>=0.000
     304 -> 313       -0.10279
     308 -> 313       -0.18138
     310 -> 313        0.64201
     311 -> 313        0.10606

 Excited State   3:      Singlet-A      1.6525 eV  750.28 nm  f=0.2919  <S**2>=0.000
     309 -> 316        0.16060
     311 -> 313       -0.11685
     311 -> 314        0.67266

 Excited State   4:      Singlet-A      1.6738 eV  740.73 nm  f=0.0007  <S**2>=0.000
     312 -> 314        0.70462

 Excited State   5:      Singlet-A      1.9536 eV  634.66 nm  f=0.0108  <S**2>=0.000
     310 -> 313       -0.12593
     311 -> 313        0.67996
     311 -> 314        0.11154

 The electronic state is 1-A.
 Alpha  occ. eigenvalues --  -46.89636 -46.87176 -19.27915 -19.25205 -19.19313
 Alpha  occ. eigenvalues --  -19.19276 -19.18394 -19.17779 -19.17632 -19.15035
 Alpha  occ. eigenvalues --  -14.44072 -14.42900 -14.41852 -14.41074 -14.40936
 Alpha  occ. eigenvalues --  -14.39632 -14.38899 -14.38160 -10.39277 -10.37802
 Alpha  occ. eigenvalues --  -10.35901 -10.35078 -10.34218 -10.33975 -10.32723
 Alpha  occ. eigenvalues --  -10.31997 -10.31932 -10.31779 -10.31399 -10.31132
 Alpha  occ. eigenvalues --  -10.30946 -10.30806 -10.30729 -10.30439 -10.30381
 Alpha  occ. eigenvalues --  -10.29967 -10.29897 -10.29894 -10.29743 -10.29540
 Alpha  occ. eigenvalues --  -10.29482 -10.29322 -10.29027 -10.28978 -10.28873
 Alpha  occ. eigenvalues --  -10.28654 -10.28454 -10.28206 -10.28165 -10.28062
 Alpha  occ. eigenvalues --  -10.28016 -10.27996 -10.27926 -10.27618 -10.27378
 Alpha  occ. eigenvalues --  -10.27368 -10.27212 -10.27189 -10.27186 -10.27123
 Alpha  occ. eigenvalues --  -10.27098 -10.27065 -10.27059 -10.27047 -10.26789
 Alpha  occ. eigenvalues --  -10.26674 -10.26434 -10.26411 -10.26288 -10.26228
 Alpha  occ. eigenvalues --  -10.26181 -10.26084 -10.25865 -10.25841 -10.25787
 Alpha  occ. eigenvalues --  -10.25529 -10.25512 -10.25273 -10.25241 -10.25114
 Alpha  occ. eigenvalues --  -10.24696 -10.24649 -10.24502 -10.24432 -10.24277
 Alpha  occ. eigenvalues --  -10.19726  -3.22618  -3.15926  -1.99308  -1.96048
 Alpha  occ. eigenvalues --   -1.95717  -1.90809  -1.90395  -1.90235  -1.20296
 Alpha  occ. eigenvalues --   -1.16259  -1.15498  -1.08434  -1.07716  -1.07135
 Alpha  occ. eigenvalues --   -1.06652  -1.06604  -1.06283  -1.05208  -1.04600
 Alpha  occ. eigenvalues --   -1.03979  -1.03919  -1.03229  -1.03159  -1.02617
 Alpha  occ. eigenvalues --   -1.01672  -0.95044  -0.91655  -0.91395  -0.90558
 Alpha  occ. eigenvalues --   -0.89659  -0.89132  -0.89104  -0.88386  -0.88285
 Alpha  occ. eigenvalues --   -0.87855  -0.87485  -0.87383  -0.87087  -0.86750
 Alpha  occ. eigenvalues --   -0.85655  -0.85196  -0.84480  -0.83733  -0.83507
 Alpha  occ. eigenvalues --   -0.83058  -0.82633  -0.82567  -0.82164  -0.80979
 Alpha  occ. eigenvalues --   -0.80690  -0.79833  -0.78942  -0.78282  -0.78164
 Alpha  occ. eigenvalues --   -0.77649  -0.77124  -0.76525  -0.76148  -0.75308
 Alpha  occ. eigenvalues --   -0.74896  -0.74577  -0.73510  -0.72325  -0.71982
 Alpha  occ. eigenvalues --   -0.70917  -0.70633  -0.70093  -0.69581  -0.69414
 Alpha  occ. eigenvalues --   -0.68710  -0.67996  -0.67383  -0.67119  -0.66589
 Alpha  occ. eigenvalues --   -0.66081  -0.65599  -0.65193  -0.64778  -0.64562
 Alpha  occ. eigenvalues --   -0.64244  -0.63858  -0.63447  -0.62689  -0.62331
 Alpha  occ. eigenvalues --   -0.61796  -0.60784  -0.59969  -0.59792  -0.59419
 Alpha  occ. eigenvalues --   -0.58793  -0.58734  -0.58168  -0.57931  -0.57838
 Alpha  occ. eigenvalues --   -0.57493  -0.57177  -0.56966  -0.56796  -0.56423
 Alpha  occ. eigenvalues --   -0.55955  -0.55765  -0.55668  -0.55187  -0.55004
 Alpha  occ. eigenvalues --   -0.54763  -0.54298  -0.54100  -0.53900  -0.53640
 Alpha  occ. eigenvalues --   -0.53478  -0.53348  -0.53232  -0.53079  -0.52956
 Alpha  occ. eigenvalues --   -0.52827  -0.52600  -0.52521  -0.52109  -0.52070
 Alpha  occ. eigenvalues --   -0.51772  -0.51484  -0.51383  -0.51228  -0.50979
 Alpha  occ. eigenvalues --   -0.50521  -0.50364  -0.50299  -0.50142  -0.49900
 Alpha  occ. eigenvalues --   -0.49766  -0.49549  -0.49456  -0.49324  -0.49207
 Alpha  occ. eigenvalues --   -0.48975  -0.48867  -0.48770  -0.48586  -0.48455
 Alpha  occ. eigenvalues --   -0.48179  -0.48001  -0.47806  -0.47712  -0.47572
 Alpha  occ. eigenvalues --   -0.47521  -0.47147  -0.46826  -0.46740  -0.46439
 Alpha  occ. eigenvalues --   -0.46402  -0.46008  -0.45947  -0.45830  -0.45704
 Alpha  occ. eigenvalues --   -0.45463  -0.45178  -0.45111  -0.44820  -0.44668
 Alpha  occ. eigenvalues --   -0.44540  -0.44371  -0.44181  -0.44033  -0.43867
 Alpha  occ. eigenvalues --   -0.43784  -0.43729  -0.43534  -0.43341  -0.43247
 Alpha  occ. eigenvalues --   -0.43128  -0.42898  -0.42860  -0.42720  -0.42357
 Alpha  occ. eigenvalues --   -0.42152  -0.41993  -0.41820  -0.41746  -0.41510
 Alpha  occ. eigenvalues --   -0.41393  -0.41353  -0.41255  -0.40914  -0.40726
 Alpha  occ. eigenvalues --   -0.40490  -0.40265  -0.40204  -0.39959  -0.39919
 Alpha  occ. eigenvalues --   -0.39681  -0.39634  -0.39201  -0.39045  -0.38816
 Alpha  occ. eigenvalues --   -0.38540  -0.37968  -0.37727  -0.37325  -0.36912
 Alpha  occ. eigenvalues --   -0.36764  -0.36443  -0.36020  -0.35635  -0.35265
 Alpha  occ. eigenvalues --   -0.35201  -0.33963  -0.33762  -0.33303  -0.32709
 Alpha  occ. eigenvalues --   -0.32575  -0.32095  -0.31808  -0.30955  -0.30587
 Alpha  occ. eigenvalues --   -0.30263  -0.29696  -0.29608  -0.29206  -0.28931
 Alpha  occ. eigenvalues --   -0.28805  -0.28117  -0.25137  -0.23598  -0.23422
 Alpha  occ. eigenvalues --   -0.20622  -0.18484
 Alpha virt. eigenvalues --   -0.09361  -0.08367  -0.02007  -0.01231  -0.00899
 Alpha virt. eigenvalues --    0.00379   0.01070   0.02560   0.03295   0.03732
 Alpha virt. eigenvalues --    0.04427   0.05349   0.05508   0.06138   0.06525

 Mulliken charges:
               1
     1  Mg   0.838762
     2  C   -0.026488
     3  C   -0.138880
     4  C   -0.005588
     5  C    0.013930
     6  N   -0.291305
     7  C   -0.028981
     8  C   -0.018387
     9  C   -0.085828
    10  C    0.079794
    11  C    0.106256
    12  C    0.054135
    13  C   -0.071698
    14  H    0.038647
    15  N   -0.432559
    16  C    0.182254
    17  C   -0.192800
    18  C    0.005095
    19  C    0.135352
    20  C    0.112821
    21  C    0.006392
    22  O   -0.251862
    23  C    0.063716
    24  N   -0.288084
    25  C   -0.004954
    26  C   -0.009045
    27  C    0.003721
    28  C    0.018865
    29  C    0.082808
    30  C    0.074091
    31  C   -0.038018
    32  N   -0.277325
    33  C    0.519345
    34  C   -0.391947
    35  C   -0.097040
    36  C    0.133607
    37  C    0.401480
    38  C    0.032280
    39  O   -0.220121
    40  C   -0.006290
    41  C    0.207157
    42  O   -0.245109
    43  O   -0.308751
    44  C    0.158886
    45  H   -0.027535
    46  H   -0.011545
    47  H   -0.054628
    48  H    0.004051
    49  H   -0.001882
    50  H    0.025113
    51  H    0.017663
    52  H    0.017246
    53  H    0.011933
    54  H    0.052752
    55  H    0.017239
    56  H    0.016861
    57  H    0.008081
    58  H    0.024519
    59  H    0.036494
    60  H    0.039915
    61  H    0.034754
    62  H    0.031393
    63  H    0.006985
    64  H    0.002531
    65  H    0.022087
    66  H    0.011985
    67  H    0.003730
    68  H    0.003988
    69  H   -0.002671
    70  H    0.011526
    71  H    0.020838
    72  H    0.056337
    73  H    0.078529
    74  H    0.027136
    75  H    0.015246
    76  H    0.027908
    77  H    0.040300
    78  H    0.042186
    79  H    0.055160
    80  Mg   0.838079
    81  C   -0.016205
    82  C   -0.089453
    83  C   -0.046326
    84  C   -0.065830
    85  N   -0.258947
    86  C   -0.034346
    87  C   -0.020206
    88  C   -0.098150
    89  C    0.052892
    90  C    0.123064
    91  C    0.238349
    92  C   -0.421619
    93  H   -0.094269
    94  N   -0.423186
    95  C    0.163009
    96  C   -0.175063
    97  C   -0.008704
    98  C    0.152102
    99  C    0.098576
   100  C    0.014821
   101  O   -0.254199
   102  C    0.061713
   103  N   -0.350060
   104  C    0.037179
   105  C   -0.019508
   106  C   -0.034637
   107  C    0.088873
   108  C    0.074083
   109  C    0.035012
   110  C   -0.007565
   111  N   -0.323964
   112  C    0.078796
   113  C   -0.162657
   114  C    0.002381
   115  C    0.097257
   116  C    0.131019
   117  C    0.047664
   118  O   -0.188448
   119  C    0.005409
   120  C    0.248388
   121  O   -0.219616
   122  O   -0.276100
   123  C    0.404087
   124  H   -0.016811
   125  H   -0.016823
   126  H   -0.041561
   127  H   -0.030309
   128  H    0.009407
   129  H    0.019423
   130  H    0.008390
   131  H    0.018489
   132  H    0.018150
   133  H    0.048618
   134  H    0.001237
   135  H    0.127766
   136  H    0.011548
   137  H    0.025505
   138  H    0.035947
   139  H    0.038010
   140  H    0.035132
   141  H    0.032538
   142  H    0.013597
   143  H    0.011467
   144  H    0.024165
   145  H    0.011422
   146  H    0.004827
   147  H    0.005222
   148  H    0.003230
   149  H    0.010219
   150  H    0.017335
   151  H    0.031273
   152  H    0.046980
   153  H    0.008073
   154  H    0.045157
   155  H    0.031422
   156  H   -0.064140
   157  H   -0.482773
   158  H    0.049618
 Sum of Mulliken charges =  -0.00000

 Dipole moment (field-independent basis, Debye):
    X=             -3.1363    Y=              5.7973    Z=             -0.6751  Tot=              6.6258
 Quadrupole moment (field-independent basis, Debye-Ang):
   XX=           -496.4068   YY=           -542.2078   ZZ=           -470.1780
   XY=            -29.8130   XZ=             -4.9000   YZ=             14.7548

 Normal termination of Gaussian 16 at Thu Sep  9 00:04:17 2021.
