 Gaussian 16, Revision A.03,
 Gaussian 16:  ES64L-G16RevA.03 25-Dec-2016

 -----------------------------------
 #p cam-b3lyp/Def2SVP td=(nstates=5)
 -----------------------------------

 --------------------------------
 TDDFT excited states in gaussian
 --------------------------------
 Symbolic Z-matrix:
 Charge =  0 Multiplicity = 1

                         Standard orientation:
 ---------------------------------------------------------------------
 Center     Atomic      Atomic             Coordinates (Angstroms)
 Number     Number       Type             X           Y           Z
 ---------------------------------------------------------------------
      1         12           0        4.062369   -1.735789   -0.026660
      2          6           0        5.597771    1.421622   -0.723446
      3          6           0        5.249955   -1.442226    3.158702
      4          6           0        3.110396   -4.716816    0.486996
      5          6           0        3.989252   -2.292584   -3.466179
      6          7           0        5.257672   -0.162122    0.971073
      7          6           0        5.731429    1.026105    0.609351
      8          6           0        6.317253    1.845552    1.797918
      9          6           0        6.660224    0.643501    2.787586
     10          6           0        5.638799   -0.369849    2.302058
     11          6           0        8.058026    0.067577    2.585191
     12          6           0        5.264144    2.820515    2.424129
     13          6           0        5.836899    3.883490    3.366142
     14          1           0        5.229369    5.205610    3.382107
     15          7           0        3.733260   -2.702178    1.664680
     16          6           0        4.289837   -2.436297    2.870837
     17          6           0        3.726748   -3.432009    3.807943
     18          6           0        2.943794   -4.416019    3.009946
     19          6           0        3.256816   -3.993958    1.668581
     20          6           0        3.911618   -3.361148    5.292717
     21          6           0        2.062962   -5.562322    3.394988
     22          8           0        1.665474   -6.430242    2.544522
     23          6           0        1.745757   -5.694417    4.828506
     24          7           0        3.811800   -3.383078   -1.284153
     25          6           0        3.331113   -4.540700   -0.817425
     26          6           0        2.973573   -5.474047   -1.935891
     27          6           0        3.083433   -4.617238   -3.278859
     28          6           0        3.592895   -3.287767   -2.669575
     29          6           0        3.843080   -6.732742   -2.061017
     30          6           0        1.832767   -4.578424   -4.192503
     31          6           0        0.715603   -3.828905   -3.501661
     32          7           0        4.510628   -0.582748   -1.810085
     33          6           0        4.430746   -1.021202   -3.139766
     34          6           0        4.935811    0.074712   -3.987086
     35          6           0        5.292218    1.074783   -3.084491
     36          6           0        5.051137    0.621667   -1.756012
     37          6           0        5.072146    0.038453   -5.402901
     38          6           0        5.843649    2.411400   -2.932065
     39          8           0        6.147389    3.317931   -3.708877
     40          6           0        6.177419    2.643145   -1.392351
     41          6           0        5.623238    3.986905   -1.004403
     42          8           0        4.391951    4.188895   -0.982091
     43          8           0        6.607630    4.743732   -0.495751
     44          6           0        6.118957    6.080330   -0.063481
     45          1           0        5.766762   -1.570386    4.111816
     46          1           0        2.679287   -5.712245    0.612313
     47          1           0        3.917577   -2.362038   -4.553144
     48          1           0        7.223459    2.403791    1.562156
     49          1           0        6.468913    0.905705    3.827957
     50          1           0        8.541131    0.493904    1.706115
     51          1           0        7.915021   -1.005685    2.458102
     52          1           0        8.659649    0.185000    3.486878
     53          1           0        4.636886    2.269932    3.125176
     54          1           0        4.678100    3.308011    1.644241
     55          1           0        6.919920    3.961962    3.267073
     56          1           0        5.682220    3.549604    4.392200
     57          1           0        4.668267   -2.627315    5.567520
     58          1           0        4.332464   -4.316007    5.607106
     59          1           0        2.971521   -3.183841    5.815318
     60          1           0        2.671764   -5.803689    5.393413
     61          1           0        1.033867   -6.515564    4.904533
     62          1           0        1.282945   -4.769694    5.174396
     63          1           0        1.953485   -5.840515   -1.828430
     64          1           0        3.878217   -4.979567   -3.931323
     65          1           0        3.275727   -7.662818   -2.018907
     66          1           0        4.598671   -6.699720   -1.276617
     67          1           0        4.462256   -6.773367   -2.956778
     68          1           0        1.471295   -5.588265   -4.383570
     69          1           0        2.018568   -4.104730   -5.156528
     70          1           0        0.265032   -4.592641   -2.868791
     71          1           0       -0.001402   -3.455494   -4.233562
     72          1           0        1.104906   -3.050124   -2.845590
     73          1           0        4.707293    0.997993   -5.769146
     74          1           0        4.509937   -0.789727   -5.833761
     75          1           0        6.149735   -0.093780   -5.498676
     76          1           0        7.262158    2.604797   -1.297525
     77          1           0        6.721546    6.825717   -0.582633
     78          1           0        6.141804    6.081015    1.026419
     79          1           0        5.117755    6.357887   -0.394987
     80         12           0       -4.222200    1.777641    0.256536
     81          6           0       -5.435892   -1.583066   -0.077555
     82          6           0       -3.433654    1.663665   -3.060064
     83          6           0       -2.738887    4.559457    0.615352
     84          6           0       -4.045791    1.224561    3.692916
     85          7           0       -4.453962    0.189806   -1.265734
     86          6           0       -4.984741   -1.023443   -1.291107
     87          6           0       -5.108315   -1.641886   -2.709492
     88          6           0       -3.951466   -0.801133   -3.440040
     89          6           0       -3.964253    0.447489   -2.560576
     90          6           0       -2.579761   -1.446412   -3.333422
     91          6           0       -6.511216   -1.372825   -3.358729
     92          6           0       -6.812328   -2.204990   -4.607169
     93          1           0       -8.184704   -2.650256   -4.832513
     94          7           0       -3.679398    3.127174   -1.093541
     95          6           0       -3.422063    2.912508   -2.400819
     96          6           0       -3.043576    4.220980   -2.956508
     97          6           0       -2.938872    5.194154   -1.835485
     98          6           0       -3.098162    4.307129   -0.700628
     99          6           0       -2.897376    4.467770   -4.429988
    100          6           0       -2.717562    6.675810   -1.791638
    101          8           0       -2.423575    7.280707   -0.700539
    102          6           0       -2.763154    7.383865   -3.079293
    103          7           0       -3.297077    2.682687    1.883618
    104          6           0       -2.776536    3.918392    1.783658
    105          6           0       -2.414295    4.469252    3.142230
    106          6           0       -3.025882    3.438300    4.200857
    107          6           0       -3.583215    2.376694    3.227310
    108          6           0       -0.920198    4.647813    3.410878
    109          6           0       -3.976492    4.020979    5.282288
    110          6           0       -5.253938    4.508937    4.637759
    111          7           0       -4.824441    0.206651    1.612018
    112          6           0       -4.631996    0.166316    3.010375
    113          6           0       -5.105591   -1.152870    3.477157
    114          6           0       -5.522709   -1.802422    2.305582
    115          6           0       -5.304422   -0.956034    1.185101
    116          6           0       -5.067547   -1.622905    4.820200
    117          6           0       -6.088186   -3.015693    1.760686
    118          8           0       -6.555061   -4.048146    2.240054
    119          6           0       -5.939912   -2.976248    0.178651
    120          6           0       -7.263441   -3.363962   -0.421730
    121          8           0       -8.262760   -2.639397   -0.270161
    122          8           0       -7.081864   -4.406506   -1.252695
    123          6           0       -8.364571   -4.820666   -1.881170
    124          1           0       -2.940903    1.654053   -4.032682
    125          1           0       -2.324196    5.551431    0.808985
    126          1           0       -4.115136    1.012610    4.762001
    127          1           0       -4.888718   -2.701417   -2.763788
    128          1           0       -4.229215   -0.551431   -4.460751
    129          1           0       -2.588845   -2.306700   -2.680763
    130          1           0       -1.924043   -0.680406   -2.940604
    131          1           0       -2.198275   -1.687828   -4.329678
    132          1           0       -6.515526   -0.366912   -3.797898
    133          1           0       -7.295641   -1.504259   -2.638992
    134          1           0       -6.112845   -3.041750   -4.723369
    135          1           0       -6.636255   -1.584047   -5.488894
    136          1           0       -2.872560    3.527670   -4.994781
    137          1           0       -1.904331    4.903596   -4.584229
    138          1           0       -3.650091    5.157181   -4.818317
    139          1           0       -2.012085    6.968177   -3.746790
    140          1           0       -2.671990    8.443633   -2.833430
    141          1           0       -3.736759    7.198105   -3.546418
    142          1           0       -2.865050    5.441701    3.297971
    143          1           0       -2.239093    2.943236    4.788819
    144          1           0       -0.646935    5.684082    3.685745
    145          1           0       -0.375067    4.331314    2.531555
    146          1           0       -0.509163    3.999863    4.183164
    147          1           0       -3.518436    4.890247    5.760518
    148          1           0       -4.222516    3.313845    6.067421
    149          1           0       -4.985171    5.508425    4.282956
    150          1           0       -6.059156    4.552739    5.368341
    151          1           0       -5.507340    3.904352    3.759177
    152          1           0       -6.017201   -2.106011    5.007992
    153          1           0       -4.888663   -0.810081    5.520968
    154          1           0       -4.218702   -2.309496    4.762568
    155          1           0       -5.146842   -3.673769   -0.093542
    156          1           0       -8.499638   -5.884081   -1.660762
    157          1           0       -8.281783   -4.533552   -2.946279
    158          1           0       -9.278918   -4.402962   -1.476277
 ---------------------------------------------------------------------

 SCF Done:  E(RCAM-B3LYP) =  -4069.81170971     A.U. after   19 cycles

 Excitation energies and oscillator strengths:

 Excited State   1:      Singlet-A      1.6490 eV  751.87 nm  f=0.0183  <S**2>=0.000
     309 -> 315        0.11401
     310 -> 316        0.12247
     311 -> 313        0.46735
     312 -> 314        0.50431
 This state for optimization and/or second-order correction.
 Total Energy, E(TD-HF/TD-DFT) =  -4069.75110966
 Copying the excited state density for this state as the 1-particle RhoCI density.

 Excited State   2:      Singlet-A      1.7045 eV  727.39 nm  f=0.6768  <S**2>=0.000
     309 -> 315        0.13337
     310 -> 316       -0.12337
     311 -> 313        0.50179
     312 -> 314       -0.46511

 Excited State   3:      Singlet-A      2.1833 eV  567.87 nm  f=0.0131  <S**2>=0.000
     309 -> 313        0.35249
     310 -> 314        0.54000
     311 -> 315       -0.14656
     312 -> 316       -0.22568

 Excited State   4:      Singlet-A      2.1969 eV  564.36 nm  f=0.1628  <S**2>=0.000
     309 -> 313        0.53537
     310 -> 314       -0.34820
     311 -> 315       -0.23615
     312 -> 316        0.15458

 Excited State   5:      Singlet-A      2.3503 eV  527.53 nm  f=0.0000  <S**2>=0.000
     312 -> 313        0.70707

 The electronic state is 1-A.
 Alpha  occ. eigenvalues --  -46.87899 -46.87442 -19.26315 -19.26192 -19.19059
 Alpha  occ. eigenvalues --  -19.18994 -19.18844 -19.18434 -19.18269 -19.17837
 Alpha  occ. eigenvalues --  -14.42548 -14.42283 -14.41561 -14.41149 -14.39497
 Alpha  occ. eigenvalues --  -14.39118 -14.38695 -14.38386 -10.39123 -10.38920
 Alpha  occ. eigenvalues --  -10.35473 -10.35106 -10.34488 -10.34018 -10.31680
 Alpha  occ. eigenvalues --  -10.31624 -10.31513 -10.31113 -10.30988 -10.30789
 Alpha  occ. eigenvalues --  -10.30683 -10.30613 -10.30318 -10.30179 -10.30152
 Alpha  occ. eigenvalues --  -10.30042 -10.29921 -10.29732 -10.29698 -10.29351
 Alpha  occ. eigenvalues --  -10.29196 -10.29176 -10.28822 -10.28588 -10.28535
 Alpha  occ. eigenvalues --  -10.28530 -10.28455 -10.28199 -10.28169 -10.27958
 Alpha  occ. eigenvalues --  -10.27896 -10.27828 -10.27771 -10.27674 -10.27666
 Alpha  occ. eigenvalues --  -10.27585 -10.27551 -10.27497 -10.27445 -10.27374
 Alpha  occ. eigenvalues --  -10.27265 -10.27236 -10.27221 -10.27208 -10.27145
 Alpha  occ. eigenvalues --  -10.26842 -10.26769 -10.26533 -10.26433 -10.26391
 Alpha  occ. eigenvalues --  -10.26310 -10.26147 -10.26099 -10.26038 -10.26017
 Alpha  occ. eigenvalues --  -10.25845 -10.25741 -10.25726 -10.25542 -10.25213
 Alpha  occ. eigenvalues --  -10.25012 -10.24937 -10.24887 -10.24650 -10.24626
 Alpha  occ. eigenvalues --  -10.24461  -3.16641  -3.16192  -1.91523  -1.91110
 Alpha  occ. eigenvalues --   -1.91074  -1.90952  -1.90663  -1.90499  -1.16666
 Alpha  occ. eigenvalues --   -1.16483  -1.08726  -1.08450  -1.07239  -1.06778
 Alpha  occ. eigenvalues --   -1.06683  -1.06680  -1.04677  -1.04278  -1.03867
 Alpha  occ. eigenvalues --   -1.03444  -1.03338  -1.02823  -1.02516  -1.01893
 Alpha  occ. eigenvalues --   -0.92067  -0.91773  -0.89670  -0.89311  -0.89271
 Alpha  occ. eigenvalues --   -0.88968  -0.88427  -0.88043  -0.87996  -0.87773
 Alpha  occ. eigenvalues --   -0.87605  -0.87477  -0.87344  -0.86847  -0.85065
 Alpha  occ. eigenvalues --   -0.84807  -0.84096  -0.83709  -0.83035  -0.82720
 Alpha  occ. eigenvalues --   -0.82681  -0.82436  -0.81661  -0.81414  -0.80677
 Alpha  occ. eigenvalues --   -0.80238  -0.78888  -0.78396  -0.77338  -0.77027
 Alpha  occ. eigenvalues --   -0.76949  -0.76723  -0.76006  -0.75644  -0.75017
 Alpha  occ. eigenvalues --   -0.74616  -0.72889  -0.72495  -0.71769  -0.71381
 Alpha  occ. eigenvalues --   -0.70098  -0.69608  -0.68957  -0.68630  -0.67730
 Alpha  occ. eigenvalues --   -0.67390  -0.67285  -0.66992  -0.65376  -0.65083
 Alpha  occ. eigenvalues --   -0.64954  -0.64719  -0.64573  -0.64465  -0.64402
 Alpha  occ. eigenvalues --   -0.64024  -0.62369  -0.62099  -0.60529  -0.60098
 Alpha  occ. eigenvalues --   -0.59893  -0.59601  -0.59092  -0.58789  -0.58604
 Alpha  occ. eigenvalues --   -0.58221  -0.57668  -0.57411  -0.57361  -0.57030
 Alpha  occ. eigenvalues --   -0.56408  -0.56033  -0.55997  -0.55704  -0.55598
 Alpha  occ. eigenvalues --   -0.55464  -0.55228  -0.55077  -0.54634  -0.54322
 Alpha  occ. eigenvalues --   -0.53974  -0.53737  -0.53397  -0.53286  -0.53033
 Alpha  occ. eigenvalues --   -0.53002  -0.52926  -0.52820  -0.52718  -0.52622
 Alpha  occ. eigenvalues --   -0.52398  -0.52261  -0.52056  -0.51726  -0.51685
 Alpha  occ. eigenvalues --   -0.51448  -0.51309  -0.51012  -0.50629  -0.50208
 Alpha  occ. eigenvalues --   -0.50179  -0.49984  -0.49764  -0.49667  -0.49582
 Alpha  occ. eigenvalues --   -0.49302  -0.49261  -0.49180  -0.48986  -0.48915
 Alpha  occ. eigenvalues --   -0.48684  -0.48571  -0.48497  -0.48369  -0.48195
 Alpha  occ. eigenvalues --   -0.48084  -0.47785  -0.47385  -0.47380  -0.46923
 Alpha  occ. eigenvalues --   -0.46889  -0.46631  -0.46528  -0.46467  -0.46365
 Alpha  occ. eigenvalues --   -0.46271  -0.46059  -0.45924  -0.45902  -0.45654
 Alpha  occ. eigenvalues --   -0.45327  -0.45008  -0.44685  -0.44591  -0.44332
 Alpha  occ. eigenvalues --   -0.44289  -0.44268  -0.44170  -0.44089  -0.43933
 Alpha  occ. eigenvalues --   -0.43876  -0.43702  -0.43581  -0.43484  -0.43384
 Alpha  occ. eigenvalues --   -0.43210  -0.43124  -0.42845  -0.42749  -0.42731
 Alpha  occ. eigenvalues --   -0.42696  -0.42362  -0.42145  -0.41806  -0.41796
 Alpha  occ. eigenvalues --   -0.41620  -0.41467  -0.41275  -0.41235  -0.40986
 Alpha  occ. eigenvalues --   -0.40864  -0.40791  -0.40700  -0.40537  -0.40460
 Alpha  occ. eigenvalues --   -0.40321  -0.40298  -0.40032  -0.39642  -0.39280
 Alpha  occ. eigenvalues --   -0.38601  -0.38178  -0.37825  -0.37480  -0.37449
 Alpha  occ. eigenvalues --   -0.37345  -0.37081  -0.36995  -0.36787  -0.36605
 Alpha  occ. eigenvalues --   -0.36283  -0.36034  -0.34391  -0.34044  -0.33820
 Alpha  occ. eigenvalues --   -0.33684  -0.33286  -0.32959  -0.31377  -0.31129
 Alpha  occ. eigenvalues --   -0.30999  -0.30751  -0.30129  -0.29747  -0.29538
 Alpha  occ. eigenvalues --   -0.29426  -0.29080  -0.28985  -0.24183  -0.23818
 Alpha  occ. eigenvalues --   -0.21234  -0.20896
 Alpha virt. eigenvalues --   -0.08871  -0.08560  -0.01849  -0.01462  -0.00126
 Alpha virt. eigenvalues --    0.00224   0.02094   0.02409   0.02844   0.03489
 Alpha virt. eigenvalues --    0.04625   0.04919   0.05046   0.05342   0.06111

 Mulliken charges:
               1
     1  Mg   0.838858
     2  C   -0.002487
     3  C   -0.094139
     4  C   -0.045762
     5  C   -0.064840
     6  N   -0.256745
     7  C   -0.052535
     8  C   -0.013966
     9  C   -0.087043
    10  C    0.046491
    11  C    0.104759
    12  C    0.053462
    13  C   -0.072168
    14  H    0.037042
    15  N   -0.433332
    16  C    0.168773
    17  C   -0.176930
    18  C   -0.003395
    19  C    0.149073
    20  C    0.110185
    21  C    0.013074
    22  O   -0.248543
    23  C    0.062211
    24  N   -0.341023
    25  C    0.041120
    26  C   -0.028616
    27  C   -0.023689
    28  C    0.074354
    29  C    0.076013
    30  C    0.036650
    31  C   -0.009118
    32  N   -0.310247
    33  C    0.079815
    34  C   -0.171163
    35  C    0.008203
    36  C    0.082651
    37  C    0.127632
    38  C    0.045697
    39  O   -0.188878
    40  C   -0.005116
    41  C    0.212499
    42  O   -0.256515
    43  O   -0.304987
    44  C    0.157279
    45  H   -0.017251
    46  H   -0.016248
    47  H   -0.042608
    48  H    0.001138
    49  H   -0.003970
    50  H    0.025599
    51  H    0.016470
    52  H    0.016922
    53  H    0.010570
    54  H    0.044736
    55  H    0.018009
    56  H    0.017573
    57  H    0.005831
    58  H    0.027390
    59  H    0.039773
    60  H    0.037102
    61  H    0.037492
    62  H    0.031470
    63  H    0.016817
    64  H    0.009675
    65  H    0.023789
    66  H    0.012996
    67  H    0.004741
    68  H    0.006508
    69  H    0.003175
    70  H    0.010005
    71  H    0.016471
    72  H    0.030252
    73  H    0.046200
    74  H    0.007981
    75  H    0.046411
    76  H    0.035259
    77  H    0.042908
    78  H    0.046525
    79  H    0.054927
    80  Mg   0.837678
    81  C   -0.016665
    82  C   -0.086947
    83  C   -0.042940
    84  C   -0.065709
    85  N   -0.254498
    86  C   -0.050293
    87  C   -0.014939
    88  C   -0.091057
    89  C    0.045450
    90  C    0.110068
    91  C    0.062762
    92  C   -0.077536
    93  H    0.034367
    94  N   -0.424154
    95  C    0.163222
    96  C   -0.171596
    97  C   -0.005949
    98  C    0.152698
    99  C    0.098073
   100  C    0.017326
   101  O   -0.253173
   102  C    0.060734
   103  N   -0.349944
   104  C    0.037689
   105  C   -0.019999
   106  C   -0.034153
   107  C    0.088569
   108  C    0.072938
   109  C    0.034973
   110  C   -0.007495
   111  N   -0.323884
   112  C    0.078010
   113  C   -0.164118
   114  C    0.002316
   115  C    0.095607
   116  C    0.131518
   117  C    0.042327
   118  O   -0.188584
   119  C    0.000820
   120  C    0.211057
   121  O   -0.251373
   122  O   -0.305501
   123  C    0.152205
   124  H   -0.018642
   125  H   -0.014975
   126  H   -0.042110
   127  H   -0.001047
   128  H   -0.005007
   129  H    0.024685
   130  H    0.016428
   131  H    0.017921
   132  H    0.013905
   133  H    0.037545
   134  H    0.020163
   135  H    0.019356
   136  H    0.008480
   137  H    0.030369
   138  H    0.039075
   139  H    0.040824
   140  H    0.035801
   141  H    0.032813
   142  H    0.013926
   143  H    0.010538
   144  H    0.023993
   145  H    0.016610
   146  H    0.003074
   147  H    0.005306
   148  H    0.002645
   149  H    0.010880
   150  H    0.017283
   151  H    0.030659
   152  H    0.045539
   153  H    0.007354
   154  H    0.045605
   155  H    0.035741
   156  H    0.043667
   157  H    0.049162
   158  H    0.053294
 Sum of Mulliken charges =  -0.00000

 Dipole moment (field-independent basis, Debye):
    X=              4.3087    Y=             -0.4736    Z=              0.2916  Tot=              4.3445
 Quadrupole moment (field-independent basis, Debye-Ang):
   XX=           -529.5477   YY=           -539.7043   ZZ=           -450.8876
   XY=            -21.3688   XZ=             55.1706   YZ=             31.9407

 Normal termination of Gaussian 16 at Fri Sep  3 20:04:20 2021.
