 Gaussian 16, Revision A.03,
 Gaussian 16:  ES64L-G16RevA.03 25-Dec-2016

 -----------------------------------
 #p cam-b3lyp/Def2SVP td=(nstates=5)
 -----------------------------------

 --------------------------------
 TDDFT excited states in gaussian
 --------------------------------
 Symbolic Z-matrix:
 Charge =  0 Multiplicity = 1

                         Standard orientation:
 ---------------------------------------------------------------------
 Center     Atomic      Atomic             Coordinates (Angstroms)
 Number     Number       Type             X           Y           Z
 ---------------------------------------------------------------------
      1         12           0        4.017707   -1.435721    0.543030
      2          6           0        4.953184    1.715955   -0.872608
      3          6           0        4.789234   -0.124435    3.597263
      4          6           0        3.634187   -4.337000    1.764552
      5          6           0        4.410858   -2.812578   -2.634290
      6          7           0        4.764969    0.555962    1.155764
      7          6           0        5.025833    1.695024    0.521999
      8          6           0        5.310640    2.886454    1.484678
      9          6           0        5.783905    2.066141    2.767295
     10          6           0        5.041338    0.766402    2.511959
     11          6           0        7.281940    1.779912    2.788836
     12          6           0        4.025093    3.728311    1.785305
     13          6           0        4.273714    5.087150    2.446438
     14          1           0        3.415447    6.206837    2.090026
     15          7           0        3.716940   -2.010729    2.408976
     16          6           0        4.082262   -1.344523    3.530580
     17          6           0        3.636775   -2.181672    4.665218
     18          6           0        3.152756   -3.477127    4.112392
     19          6           0        3.510904   -3.335062    2.724254
     20          6           0        3.650367   -1.713788    6.088120
     21          6           0        2.484465   -4.660345    4.738102
     22          8           0        2.358177   -5.774155    4.123243
     23          6           0        2.054739   -4.506974    6.139835
     24          7           0        4.232357   -3.352460   -0.255515
     25          6           0        3.947838   -4.438643    0.471285
     26          6           0        3.901072   -5.670536   -0.383227
     27          6           0        3.974399   -5.162698   -1.895337
     28          6           0        4.142142   -3.646694   -1.627260
     29          6           0        5.013106   -6.699228   -0.135871
     30          6           0        2.841767   -5.622496   -2.847257
     31          6           0        1.532305   -4.992050   -2.428992
     32          7           0        4.406653   -0.680516   -1.454326
     33          6           0        4.553030   -1.435039   -2.627333
     34          6           0        4.912708   -0.494167   -3.704115
     35          6           0        4.967164    0.748139   -3.075183
     36          6           0        4.686653    0.589409   -1.687951
     37          6           0        5.198086   -0.842055   -5.053918
     38          6           0        5.221249    2.169250   -3.247641
     39          8           0        5.415438    2.904054   -4.217098
     40          6           0        5.342080    2.835197   -1.806204
     41          6           0        4.493293    4.077321   -1.806801
     42          8           0        3.250839    4.003097   -1.897159
     43          8           0        5.248756    5.132146   -1.464512
     44          6           0        4.460683    6.392650   -1.417329
     45          1           0        5.220651    0.099296    4.574895
     46          1           0        3.400539   -5.341885    2.122395
     47          1           0        4.466459   -3.157727   -3.668327
     48          1           0        6.106060    3.555808    1.156507
     49          1           0        5.438254    2.524339    3.693741
     50          1           0        7.757522    2.075557    1.853775
     51          1           0        7.370493    0.703523    2.937287
     52          1           0        7.752114    2.241850    3.657356
     53          1           0        3.452195    3.240384    2.573834
     54          1           0        3.436504    3.870944    0.878363
     55          1           0        5.323434    5.375185    2.382940
     56          1           0        4.084554    4.986674    3.515233
     57          1           0        4.212522   -0.787471    6.199760
     58          1           0        4.219317   -2.447292    6.659064
     59          1           0        2.645246   -1.625958    6.500854
     60          1           0        2.920921   -4.269706    6.757881
     61          1           0        1.517676   -5.420825    6.391408
     62          1           0        1.383180   -3.650934    6.211615
     63          1           0        2.969465   -6.214838   -0.234000
     64          1           0        4.888295   -5.488795   -2.392456
     65          1           0        4.642161   -7.692485    0.118188
     66          1           0        5.662233   -6.311680    0.648814
     67          1           0        5.716460   -6.818966   -0.959506
     68          1           0        2.711322   -6.702478   -2.787517
     69          1           0        3.026898   -5.368023   -3.890914
     70          1           0        1.181232   -5.659115   -1.642478
     71          1           0        0.834027   -4.974342   -3.266431
     72          1           0        1.688408   -4.011440   -1.978969
     73          1           0        4.688078   -0.104412   -5.673388
     74          1           0        4.860287   -1.852676   -5.282259
     75          1           0        6.284355   -0.753511   -5.059929
     76          1           0        6.396964    3.060278   -1.652320
     77          1           0        4.951882    7.103369   -2.082036
     78          1           0        4.370972    6.662804   -0.365011
     79          1           0        3.463596    6.354515   -1.857444
     80         12           0       -4.784866    0.144022   -0.489606
     81          6           0       -2.062851    2.473250   -0.278990
     82          6           0       -6.384746    2.030585    1.858976
     83          6           0       -6.997602   -2.123614   -0.319098
     84          6           0       -2.553760   -2.121058   -1.916945
     85          7           0       -4.197340    1.991177    0.575779
     86          6           0       -3.165667    2.820523    0.528876
     87          6           0       -3.358614    4.133318    1.334412
     88          6           0       -4.458634    3.612981    2.382310
     89          6           0       -5.082302    2.496247    1.547671
     90          6           0       -3.854253    2.994667    3.632011
     91          6           0       -3.916858    5.301738    0.448318
     92          6           0       -3.838642    6.688992    1.089530
     93          1           0       -3.566366    7.838337    0.230831
     94          7           0       -6.636716    0.207514    0.221180
     95          6           0       -7.121239    1.052428    1.155329
     96          6           0       -8.531212    0.677658    1.344202
     97          6           0       -8.795075   -0.563100    0.565988
     98          6           0       -7.452083   -0.893354    0.133081
     99          6           0       -9.496932    1.514040    2.132403
    100          6           0      -10.046925   -1.332967    0.272105
    101          8           0      -10.010206   -2.513283   -0.226218
    102          6           0      -11.313479   -0.702097    0.671279
    103          7           0       -4.734358   -1.904526   -0.840673
    104          6           0       -5.849357   -2.649949   -0.745470
    105          6           0       -5.629696   -4.034225   -1.307528
    106          6           0       -4.200410   -3.985483   -2.023309
    107          6           0       -3.783601   -2.543825   -1.658228
    108          6           0       -5.651032   -5.175892   -0.291382
    109          6           0       -4.145222   -4.415596   -3.514825
    110          6           0       -4.889644   -3.414407   -4.368558
    111          7           0       -2.739705    0.202847   -1.183813
    112          6           0       -1.990998   -0.865984   -1.723372
    113          6           0       -0.616933   -0.368901   -1.940808
    114          6           0       -0.656003    0.958350   -1.487630
    115          6           0       -1.956912    1.260499   -1.002012
    116          6           0        0.473358   -1.131602   -2.446436
    117          6           0        0.110284    2.169239   -1.299805
    118          8           0        1.244308    2.535794   -1.605339
    119          6           0       -0.732711    3.165039   -0.392000
    120          6           0       -0.701749    4.522553   -1.039091
    121          8           0       -1.243612    4.709128   -2.142806
    122          8           0       -0.231004    5.421310   -0.155345
    123          6           0       -0.191812    6.785115   -0.747224
    124          1           0       -6.875295    2.419756    2.751616
    125          1           0       -7.752687   -2.910470   -0.383736
    126          1           0       -1.824934   -2.736059   -2.449175
    127          1           0       -2.476445    4.476837    1.861234
    128          1           0       -5.193988    4.383650    2.598366
    129          1           0       -2.781214    2.899920    3.556103
    130          1           0       -4.314136    2.020007    3.729902
    131          1           0       -4.157260    3.561161    4.517220
    132          1           0       -5.005903    5.196171    0.361169
    133          1           0       -3.433326    5.318374   -0.509041
    134          1           0       -3.181239    6.700857    1.967388
    135          1           0       -4.823614    6.942751    1.488857
    136          1           0       -8.977648    2.278212    2.723828
    137          1           0       -9.953789    0.856221    2.879674
    138          1           0      -10.285375    1.944783    1.511515
    139          1           0      -11.299941   -0.510543    1.741597
    140          1           0      -12.099027   -1.362219    0.298397
    141          1           0      -11.389204    0.273343    0.177920
    142          1           0       -6.384375   -4.276090   -2.045813
    143          1           0       -3.477104   -4.654927   -1.534941
    144          1           0       -6.402174   -5.953953   -0.524766
    145          1           0       -5.830300   -4.756370    0.689639
    146          1           0       -4.700813   -5.688907   -0.153137
    147          1           0       -4.649543   -5.375412   -3.651096
    148          1           0       -3.135301   -4.525523   -3.895574
    149          1           0       -5.930980   -3.737095   -4.275949
    150          1           0       -4.551112   -3.465045   -5.401456
    151          1           0       -4.818161   -2.405854   -3.945036
    152          1           0        0.987854   -0.503285   -3.161281
    153          1           0        0.132269   -2.058184   -2.903486
    154          1           0        1.031103   -1.310298   -1.523263
    155          1           0       -0.275034    3.172883    0.597973
    156          1           0        0.835330    7.148592   -0.644494
    157          1           0       -0.983257    7.358532   -0.229001
    158          1           0       -0.340737    6.871597   -1.817172
 ---------------------------------------------------------------------

 SCF Done:  E(RCAM-B3LYP) =  -4069.80320240     A.U. after   19 cycles

 Excitation energies and oscillator strengths:

 Excited State   1:      Singlet-A      1.6440 eV  754.17 nm  f=0.2511  <S**2>=0.000
     309 -> 315        0.10155
     311 -> 313        0.46675
     311 -> 314        0.18470
     312 -> 313        0.19748
     312 -> 314       -0.42658
 This state for optimization and/or second-order correction.
 Total Energy, E(TD-HF/TD-DFT) =  -4069.74278732
 Copying the excited state density for this state as the 1-particle RhoCI density.

 Excited State   2:      Singlet-A      1.7027 eV  728.18 nm  f=0.5220  <S**2>=0.000
     309 -> 315        0.10493
     310 -> 316        0.11399
     311 -> 313        0.46472
     312 -> 314        0.50186

 Excited State   3:      Singlet-A      2.1749 eV  570.08 nm  f=0.0027  <S**2>=0.000
     309 -> 313       -0.39606
     310 -> 314        0.49915
     311 -> 315        0.16026
     312 -> 316       -0.19124

 Excited State   4:      Singlet-A      2.1958 eV  564.63 nm  f=0.1631  <S**2>=0.000
     309 -> 313        0.49020
     309 -> 314        0.10361
     310 -> 314        0.38125
     311 -> 315       -0.16224
     311 -> 316        0.14594
     312 -> 315       -0.13303
     312 -> 316       -0.12031

 Excited State   5:      Singlet-A      2.3295 eV  532.24 nm  f=0.0005  <S**2>=0.000
     311 -> 313       -0.15211
     312 -> 313        0.67371
     312 -> 314        0.13360

 The electronic state is 1-A.
 Alpha  occ. eigenvalues --  -46.87434 -46.87377 -19.25974 -19.25328 -19.18661
 Alpha  occ. eigenvalues --  -19.18524 -19.18455 -19.17593 -19.17506 -19.17101
 Alpha  occ. eigenvalues --  -14.42246 -14.42074 -14.41112 -14.41069 -14.39062
 Alpha  occ. eigenvalues --  -14.39044 -14.38285 -14.38174 -10.38635 -10.37718
 Alpha  occ. eigenvalues --  -10.35166 -10.35139 -10.33789 -10.33322 -10.31585
 Alpha  occ. eigenvalues --  -10.31187 -10.31011 -10.30971 -10.30769 -10.30469
 Alpha  occ. eigenvalues --  -10.30144 -10.30126 -10.30081 -10.30028 -10.29957
 Alpha  occ. eigenvalues --  -10.29906 -10.29587 -10.29577 -10.29237 -10.29186
 Alpha  occ. eigenvalues --  -10.29080 -10.28941 -10.28535 -10.28528 -10.28312
 Alpha  occ. eigenvalues --  -10.28207 -10.28080 -10.27955 -10.27901 -10.27728
 Alpha  occ. eigenvalues --  -10.27631 -10.27412 -10.27398 -10.27375 -10.27372
 Alpha  occ. eigenvalues --  -10.27287 -10.27277 -10.27237 -10.27213 -10.27205
 Alpha  occ. eigenvalues --  -10.27191 -10.27156 -10.27129 -10.26939 -10.26569
 Alpha  occ. eigenvalues --  -10.26508 -10.26445 -10.26226 -10.26209 -10.26196
 Alpha  occ. eigenvalues --  -10.26193 -10.25964 -10.25915 -10.25896 -10.25720
 Alpha  occ. eigenvalues --  -10.25656 -10.25571 -10.25519 -10.25268 -10.25152
 Alpha  occ. eigenvalues --  -10.24905 -10.24555 -10.24518 -10.24424 -10.24392
 Alpha  occ. eigenvalues --  -10.24388  -3.16171  -3.16127  -1.91056  -1.91010
 Alpha  occ. eigenvalues --   -1.90639  -1.90598  -1.90480  -1.90434  -1.16221
 Alpha  occ. eigenvalues --   -1.15628  -1.08006  -1.07806  -1.06934  -1.06713
 Alpha  occ. eigenvalues --   -1.06436  -1.05311  -1.04223  -1.04174  -1.03411
 Alpha  occ. eigenvalues --   -1.03377  -1.02853  -1.02742  -1.02027  -1.01808
 Alpha  occ. eigenvalues --   -0.91623  -0.91455  -0.89297  -0.89219  -0.88951
 Alpha  occ. eigenvalues --   -0.88777  -0.88046  -0.87962  -0.87494  -0.87482
 Alpha  occ. eigenvalues --   -0.87422  -0.87302  -0.86948  -0.86850  -0.84772
 Alpha  occ. eigenvalues --   -0.84595  -0.83757  -0.83623  -0.82709  -0.82687
 Alpha  occ. eigenvalues --   -0.82413  -0.82260  -0.81292  -0.81081  -0.80176
 Alpha  occ. eigenvalues --   -0.80145  -0.78447  -0.78348  -0.76951  -0.76905
 Alpha  occ. eigenvalues --   -0.76655  -0.76560  -0.75581  -0.75493  -0.74622
 Alpha  occ. eigenvalues --   -0.74537  -0.72434  -0.72398  -0.71312  -0.71298
 Alpha  occ. eigenvalues --   -0.69814  -0.69534  -0.68585  -0.68497  -0.67282
 Alpha  occ. eigenvalues --   -0.67254  -0.66971  -0.66827  -0.65020  -0.64879
 Alpha  occ. eigenvalues --   -0.64496  -0.64480  -0.64379  -0.64217  -0.63982
 Alpha  occ. eigenvalues --   -0.63930  -0.61954  -0.61713  -0.60134  -0.60060
 Alpha  occ. eigenvalues --   -0.59561  -0.59401  -0.58689  -0.58604  -0.58101
 Alpha  occ. eigenvalues --   -0.58081  -0.57145  -0.57099  -0.56928  -0.56715
 Alpha  occ. eigenvalues --   -0.55944  -0.55916  -0.55584  -0.55392  -0.55198
 Alpha  occ. eigenvalues --   -0.55182  -0.55009  -0.54972  -0.54212  -0.54026
 Alpha  occ. eigenvalues --   -0.53693  -0.53476  -0.52989  -0.52964  -0.52915
 Alpha  occ. eigenvalues --   -0.52840  -0.52647  -0.52521  -0.52471  -0.52440
 Alpha  occ. eigenvalues --   -0.52306  -0.52011  -0.51634  -0.51515  -0.51406
 Alpha  occ. eigenvalues --   -0.51211  -0.50829  -0.50766  -0.50324  -0.50244
 Alpha  occ. eigenvalues --   -0.49875  -0.49756  -0.49624  -0.49593  -0.49246
 Alpha  occ. eigenvalues --   -0.49211  -0.48984  -0.48923  -0.48719  -0.48638
 Alpha  occ. eigenvalues --   -0.48376  -0.48231  -0.48216  -0.48101  -0.48032
 Alpha  occ. eigenvalues --   -0.47517  -0.47343  -0.47119  -0.46902  -0.46838
 Alpha  occ. eigenvalues --   -0.46489  -0.46433  -0.46330  -0.46144  -0.46064
 Alpha  occ. eigenvalues --   -0.45954  -0.45845  -0.45573  -0.45470  -0.45280
 Alpha  occ. eigenvalues --   -0.44960  -0.44894  -0.44289  -0.44250  -0.44119
 Alpha  occ. eigenvalues --   -0.44086  -0.43886  -0.43835  -0.43803  -0.43734
 Alpha  occ. eigenvalues --   -0.43639  -0.43449  -0.43253  -0.43122  -0.43049
 Alpha  occ. eigenvalues --   -0.42976  -0.42660  -0.42622  -0.42564  -0.42456
 Alpha  occ. eigenvalues --   -0.42306  -0.41787  -0.41715  -0.41547  -0.41246
 Alpha  occ. eigenvalues --   -0.41237  -0.41167  -0.41109  -0.40778  -0.40663
 Alpha  occ. eigenvalues --   -0.40549  -0.40510  -0.40484  -0.40463  -0.40251
 Alpha  occ. eigenvalues --   -0.40210  -0.40038  -0.39836  -0.39386  -0.39205
 Alpha  occ. eigenvalues --   -0.38244  -0.38115  -0.37450  -0.37361  -0.37042
 Alpha  occ. eigenvalues --   -0.37003  -0.36933  -0.36847  -0.36391  -0.36162
 Alpha  occ. eigenvalues --   -0.35898  -0.35288  -0.33952  -0.33892  -0.33406
 Alpha  occ. eigenvalues --   -0.32913  -0.32867  -0.32179  -0.31051  -0.31017
 Alpha  occ. eigenvalues --   -0.30693  -0.30567  -0.29445  -0.29097  -0.29066
 Alpha  occ. eigenvalues --   -0.28990  -0.28870  -0.28767  -0.23747  -0.23656
 Alpha  occ. eigenvalues --   -0.20831  -0.20752
 Alpha virt. eigenvalues --   -0.08479  -0.08377  -0.01436  -0.01386   0.00255
 Alpha virt. eigenvalues --    0.00334   0.02453   0.02664   0.03345   0.03631
 Alpha virt. eigenvalues --    0.04917   0.05032   0.05612   0.06053   0.06321

 Mulliken charges:
               1
     1  Mg   0.823446
     2  C    0.014711
     3  C   -0.094151
     4  C   -0.046886
     5  C   -0.066378
     6  N   -0.255039
     7  C   -0.053420
     8  C   -0.014693
     9  C   -0.086736
    10  C    0.046008
    11  C    0.105171
    12  C    0.051218
    13  C   -0.069506
    14  H    0.032582
    15  N   -0.432916
    16  C    0.167399
    17  C   -0.178271
    18  C   -0.005047
    19  C    0.148632
    20  C    0.110508
    21  C    0.011450
    22  O   -0.251281
    23  C    0.062906
    24  N   -0.338618
    25  C    0.039182
    26  C   -0.027825
    27  C   -0.024130
    28  C    0.073503
    29  C    0.076699
    30  C    0.037334
    31  C   -0.009958
    32  N   -0.313636
    33  C    0.082207
    34  C   -0.174082
    35  C    0.008060
    36  C    0.093589
    37  C    0.127043
    38  C    0.056206
    39  O   -0.187889
    40  C   -0.009855
    41  C    0.199891
    42  O   -0.218774
    43  O   -0.309150
    44  C    0.159050
    45  H   -0.018940
    46  H   -0.018528
    47  H   -0.044404
    48  H    0.000507
    49  H   -0.005656
    50  H    0.025338
    51  H    0.015819
    52  H    0.015221
    53  H    0.007697
    54  H    0.054315
    55  H    0.016942
    56  H    0.015395
    57  H    0.005003
    58  H    0.025766
    59  H    0.037684
    60  H    0.036953
    61  H    0.034461
    62  H    0.030682
    63  H    0.014715
    64  H    0.009423
    65  H    0.022217
    66  H    0.013039
    67  H    0.004123
    68  H    0.005807
    69  H    0.004484
    70  H    0.008364
    71  H    0.015767
    72  H    0.028684
    73  H    0.048564
    74  H    0.007094
    75  H    0.045491
    76  H    0.031770
    77  H    0.039599
    78  H    0.042628
    79  H    0.050274
    80  Mg   0.836685
    81  C   -0.017736
    82  C   -0.088006
    83  C   -0.045960
    84  C   -0.066657
    85  N   -0.253880
    86  C   -0.050631
    87  C   -0.014317
    88  C   -0.090295
    89  C    0.044797
    90  C    0.114806
    91  C    0.062783
    92  C   -0.077110
    93  H    0.034227
    94  N   -0.423259
    95  C    0.162032
    96  C   -0.175413
    97  C   -0.008514
    98  C    0.151634
    99  C    0.099713
   100  C    0.015026
   101  O   -0.254007
   102  C    0.061415
   103  N   -0.350238
   104  C    0.037296
   105  C   -0.019727
   106  C   -0.034548
   107  C    0.089365
   108  C    0.073643
   109  C    0.034660
   110  C   -0.007496
   111  N   -0.324437
   112  C    0.080120
   113  C   -0.173422
   114  C    0.005793
   115  C    0.097563
   116  C    0.130186
   117  C    0.031686
   118  O   -0.145554
   119  C   -0.001976
   120  C    0.222947
   121  O   -0.251538
   122  O   -0.307578
   123  C    0.155859
   124  H   -0.020937
   125  H   -0.016306
   126  H   -0.040584
   127  H   -0.002069
   128  H   -0.005067
   129  H    0.020822
   130  H    0.014301
   131  H    0.014797
   132  H    0.013876
   133  H    0.038532
   134  H    0.019356
   135  H    0.019115
   136  H    0.007848
   137  H    0.025124
   138  H    0.038953
   139  H    0.037779
   140  H    0.035636
   141  H    0.033569
   142  H    0.013750
   143  H    0.013268
   144  H    0.024351
   145  H    0.011629
   146  H    0.006202
   147  H    0.005657
   148  H    0.002510
   149  H    0.010833
   150  H    0.017126
   151  H    0.030738
   152  H    0.051233
   153  H    0.007308
   154  H    0.057204
   155  H    0.031544
   156  H    0.034891
   157  H    0.047172
   158  H    0.055052
 Sum of Mulliken charges =  -0.00000

 Dipole moment (field-independent basis, Debye):
    X=             -0.4198    Y=              1.6843    Z=              6.8087  Tot=              7.0265
 Quadrupole moment (field-independent basis, Debye-Ang):
   XX=           -503.3237   YY=           -491.6994   ZZ=           -497.6478
   XY=            -28.1997   XZ=              5.1349   YZ=             52.6738

 Normal termination of Gaussian 16 at Fri Sep 10 00:45:06 2021.
