 Gaussian 16, Revision A.03,
 Gaussian 16:  ES64L-G16RevA.03 25-Dec-2016

 -----------------------------------
 #p cam-b3lyp/Def2SVP td=(nstates=5)
 -----------------------------------

 --------------------------------
 TDDFT excited states in gaussian
 --------------------------------
 Symbolic Z-matrix:
 Charge =  0 Multiplicity = 1

                         Standard orientation:
 ---------------------------------------------------------------------
 Center     Atomic      Atomic             Coordinates (Angstroms)
 Number     Number       Type             X           Y           Z
 ---------------------------------------------------------------------
      1         12           0       16.028793    0.531234    0.722633
      2          6           0       16.339725   -2.362525   -1.361039
      3          6           0       17.017902    2.388333   -1.963612
      4          6           0       16.200816    3.038411    2.656824
      5          6           0       16.175933   -1.611235    3.467416
      6          7           0       16.578945   -0.030600   -1.346744
      7          6           0       16.599235   -1.167396   -2.035550
      8          6           0       16.848267   -0.961887   -3.559730
      9          6           0       17.592796    0.446916   -3.505444
     10          6           0       17.002623    0.983918   -2.213450
     11          6           0       19.105056    0.330999   -3.343775
     12          6           0       15.513537   -0.873494   -4.373618
     13          6           0       15.664655   -1.000624   -5.892287
     14          1           0       14.625246   -1.687106   -6.644431
     15          7           0       16.057986    2.464097    0.315152
     16          6           0       16.477157    3.042870   -0.835763
     17          6           0       16.301915    4.499017   -0.647070
     18          6           0       15.925559    4.731522    0.775038
     19          6           0       16.073882    3.405954    1.319324
     20          6           0       16.442095    5.495278   -1.756829
     21          6           0       15.509928    5.956331    1.526853
     22          8           0       15.452481    5.983821    2.803771
     23          6           0       15.253773    7.165193    0.723064
     24          7           0       16.388696    0.723305    2.769878
     25          6           0       16.350499    1.919023    3.368029
     26          6           0       16.355023    1.782691    4.861793
     27          6           0       16.158427    0.227192    5.164324
     28          6           0       16.156939   -0.298204    3.707537
     29          6           0       17.617055    2.285962    5.575940
     30          6           0       14.980720   -0.165542    6.091246
     31          6           0       13.666290    0.129411    5.403950
     32          7           0       16.044742   -1.616729    1.034152
     33          6           0       16.133060   -2.290108    2.261113
     34          6           0       16.217903   -3.730628    1.958172
     35          6           0       16.189561   -3.794494    0.566424
     36          6           0       16.119587   -2.475795    0.033105
     37          6           0       16.365092   -4.775653    2.912474
     38          6           0       16.226952   -4.668646   -0.594747
     39          8           0       16.190968   -5.888375   -0.763444
     40          6           0       16.448545   -3.770652   -1.891022
     41          6           0       15.449439   -4.211709   -2.925703
     42          8           0       14.227047   -4.028758   -2.753504
     43          8           0       16.096448   -4.559154   -4.048736
     44          6           0       15.160875   -4.978950   -5.126060
     45          1           0       17.541770    3.043135   -2.662710
     46          1           0       16.152714    3.869001    3.364104
     47          1           0       16.139055   -2.344633    4.275018
     48          1           0       17.496731   -1.708211   -4.018990
     49          1           0       17.315449    1.086325   -4.343273
     50          1           0       19.408488   -0.700031   -3.162594
     51          1           0       19.355089    0.957518   -2.487359
     52          1           0       19.620766    0.771057   -4.197689
     53          1           0       15.120653    0.141261   -4.310571
     54          1           0       14.795916   -1.614377   -4.019446
     55          1           0       16.648834   -1.383156   -6.164260
     56          1           0       15.634317    0.000048   -6.323490
     57          1           0       16.885703    5.046160   -2.644551
     58          1           0       17.174446    6.233730   -1.431159
     59          1           0       15.498090    5.989967   -1.985891
     60          1           0       16.155043    7.425796    0.167773
     61          1           0       14.881427    7.915882    1.419250
     62          1           0       14.489759    6.938943   -0.021277
     63          1           0       15.532367    2.340101    5.307838
     64          1           0       17.033348   -0.209475    5.646516
     65          1           0       17.418764    3.046686    6.331377
     66          1           0       18.307284    2.657162    4.818916
     67          1           0       18.214313    1.508153    6.051031
     68          1           0       15.004353    0.426146    7.005736
     69          1           0       14.989936   -1.217566    6.376572
     70          1           0       13.514856    1.187962    5.612205
     71          1           0       12.866811   -0.472111    5.837789
     72          1           0       13.748846    0.018620    4.322564
     73          1           0       15.683629   -5.568457    2.604190
     74          1           0       16.137548   -4.427114    3.919621
     75          1           0       17.419372   -5.019965    2.783392
     76          1           0       17.475073   -3.937219   -2.216011
     77          1           0       15.460310   -5.979113   -5.439503
     78          1           0       15.176666   -4.187783   -5.875867
     79          1           0       14.128172   -5.158233   -4.824861
     80         12           0      -15.687173    0.386006   -0.706574
     81          6           0      -17.413677   -1.728952    1.622629
     82          6           0      -17.805922    2.890902    0.226686
     83          6           0      -14.488961    2.142279   -3.061828
     84          6           0      -14.502964   -2.508730   -2.244066
     85          7           0      -17.352881    0.450275    0.747235
     86          6           0      -17.877965   -0.397083    1.619355
     87          6           0      -18.905345    0.237837    2.594507
     88          6           0      -19.347548    1.492262    1.694647
     89          6           0      -18.080388    1.650913    0.856907
     90          6           0      -20.503717    1.183283    0.758083
     91          6           0      -18.244858    0.700809    3.940403
     92          6           0      -19.233263    1.044874    5.056832
     93          1           0      -18.864504    0.730182    6.434314
     94          7           0      -15.739774    2.348005   -1.000400
     95          6           0      -16.658403    3.217057   -0.529077
     96          6           0      -16.263208    4.537901   -1.042253
     97          6           0      -15.130680    4.353302   -1.989898
     98          6           0      -15.088557    2.907064   -2.071807
     99          6           0      -16.889883    5.816417   -0.566776
    100          6           0      -14.241981    5.318898   -2.713804
    101          8           0      -13.477552    4.942591   -3.671334
    102          6           0      -14.361784    6.733418   -2.331370
    103          7           0      -14.820282   -0.105181   -2.531284
    104          6           0      -14.334702    0.848721   -3.345051
    105          6           0      -13.516277    0.247538   -4.462710
    106          6           0      -13.351671   -1.299110   -4.090724
    107          6           0      -14.216659   -1.345291   -2.812024
    108          6           0      -14.111649    0.372897   -5.864918
    109          6           0      -11.903440   -1.856633   -4.023965
    110          6           0      -11.164921   -1.236723   -2.859628
    111          7           0      -15.746746   -1.732917   -0.288629
    112          6           0      -15.209285   -2.773409   -1.077673
    113          6           0      -15.600720   -4.048338   -0.442253
    114          6           0      -16.364222   -3.658475    0.668407
    115          6           0      -16.459981   -2.241225    0.710056
    116          6           0      -15.290514   -5.349744   -0.928299
    117          6           0      -17.119839   -4.123930    1.809061
    118          8           0      -17.316910   -5.220092    2.331850
    119          6           0      -17.938874   -2.899672    2.406343
    120          6           0      -17.739727   -2.890767    3.897240
    121          8           0      -16.616589   -2.670197    4.383574
    122          8           0      -18.940868   -2.927405    4.502464
    123          6           0      -18.796037   -2.909137    5.982501
    124          1           0      -18.559090    3.677580    0.279326
    125          1           0      -13.965507    2.703700   -3.839184
    126          1           0      -14.091075   -3.452705   -2.607288
    127          1           0      -19.765427   -0.382778    2.815557
    128          1           0      -19.514725    2.376377    2.304369
    129          1           0      -20.760717    0.134474    0.767635
    130          1           0      -20.171956    1.482559   -0.227526
    131          1           0      -21.360685    1.820672    0.994060
    132          1           0      -17.779936    1.683886    3.791514
    133          1           0      -17.543099   -0.030437    4.291744
    134          1           0      -20.245097    0.682844    4.837591
    135          1           0      -19.341258    2.131296    5.102056
    136          1           0      -17.805666    5.626597    0.006574
    137          1           0      -17.233348    6.354538   -1.456907
    138          1           0      -16.189600    6.450432   -0.018796
    139          1           0      -15.386090    7.063920   -2.486378
    140          1           0      -13.584929    7.255010   -2.893793
    141          1           0      -14.160927    6.823866   -1.258012
    142          1           0      -12.535053    0.703489   -4.511952
    143          1           0      -13.844912   -1.950105   -4.827442
    144          1           0      -13.439479    0.882988   -6.580504
    145          1           0      -15.055097    0.897075   -5.789552
    146          1           0      -14.406222   -0.567638   -6.327335
    147          1           0      -11.349676   -1.581138   -4.924856
    148          1           0      -11.860165   -2.937187   -3.937167
    149          1           0      -10.818011   -0.282502   -3.267294
    150          1           0      -10.328799   -1.864543   -2.558327
    151          1           0      -11.849757   -1.012757   -2.033496
    152          1           0      -14.987094   -5.937653   -0.072262
    153          1           0      -14.509661   -5.315800   -1.685191
    154          1           0      -16.257952   -5.636488   -1.349154
    155          1           0      -18.985417   -3.041595    2.133953
    156          1           0      -19.326045   -3.786366    6.366233
    157          1           0      -19.163254   -1.917171    6.306386
    158          1           0      -17.804536   -3.065637    6.391026
 ---------------------------------------------------------------------

 SCF Done:  E(RCAM-B3LYP) =  -4069.81176688     A.U. after   19 cycles

 Excitation energies and oscillator strengths:

 Excited State   1:      Singlet-A      1.6753 eV  740.07 nm  f=0.2139  <S**2>=0.000
     310 -> 316        0.16864
     311 -> 313        0.66672
     312 -> 314       -0.16172
     310 <- 316        0.10167
 This state for optimization and/or second-order correction.
 Total Energy, E(TD-HF/TD-DFT) =  -4069.75020031
 Copying the excited state density for this state as the 1-particle RhoCI density.

 Excited State   2:      Singlet-A      1.6801 eV  737.95 nm  f=0.5636  <S**2>=0.000
     309 -> 315        0.17066
     311 -> 313        0.16167
     312 -> 314        0.66635
     309 <- 315        0.10218

 Excited State   3:      Singlet-A      2.1861 eV  567.15 nm  f=0.0984  <S**2>=0.000
     310 -> 313        0.64228
     311 -> 316       -0.27302

 Excited State   4:      Singlet-A      2.1925 eV  565.49 nm  f=0.1023  <S**2>=0.000
     309 -> 314        0.64051
     312 -> 315       -0.27822

 Excited State   5:      Singlet-A      3.0594 eV  405.25 nm  f=0.0000  <S**2>=0.000
     312 -> 313        0.70711

 The electronic state is 1-A.
 Alpha  occ. eigenvalues --  -46.87756 -46.87661 -19.26348 -19.26243 -19.19159
 Alpha  occ. eigenvalues --  -19.18978 -19.18775 -19.18715 -19.18129 -19.18051
 Alpha  occ. eigenvalues --  -14.42498 -14.42410 -14.41409 -14.41359 -14.39362
 Alpha  occ. eigenvalues --  -14.39352 -14.38600 -14.38546 -10.39089 -10.39038
 Alpha  occ. eigenvalues --  -10.35408 -10.35393 -10.34349 -10.34228 -10.31754
 Alpha  occ. eigenvalues --  -10.31638 -10.31365 -10.31309 -10.31024 -10.30869
 Alpha  occ. eigenvalues --  -10.30529 -10.30467 -10.30398 -10.30361 -10.30167
 Alpha  occ. eigenvalues --  -10.30141 -10.29894 -10.29880 -10.29590 -10.29437
 Alpha  occ. eigenvalues --  -10.29401 -10.29214 -10.28720 -10.28709 -10.28654
 Alpha  occ. eigenvalues --  -10.28498 -10.28405 -10.28324 -10.28142 -10.28077
 Alpha  occ. eigenvalues --  -10.28001 -10.27753 -10.27687 -10.27670 -10.27544
 Alpha  occ. eigenvalues --  -10.27517 -10.27484 -10.27469 -10.27466 -10.27460
 Alpha  occ. eigenvalues --  -10.27442 -10.27409 -10.27376 -10.27363 -10.27118
 Alpha  occ. eigenvalues --  -10.27050 -10.26692 -10.26664 -10.26417 -10.26371
 Alpha  occ. eigenvalues --  -10.26197 -10.26141 -10.26132 -10.26028 -10.25979
 Alpha  occ. eigenvalues --  -10.25934 -10.25849 -10.25803 -10.25400 -10.25397
 Alpha  occ. eigenvalues --  -10.24873 -10.24792 -10.24747 -10.24723 -10.24690
 Alpha  occ. eigenvalues --  -10.24642  -3.16499  -3.16411  -1.91380  -1.91293
 Alpha  occ. eigenvalues --   -1.90967  -1.90881  -1.90809  -1.90718  -1.16642
 Alpha  occ. eigenvalues --   -1.16592  -1.08658  -1.08587  -1.07176  -1.06968
 Alpha  occ. eigenvalues --   -1.06944  -1.06601  -1.04541  -1.04496  -1.03720
 Alpha  occ. eigenvalues --   -1.03663  -1.03193  -1.03039  -1.02371  -1.02112
 Alpha  occ. eigenvalues --   -0.91987  -0.91932  -0.89493  -0.89479  -0.89152
 Alpha  occ. eigenvalues --   -0.89148  -0.88246  -0.88219  -0.87830  -0.87793
 Alpha  occ. eigenvalues --   -0.87684  -0.87633  -0.87234  -0.87121  -0.85000
 Alpha  occ. eigenvalues --   -0.84942  -0.83895  -0.83875  -0.82932  -0.82927
 Alpha  occ. eigenvalues --   -0.82653  -0.82608  -0.81596  -0.81545  -0.80556
 Alpha  occ. eigenvalues --   -0.80443  -0.78757  -0.78636  -0.77178  -0.77145
 Alpha  occ. eigenvalues --   -0.76898  -0.76894  -0.75883  -0.75839  -0.74858
 Alpha  occ. eigenvalues --   -0.74803  -0.72734  -0.72699  -0.71632  -0.71582
 Alpha  occ. eigenvalues --   -0.69866  -0.69755  -0.68833  -0.68828  -0.67602
 Alpha  occ. eigenvalues --   -0.67601  -0.67200  -0.67179  -0.65272  -0.65246
 Alpha  occ. eigenvalues --   -0.64813  -0.64770  -0.64654  -0.64580  -0.64229
 Alpha  occ. eigenvalues --   -0.64203  -0.62277  -0.62257  -0.60402  -0.60340
 Alpha  occ. eigenvalues --   -0.59797  -0.59764  -0.58993  -0.58947  -0.58463
 Alpha  occ. eigenvalues --   -0.58425  -0.57554  -0.57544  -0.57268  -0.57236
 Alpha  occ. eigenvalues --   -0.56270  -0.56204  -0.55938  -0.55886  -0.55480
 Alpha  occ. eigenvalues --   -0.55452  -0.55299  -0.55247  -0.54486  -0.54483
 Alpha  occ. eigenvalues --   -0.53913  -0.53855  -0.53258  -0.53228  -0.53182
 Alpha  occ. eigenvalues --   -0.53142  -0.52902  -0.52874  -0.52716  -0.52669
 Alpha  occ. eigenvalues --   -0.52397  -0.52396  -0.51884  -0.51874  -0.51659
 Alpha  occ. eigenvalues --   -0.51576  -0.51201  -0.51155  -0.50532  -0.50476
 Alpha  occ. eigenvalues --   -0.49991  -0.49981  -0.49878  -0.49867  -0.49489
 Alpha  occ. eigenvalues --   -0.49475  -0.49203  -0.49174  -0.49105  -0.49056
 Alpha  occ. eigenvalues --   -0.48559  -0.48553  -0.48421  -0.48405  -0.48376
 Alpha  occ. eigenvalues --   -0.48340  -0.47655  -0.47595  -0.47257  -0.47119
 Alpha  occ. eigenvalues --   -0.46756  -0.46709  -0.46554  -0.46515  -0.46319
 Alpha  occ. eigenvalues --   -0.46270  -0.46122  -0.46085  -0.45822  -0.45781
 Alpha  occ. eigenvalues --   -0.45209  -0.45161  -0.44537  -0.44514  -0.44476
 Alpha  occ. eigenvalues --   -0.44466  -0.44128  -0.44104  -0.44077  -0.44048
 Alpha  occ. eigenvalues --   -0.43979  -0.43940  -0.43552  -0.43454  -0.43386
 Alpha  occ. eigenvalues --   -0.43345  -0.42987  -0.42930  -0.42901  -0.42658
 Alpha  occ. eigenvalues --   -0.42613  -0.42552  -0.41968  -0.41963  -0.41669
 Alpha  occ. eigenvalues --   -0.41664  -0.41493  -0.41459  -0.41101  -0.40990
 Alpha  occ. eigenvalues --   -0.40829  -0.40783  -0.40723  -0.40699  -0.40531
 Alpha  occ. eigenvalues --   -0.40492  -0.40227  -0.40194  -0.39422  -0.39399
 Alpha  occ. eigenvalues --   -0.38428  -0.38350  -0.37708  -0.37654  -0.37280
 Alpha  occ. eigenvalues --   -0.37265  -0.37223  -0.37200  -0.36770  -0.36672
 Alpha  occ. eigenvalues --   -0.36217  -0.36152  -0.34254  -0.34245  -0.33860
 Alpha  occ. eigenvalues --   -0.33729  -0.33176  -0.33146  -0.31305  -0.31274
 Alpha  occ. eigenvalues --   -0.30995  -0.30973  -0.29988  -0.29955  -0.29409
 Alpha  occ. eigenvalues --   -0.29328  -0.29281  -0.29212  -0.24040  -0.24036
 Alpha  occ. eigenvalues --   -0.21117  -0.21087
 Alpha virt. eigenvalues --   -0.08792  -0.08734  -0.01709  -0.01684  -0.00030
 Alpha virt. eigenvalues --   -0.00018   0.02207   0.02241   0.03164   0.03230
 Alpha virt. eigenvalues --    0.04729   0.04758   0.05139   0.05166   0.06182

 Mulliken charges:
               1
     1  Mg   0.838718
     2  C   -0.002958
     3  C   -0.094112
     4  C   -0.045841
     5  C   -0.063969
     6  N   -0.256765
     7  C   -0.052469
     8  C   -0.014000
     9  C   -0.087014
    10  C    0.046324
    11  C    0.104826
    12  C    0.053465
    13  C   -0.071812
    14  H    0.036165
    15  N   -0.433110
    16  C    0.168432
    17  C   -0.177158
    18  C   -0.004007
    19  C    0.148709
    20  C    0.110191
    21  C    0.012301
    22  O   -0.249635
    23  C    0.062461
    24  N   -0.341128
    25  C    0.041227
    26  C   -0.028166
    27  C   -0.023988
    28  C    0.074863
    29  C    0.076186
    30  C    0.035135
    31  C   -0.004513
    32  N   -0.310482
    33  C    0.080432
    34  C   -0.169703
    35  C    0.008353
    36  C    0.083015
    37  C    0.127306
    38  C    0.046128
    39  O   -0.188441
    40  C   -0.005327
    41  C    0.212860
    42  O   -0.257053
    43  O   -0.304818
    44  C    0.157690
    45  H   -0.017633
    46  H   -0.016852
    47  H   -0.041487
    48  H    0.000913
    49  H   -0.004032
    50  H    0.025456
    51  H    0.016430
    52  H    0.016626
    53  H    0.011234
    54  H    0.044151
    55  H    0.017832
    56  H    0.017950
    57  H    0.005860
    58  H    0.026782
    59  H    0.039578
    60  H    0.037313
    61  H    0.035642
    62  H    0.031548
    63  H    0.016573
    64  H    0.009431
    65  H    0.023193
    66  H    0.012516
    67  H    0.004724
    68  H    0.006350
    69  H    0.004736
    70  H    0.008787
    71  H    0.018210
    72  H    0.028998
    73  H    0.047601
    74  H    0.009126
    75  H    0.045971
    76  H    0.035116
    77  H    0.042922
    78  H    0.046394
    79  H    0.053724
    80  Mg   0.837917
    81  C   -0.016817
    82  C   -0.087786
    83  C   -0.045530
    84  C   -0.064870
    85  N   -0.254567
    86  C   -0.049832
    87  C   -0.015100
    88  C   -0.090512
    89  C    0.045761
    90  C    0.114378
    91  C    0.062518
    92  C   -0.077905
    93  H    0.034944
    94  N   -0.423512
    95  C    0.162906
    96  C   -0.174640
    97  C   -0.007802
    98  C    0.152134
    99  C    0.099371
   100  C    0.015572
   101  O   -0.253181
   102  C    0.061188
   103  N   -0.350092
   104  C    0.037535
   105  C   -0.019832
   106  C   -0.034814
   107  C    0.088937
   108  C    0.073667
   109  C    0.034712
   110  C   -0.007685
   111  N   -0.324113
   112  C    0.078462
   113  C   -0.163097
   114  C    0.002241
   115  C    0.096215
   116  C    0.131476
   117  C    0.042405
   118  O   -0.187826
   119  C    0.000896
   120  C    0.211268
   121  O   -0.250972
   122  O   -0.305653
   123  C    0.152014
   124  H   -0.019678
   125  H   -0.015575
   126  H   -0.040410
   127  H   -0.000656
   128  H   -0.004315
   129  H    0.022447
   130  H    0.014409
   131  H    0.016270
   132  H    0.013935
   133  H    0.037706
   134  H    0.020767
   135  H    0.019590
   136  H    0.008758
   137  H    0.026117
   138  H    0.039809
   139  H    0.038230
   140  H    0.036387
   141  H    0.033927
   142  H    0.014436
   143  H    0.012407
   144  H    0.025135
   145  H    0.011597
   146  H    0.005663
   147  H    0.006286
   148  H    0.003705
   149  H    0.010931
   150  H    0.018067
   151  H    0.030082
   152  H    0.046073
   153  H    0.008570
   154  H    0.046917
   155  H    0.035005
   156  H    0.043918
   157  H    0.049486
   158  H    0.053624
 Sum of Mulliken charges =  -0.00000

 Dipole moment (field-independent basis, Debye):
    X=             -0.4244    Y=              7.1364    Z=             -2.6539  Tot=              7.6257
 Quadrupole moment (field-independent basis, Debye-Ang):
   XX=           -355.6512   YY=           -539.0636   ZZ=           -473.2544
   XY=            -21.9976   XZ=            -39.9723   YZ=              7.1991

 Normal termination of Gaussian 16 at Sun Sep 12 11:22:39 2021.
