 Gaussian 16, Revision A.03,
 Gaussian 16:  ES64L-G16RevA.03 25-Dec-2016

 -----------------------------------
 #p cam-b3lyp/Def2SVP td=(nstates=5)
 -----------------------------------

 --------------------------------
 TDDFT excited states in gaussian
 --------------------------------
 Symbolic Z-matrix:
 Charge =  0 Multiplicity = 1

                         Standard orientation:
 ---------------------------------------------------------------------
 Center     Atomic      Atomic             Coordinates (Angstroms)
 Number     Number       Type             X           Y           Z
 ---------------------------------------------------------------------
      1         12           0      -15.785188    0.620713    0.463424
      2          6           0      -16.078573   -1.916249   -2.044555
      3          6           0      -16.590585   -1.768379    2.762694
      4          6           0      -15.977910    2.926948    2.631548
      5          6           0      -16.125254    2.972654   -2.085770
      6          7           0      -16.251261   -1.533997    0.261820
      7          6           0      -16.271045   -2.398363   -0.747958
      8          6           0      -16.440640   -3.878229   -0.291219
      9          6           0      -17.146227   -3.627933    1.116437
     10          6           0      -16.603596   -2.241903    1.417095
     11          6           0      -18.667204   -3.551988    1.030622
     12          6           0      -15.066399   -4.609199   -0.121288
     13          6           0      -15.148033   -6.133422    0.002943
     14          1           0      -14.093827   -6.941875   -0.590692
     15          7           0      -15.739373    0.531391    2.436435
     16          6           0      -16.086057   -0.527206    3.207454
     17          6           0      -15.878406   -0.097424    4.607043
     18          6           0      -15.564231    1.358331    4.594153
     19          6           0      -15.776443    1.673473    3.204538
     20          6           0      -15.936543   -1.035784    5.773169
     21          6           0      -15.150226    2.315987    5.666359
     22          8           0      -15.153369    3.581716    5.486097
     23          6           0      -14.821239    1.730691    6.978700
     24          7           0      -16.237285    2.654719    0.336682
     25          6           0      -16.193582    3.440040    1.418507
     26          6           0      -16.273704    4.890311    1.044030
     27          6           0      -16.136524    4.944556   -0.545936
     28          6           0      -16.080178    3.423236   -0.829979
     29          6           0      -17.553613    5.622065    1.471092
     30          6           0      -15.016406    5.844937   -1.124788
     31          6           0      -13.662589    5.271414   -0.770741
     32          7           0      -15.877636    0.578603   -1.704691
     33          6           0      -16.044009    1.675131   -2.562957
     34          6           0      -16.155471    1.139119   -3.932020
     35          6           0      -16.062204   -0.242049   -3.772266
     36          6           0      -15.928942   -0.550843   -2.388366
     37          6           0      -16.378190    1.904033   -5.110891
     38          6           0      -16.068862   -1.530196   -4.446426
     39          8           0      -16.059800   -1.892879   -5.623657
     40          6           0      -16.202150   -2.671852   -3.344300
     41          6           0      -15.167587   -3.720736   -3.648985
     42          8           0      -13.950127   -3.469057   -3.540284
     43          8           0      -15.769641   -4.911872   -3.787793
     44          6           0      -14.795856   -6.002059   -4.062361
     45          1           0      -17.061309   -2.373701    3.539833
     46          1           0      -15.940022    3.761029    3.335332
     47          1           0      -16.148220    3.651379   -2.940321
     48          1           0      -17.087440   -4.479787   -0.930126
     49          1           0      -16.810772   -4.338281    1.871816
     50          1           0      -19.008412   -3.553639   -0.004508
     51          1           0      -18.939993   -2.616738    1.519894
     52          1           0      -19.128508   -4.344428    1.620550
     53          1           0      -14.648068   -4.365601    0.855298
     54          1           0      -14.388137   -4.349599   -0.934857
     55          1           0      -16.128584   -6.505665   -0.295156
     56          1           0      -15.068362   -6.394844    1.058173
     57          1           0      -16.349723   -2.002751    5.488911
     58          1           0      -16.662212   -0.626205    6.475564
     59          1           0      -14.968840   -1.140991    6.263897
     60          1           0      -15.686977    1.187045    7.357509
     61          1           0      -14.461372    2.554725    7.593771
     62          1           0      -14.029180    0.992840    6.847679
     63          1           0      -15.457765    5.455633    1.492450
     64          1           0      -17.045738    5.311671   -1.022625
     65          1           0      -17.370085    6.498701    2.092809
     66          1           0      -18.195787    4.906510    1.983815
     67          1           0      -18.195036    5.938690    0.649057
     68          1           0      -15.066935    6.841460   -0.687369
     69          1           0      -15.069459    5.955122   -2.207975
     70          1           0      -13.491044    5.654949    0.234398
     71          1           0      -12.902426    5.635662   -1.462614
     72          1           0      -13.696289    4.183855   -0.703174
     73          1           0      -15.705721    1.500600   -5.867857
     74          1           0      -16.189351    2.963180   -4.937250
     75          1           0      -17.431629    1.692088   -5.293106
     76          1           0      -17.216248   -3.063127   -3.419335
     77          1           0      -15.108449   -6.486141   -4.987663
     78          1           0      -14.752956   -6.613535   -3.160883
     79          1           0      -13.784364   -5.690091   -4.324847
     80         12           0       15.955038    0.536491   -0.590060
     81          6           0       15.816529   -2.251183    1.665755
     82          6           0       15.171580    2.531212    2.063585
     83          6           0       15.626315    2.947361   -2.626501
     84          6           0       15.594012   -1.739395   -3.204577
     85          7           0       15.568900    0.081591    1.539771
     86          6           0       15.605022   -1.006372    2.294348
     87          6           0       15.483030   -0.736615    3.818127
     88          6           0       14.724532    0.677310    3.752055
     89          6           0       15.207983    1.150283    2.382667
     90          6           0       13.211211    0.546833    3.705427
     91          6           0       16.882329   -0.605735    4.515886
     92          6           0       16.845112   -0.650407    6.045056
     93          1           0       17.949075   -1.296456    6.749578
     94          7           0       15.954888    2.495406   -0.271914
     95          6           0       15.631872    3.133940    0.872292
     96          6           0       15.770941    4.569948    0.584706
     97          6           0       16.042768    4.732958   -0.869342
     98          6           0       15.860579    3.369751   -1.326025
     99          6           0       15.723776    5.622293    1.654179
    100          6           0       16.394328    5.921645   -1.711740
    101          8           0       16.352331    5.875768   -2.991962
    102          6           0       16.698722    7.167546   -0.993020
    103          7           0       15.442446    0.621853   -2.603099
    104          6           0       15.423875    1.793401   -3.262680
    105          6           0       15.299103    1.578853   -4.752237
    106          6           0       15.481811    0.005996   -4.976545
    107          6           0       15.596681   -0.447857   -3.504735
    108          6           0       13.982283    2.032852   -5.381729
    109          6           0       16.584886   -0.438990   -5.975495
    110          6           0       17.950153   -0.102654   -5.420241
    111          7           0       15.927113   -1.614932   -0.786703
    112          6           0       15.737760   -2.360864   -1.970687
    113          6           0       15.682562   -3.785476   -1.583583
    114          6           0       15.821675   -3.767800   -0.187573
    115          6           0       15.933961   -2.425584    0.265562
    116          6           0       15.474747   -4.880610   -2.468804
    117          6           0       15.888401   -4.578770    1.006820
    118          8           0       15.934704   -5.786864    1.235077
    119          6           0       15.761097   -3.625744    2.272496
    120          6           0       16.840289   -4.004396    3.249467
    121          8           0       18.039043   -3.839840    2.962182
    122          8           0       16.277948   -4.292587    4.437359
    123          6           0       17.309292   -4.663385    5.442681
    124          1           0       14.708412    3.215948    2.774581
    125          1           0       15.615157    3.735125   -3.383323
    126          1           0       15.581832   -2.516900   -3.971403
    127          1           0       14.881381   -1.456345    4.360137
    128          1           0       15.072694    1.349154    4.532293
    129          1           0       12.898430   -0.481859    3.604876
    130          1           0       12.892400    1.124760    2.847865
    131          1           0       12.764028    1.031043    4.578299
    132          1           0       17.262853    0.412955    4.366881
    133          1           0       17.562080   -1.350061    4.149070
    134          1           0       15.882203   -1.014494    6.423469
    135          1           0       16.912550    0.372326    6.423834
    136          1           0       15.345979    5.216973    2.600961
    137          1           0       14.966690    6.353294    1.350311
    138          1           0       16.679165    6.135542    1.782507
    139          1           0       15.844522    7.450065   -0.382291
    140          1           0       17.013027    7.878043   -1.760017
    141          1           0       17.529867    6.979913   -0.304110
    142          1           0       16.082586    2.103221   -5.285449
    143          1           0       14.568432   -0.457166   -5.377849
    144          1           0       14.119093    2.765803   -6.199136
    145          1           0       13.355590    2.445227   -4.602160
    146          1           0       13.360268    1.232592   -5.779081
    147          1           0       16.488306    0.109857   -6.915492
    148          1           0       16.549618   -1.496531   -6.214971
    149          1           0       18.075440    0.949315   -5.693627
    150          1           0       18.715033   -0.724134   -5.881509
    151          1           0       17.955307   -0.161642   -4.325643
    152          1           0       16.173953   -5.653207   -2.177773
    153          1           0       15.616342   -4.585516   -3.506417
    154          1           0       14.429996   -5.114713   -2.247535
    155          1           0       14.763304   -3.766782    2.689730
    156          1           0       17.035683   -5.648663    5.832606
    157          1           0       17.337253   -3.825860    6.164841
    158          1           0       18.314783   -4.849676    5.083890
 ---------------------------------------------------------------------

 SCF Done:  E(RCAM-B3LYP) =  -4069.81177593     A.U. after   19 cycles

 Excitation energies and oscillator strengths:

 Excited State   1:      Singlet-A      1.6756 eV  739.95 nm  f=0.3889  <S**2>=0.000
     310 -> 316        0.17356
     312 -> 313        0.68581
     310 <- 316        0.10461
 This state for optimization and/or second-order correction.
 Total Energy, E(TD-HF/TD-DFT) =  -4069.75020002
 Copying the excited state density for this state as the 1-particle RhoCI density.

 Excited State   2:      Singlet-A      1.6799 eV  738.07 nm  f=0.3873  <S**2>=0.000
     309 -> 315        0.17546
     311 -> 314        0.68546
     309 <- 315        0.10507

 Excited State   3:      Singlet-A      2.1861 eV  567.14 nm  f=0.1025  <S**2>=0.000
     310 -> 313        0.64248
     312 -> 316       -0.27314

 Excited State   4:      Singlet-A      2.1925 eV  565.49 nm  f=0.0986  <S**2>=0.000
     309 -> 314        0.64072
     311 -> 315       -0.27827

 Excited State   5:      Singlet-A      3.0656 eV  404.43 nm  f=0.0000  <S**2>=0.000
     311 -> 313        0.70711

 The electronic state is 1-A.
 Alpha  occ. eigenvalues --  -46.87796 -46.87661 -19.26355 -19.26278 -19.19165
 Alpha  occ. eigenvalues --  -19.19015 -19.18817 -19.18713 -19.18167 -19.18053
 Alpha  occ. eigenvalues --  -14.42498 -14.42449 -14.41449 -14.41359 -14.39402
 Alpha  occ. eigenvalues --  -14.39352 -14.38600 -14.38586 -10.39095 -10.39075
 Alpha  occ. eigenvalues --  -10.35450 -10.35390 -10.34387 -10.34231 -10.31763
 Alpha  occ. eigenvalues --  -10.31671 -10.31403 -10.31310 -10.31024 -10.30907
 Alpha  occ. eigenvalues --  -10.30569 -10.30507 -10.30398 -10.30362 -10.30207
 Alpha  occ. eigenvalues --  -10.30140 -10.29921 -10.29894 -10.29630 -10.29436
 Alpha  occ. eigenvalues --  -10.29401 -10.29254 -10.28745 -10.28722 -10.28659
 Alpha  occ. eigenvalues --  -10.28531 -10.28405 -10.28364 -10.28142 -10.28113
 Alpha  occ. eigenvalues --  -10.28002 -10.27792 -10.27726 -10.27670 -10.27584
 Alpha  occ. eigenvalues --  -10.27515 -10.27503 -10.27484 -10.27481 -10.27468
 Alpha  occ. eigenvalues --  -10.27465 -10.27452 -10.27402 -10.27373 -10.27155
 Alpha  occ. eigenvalues --  -10.27053 -10.26699 -10.26696 -10.26413 -10.26413
 Alpha  occ. eigenvalues --  -10.26231 -10.26187 -10.26135 -10.26027 -10.26019
 Alpha  occ. eigenvalues --  -10.25934 -10.25852 -10.25843 -10.25438 -10.25392
 Alpha  occ. eigenvalues --  -10.24873 -10.24832 -10.24788 -10.24729 -10.24691
 Alpha  occ. eigenvalues --  -10.24690  -3.16539  -3.16411  -1.91420  -1.91293
 Alpha  occ. eigenvalues --   -1.91007  -1.90881  -1.90849  -1.90718  -1.16648
 Alpha  occ. eigenvalues --   -1.16627  -1.08661  -1.08625  -1.07218  -1.06965
 Alpha  occ. eigenvalues --   -1.06950  -1.06637  -1.04580  -1.04496  -1.03760
 Alpha  occ. eigenvalues --   -1.03664  -1.03233  -1.03039  -1.02411  -1.02112
 Alpha  occ. eigenvalues --   -0.91988  -0.91970  -0.89520  -0.89494  -0.89184
 Alpha  occ. eigenvalues --   -0.89153  -0.88288  -0.88219  -0.87869  -0.87794
 Alpha  occ. eigenvalues --   -0.87685  -0.87671  -0.87274  -0.87120  -0.85001
 Alpha  occ. eigenvalues --   -0.84979  -0.83938  -0.83875  -0.82968  -0.82931
 Alpha  occ. eigenvalues --   -0.82654  -0.82646  -0.81599  -0.81582  -0.80594
 Alpha  occ. eigenvalues --   -0.80444  -0.78797  -0.78636  -0.77217  -0.77145
 Alpha  occ. eigenvalues --   -0.76931  -0.76900  -0.75920  -0.75841  -0.74898
 Alpha  occ. eigenvalues --   -0.74802  -0.72774  -0.72700  -0.71671  -0.71581
 Alpha  occ. eigenvalues --   -0.69909  -0.69756  -0.68871  -0.68829  -0.67640
 Alpha  occ. eigenvalues --   -0.67602  -0.67217  -0.67201  -0.65284  -0.65274
 Alpha  occ. eigenvalues --   -0.64852  -0.64771  -0.64655  -0.64619  -0.64270
 Alpha  occ. eigenvalues --   -0.64203  -0.62294  -0.62281  -0.60442  -0.60339
 Alpha  occ. eigenvalues --   -0.59802  -0.59798  -0.58993  -0.58986  -0.58503
 Alpha  occ. eigenvalues --   -0.58426  -0.57582  -0.57557  -0.57308  -0.57236
 Alpha  occ. eigenvalues --   -0.56309  -0.56205  -0.55974  -0.55890  -0.55520
 Alpha  occ. eigenvalues --   -0.55453  -0.55339  -0.55248  -0.54522  -0.54489
 Alpha  occ. eigenvalues --   -0.53915  -0.53891  -0.53298  -0.53228  -0.53220
 Alpha  occ. eigenvalues --   -0.53143  -0.52913  -0.52904  -0.52755  -0.52668
 Alpha  occ. eigenvalues --   -0.52440  -0.52400  -0.51914  -0.51886  -0.51660
 Alpha  occ. eigenvalues --   -0.51614  -0.51202  -0.51194  -0.50573  -0.50474
 Alpha  occ. eigenvalues --   -0.50032  -0.49980  -0.49918  -0.49866  -0.49513
 Alpha  occ. eigenvalues --   -0.49488  -0.49213  -0.49204  -0.49106  -0.49093
 Alpha  occ. eigenvalues --   -0.48590  -0.48560  -0.48462  -0.48445  -0.48375
 Alpha  occ. eigenvalues --   -0.48339  -0.47693  -0.47595  -0.47296  -0.47118
 Alpha  occ. eigenvalues --   -0.46796  -0.46709  -0.46555  -0.46552  -0.46358
 Alpha  occ. eigenvalues --   -0.46271  -0.46162  -0.46086  -0.45824  -0.45819
 Alpha  occ. eigenvalues --   -0.45207  -0.45202  -0.44576  -0.44516  -0.44506
 Alpha  occ. eigenvalues --   -0.44477  -0.44145  -0.44129  -0.44086  -0.44078
 Alpha  occ. eigenvalues --   -0.44018  -0.43940  -0.43556  -0.43492  -0.43387
 Alpha  occ. eigenvalues --   -0.43384  -0.43026  -0.42933  -0.42903  -0.42696
 Alpha  occ. eigenvalues --   -0.42654  -0.42553  -0.42009  -0.41965  -0.41703
 Alpha  occ. eigenvalues --   -0.41670  -0.41531  -0.41460  -0.41140  -0.40990
 Alpha  occ. eigenvalues --   -0.40867  -0.40823  -0.40723  -0.40699  -0.40572
 Alpha  occ. eigenvalues --   -0.40493  -0.40230  -0.40229  -0.39443  -0.39424
 Alpha  occ. eigenvalues --   -0.38469  -0.38349  -0.37744  -0.37656  -0.37320
 Alpha  occ. eigenvalues --   -0.37266  -0.37261  -0.37201  -0.36774  -0.36710
 Alpha  occ. eigenvalues --   -0.36218  -0.36191  -0.34285  -0.34254  -0.33866
 Alpha  occ. eigenvalues --   -0.33766  -0.33185  -0.33176  -0.31346  -0.31272
 Alpha  occ. eigenvalues --   -0.31035  -0.30973  -0.30027  -0.29958  -0.29449
 Alpha  occ. eigenvalues --   -0.29328  -0.29321  -0.29212  -0.24080  -0.24037
 Alpha  occ. eigenvalues --   -0.21127  -0.21117
 Alpha virt. eigenvalues --   -0.08792  -0.08774  -0.01749  -0.01684  -0.00058
 Alpha virt. eigenvalues --   -0.00029   0.02201   0.02206   0.03124   0.03226
 Alpha virt. eigenvalues --    0.04720   0.04728   0.05103   0.05161   0.06179

 Mulliken charges:
               1
     1  Mg   0.838829
     2  C   -0.002963
     3  C   -0.094094
     4  C   -0.045907
     5  C   -0.063980
     6  N   -0.256809
     7  C   -0.052436
     8  C   -0.014008
     9  C   -0.087020
    10  C    0.046335
    11  C    0.104809
    12  C    0.053471
    13  C   -0.071843
    14  H    0.036205
    15  N   -0.433149
    16  C    0.168407
    17  C   -0.177136
    18  C   -0.004030
    19  C    0.148715
    20  C    0.110164
    21  C    0.012270
    22  O   -0.249669
    23  C    0.062485
    24  N   -0.341159
    25  C    0.041240
    26  C   -0.028157
    27  C   -0.023971
    28  C    0.074839
    29  C    0.076169
    30  C    0.035136
    31  C   -0.004492
    32  N   -0.310489
    33  C    0.080431
    34  C   -0.169716
    35  C    0.008363
    36  C    0.082978
    37  C    0.127311
    38  C    0.046119
    39  O   -0.188413
    40  C   -0.005344
    41  C    0.212884
    42  O   -0.257098
    43  O   -0.304795
    44  C    0.157678
    45  H   -0.017584
    46  H   -0.016870
    47  H   -0.041507
    48  H    0.000958
    49  H   -0.004004
    50  H    0.025477
    51  H    0.016431
    52  H    0.016680
    53  H    0.011207
    54  H    0.044127
    55  H    0.017875
    56  H    0.017968
    57  H    0.005903
    58  H    0.026818
    59  H    0.039555
    60  H    0.037359
    61  H    0.035601
    62  H    0.031505
    63  H    0.016516
    64  H    0.009457
    65  H    0.023179
    66  H    0.012558
    67  H    0.004750
    68  H    0.006331
    69  H    0.004730
    70  H    0.008746
    71  H    0.018119
    72  H    0.029007
    73  H    0.047577
    74  H    0.009092
    75  H    0.046013
    76  H    0.035165
    77  H    0.042966
    78  H    0.046426
    79  H    0.053707
    80  Mg   0.837862
    81  C   -0.016833
    82  C   -0.087795
    83  C   -0.045478
    84  C   -0.064834
    85  N   -0.254554
    86  C   -0.049860
    87  C   -0.015096
    88  C   -0.090496
    89  C    0.045755
    90  C    0.114362
    91  C    0.062524
    92  C   -0.077887
    93  H    0.034874
    94  N   -0.423511
    95  C    0.162935
    96  C   -0.174600
    97  C   -0.007771
    98  C    0.152112
    99  C    0.099350
   100  C    0.015585
   101  O   -0.253139
   102  C    0.061194
   103  N   -0.350043
   104  C    0.037541
   105  C   -0.019871
   106  C   -0.034802
   107  C    0.088878
   108  C    0.073622
   109  C    0.034723
   110  C   -0.007679
   111  N   -0.324114
   112  C    0.078431
   113  C   -0.163119
   114  C    0.002224
   115  C    0.096191
   116  C    0.131490
   117  C    0.042375
   118  O   -0.187917
   119  C    0.000940
   120  C    0.211236
   121  O   -0.251020
   122  O   -0.305636
   123  C    0.152036
   124  H   -0.019638
   125  H   -0.015523
   126  H   -0.040429
   127  H   -0.000671
   128  H   -0.004329
   129  H    0.022458
   130  H    0.014473
   131  H    0.016286
   132  H    0.013926
   133  H    0.037672
   134  H    0.020773
   135  H    0.019599
   136  H    0.008766
   137  H    0.026196
   138  H    0.039805
   139  H    0.038277
   140  H    0.036431
   141  H    0.033885
   142  H    0.014419
   143  H    0.012472
   144  H    0.025191
   145  H    0.011672
   146  H    0.005748
   147  H    0.006310
   148  H    0.003659
   149  H    0.010943
   150  H    0.017930
   151  H    0.030074
   152  H    0.045983
   153  H    0.008535
   154  H    0.046962
   155  H    0.035012
   156  H    0.043882
   157  H    0.049490
   158  H    0.053579
 Sum of Mulliken charges =  -0.00000

 Dipole moment (field-independent basis, Debye):
    X=             -3.7972    Y=              1.8226    Z=              5.9954  Tot=              7.3270
 Quadrupole moment (field-independent basis, Debye-Ang):
   XX=           -517.5494   YY=           -505.2229   ZZ=           -493.6035
   XY=             85.0634   XZ=            -26.9005   YZ=             -5.3045

 Normal termination of Gaussian 16 at Sun Sep 12 16:46:51 2021.
