 Gaussian 16, Revision A.03,
 Gaussian 16:  ES64L-G16RevA.03 25-Dec-2016

 -----------------------------------
 #p cam-b3lyp/Def2SVP td=(nstates=5)
 -----------------------------------

 --------------------------------
 TDDFT excited states in gaussian
 --------------------------------
 Symbolic Z-matrix:
 Charge =  0 Multiplicity = 1

                         Standard orientation:
 ---------------------------------------------------------------------
 Center     Atomic      Atomic             Coordinates (Angstroms)
 Number     Number       Type             X           Y           Z
 ---------------------------------------------------------------------
      1         12           0       15.781688    0.572106    0.535064
      2          6           0       16.104561   -2.330888   -1.533895
      3          6           0       16.592564    2.433802   -2.207131
      4          6           0       15.948121    3.103671    2.437719
      5          6           0       16.117683   -1.535438    3.290246
      6          7           0       16.263584    0.007859   -1.550613
      7          6           0       16.294159   -1.134687   -2.229453
      8          6           0       16.471783   -0.936673   -3.764580
      9          6           0       17.168891    0.497181   -3.754447
     10          6           0       16.615273    1.027161   -2.443511
     11          6           0       18.689700    0.434570   -3.655844
     12          6           0       15.101826   -0.902301   -4.522054
     13          6           0       15.193387   -1.039994   -6.044556
     14          1           0       14.147636   -1.769296   -6.745892
     15          7           0       15.727063    2.500497    0.109420
     16          6           0       16.077360    3.081221   -1.063329
     17          6           0       15.860061    4.532432   -0.880442
     18          6           0       15.535908    4.766751    0.554170
     19          6           0       15.752577    3.452742    1.103546
     20          6           0       15.919103    5.521296   -2.004014
     21          6           0       15.110183    5.984433    1.311891
     22          8           0       15.105448    6.023229    2.589798
     23          6           0       14.778979    7.175435    0.508860
     24          7           0       16.220331    0.797617    2.563455
     25          6           0       16.166039    1.997495    3.151954
     26          6           0       16.237934    1.876940    4.645351
     27          6           0       16.107982    0.318874    4.969843
     28          6           0       16.063497   -0.221391    3.519187
     29          6           0       17.510705    2.430341    5.300953
     30          6           0       14.984452   -0.104117    5.949221
     31          6           0       13.632951    0.138693    5.315513
     32          7           0       15.884782   -1.570709    0.864853
     33          6           0       16.047679   -2.227888    2.092963
     34          6           0       16.169380   -3.667751    1.799617
     35          6           0       16.084889   -3.747018    0.410940
     36          6           0       15.947150   -2.437090   -0.130730
     37          6           0       16.392443   -4.697169    2.756160
     38          6           0       16.103661   -4.631418   -0.742898
     39          8           0       16.102728   -5.853353   -0.898993
     40          6           0       16.239560   -3.739923   -2.055374
     41          6           0       15.213731   -4.225520   -3.042886
     42          8           0       13.994058   -4.082565   -2.820792
     43          8           0       15.824651   -4.562369   -4.189120
     44          6           0       14.859739   -5.024996   -5.222113
     45          1           0       17.063737    3.098776   -2.933593
     46          1           0       15.901113    3.939450    3.138934
     47          1           0       16.140045   -2.261227    4.105219
     48          1           0       17.125766   -1.665193   -4.244150
     49          1           0       16.834743    1.118014   -4.585490
     50          1           0       19.035854   -0.583577   -3.478431
     51          1           0       18.953685    1.078122   -2.816413
     52          1           0       19.153640    0.883047   -4.534710
     53          1           0       14.677161    0.099073   -4.451538
     54          1           0       14.425683   -1.663492   -4.131230
     55          1           0       16.177898   -1.391562   -6.354469
     56          1           0       15.110481   -0.045477   -6.483033
     57          1           0       16.340303    5.078352   -2.905644
     58          1           0       16.638563    6.287631   -1.716232
     59          1           0       14.949816    5.981108   -2.197370
     60          1           0       15.646629    7.460820   -0.086360
     61          1           0       14.410496    7.920195    1.213419
     62          1           0       13.992667    6.915542   -0.200449
     63          1           0       15.415978    2.410591    5.120778
     64          1           0       17.016906   -0.082675    5.418495
     65          1           0       17.318161    3.191679    6.057257
     66          1           0       18.155347    2.816960    4.512123
     67          1           0       18.153847    1.678327    5.757308
     68          1           0       15.026009    0.497512    6.856558
     69          1           0       15.041919   -1.152191    6.243312
     70          1           0       13.453962    1.193575    5.520498
     71          1           0       12.873606   -0.485188    5.788143
     72          1           0       13.673835    0.019539    4.232639
     73          1           0       15.726400   -5.515907    2.484084
     74          1           0       16.195468   -4.346133    3.768868
     75          1           0       17.448178   -4.906729    2.584802
     76          1           0       17.256683   -3.874771   -2.421979
     77          1           0       15.180084   -6.017577   -5.538969
     78          1           0       14.816755   -4.241592   -5.978972
     79          1           0       13.847383   -5.236237   -4.875917
     80         12           0      -15.951782   -0.667972    0.444530
     81          6           0      -15.841842    1.968535   -1.987710
     82          6           0      -15.173002    1.674056    2.798888
     83          6           0      -15.597859   -3.029772    2.533573
     84          6           0      -15.587882   -2.923011   -2.187589
     85          7           0      -15.580676    1.507794    0.301078
     86          6           0      -15.627201    2.411672   -0.665972
     87          6           0      -15.512695    3.881120   -0.178957
     88          6           0      -14.746070    3.616060    1.207002
     89          6           0      -15.218869    2.189447    1.478900
     90          6           0      -13.233238    3.598819    1.064217
     91          6           0      -16.915339    4.543301    0.057983
     92          6           0      -16.887352    6.063042    0.235048
     93          1           0      -17.998976    6.846360   -0.297110
     94          7           0      -15.942748   -0.636786    2.428847
     95          6           0      -15.622967    0.405034    3.224859
     96          6           0      -15.752458   -0.088331    4.604700
     97          6           0      -16.014828   -1.552427    4.556695
     98          6           0      -15.837452   -1.805721    3.140897
     99          6           0      -15.705801    0.817801    5.800598
    100          6           0      -16.354905   -2.560357    5.612451
    101          8           0      -16.305621   -3.820138    5.381482
    102          6           0      -16.656671   -2.031611    6.950685
    103          7           0      -15.426897   -2.668727    0.235142
    104          6           0      -15.398026   -3.490833    1.298740
    105          6           0      -15.265671   -4.932778    0.870181
    106          6           0      -15.455692   -4.928214   -0.717723
    107          6           0      -15.581702   -3.406995   -0.953135
    108          6           0      -13.942701   -5.612649    1.222205
    109          6           0      -16.555297   -5.859485   -1.297620
    110          6           0      -17.921934   -5.367815   -0.878177
    111          7           0      -15.934505   -0.550880   -1.712788
    112          6           0      -15.742300   -1.613118   -2.623169
    113          6           0      -15.697186   -1.023482   -3.976945
    114          6           0      -15.844410    0.354303   -3.756677
    115          6           0      -15.951998    0.607588   -2.362479
    116          6           0      -15.490183   -1.739430   -5.189661
    117          6           0      -15.922613    1.653051   -4.385820
    118          8           0      -15.976881    2.053502   -5.547909
    119          6           0      -15.797528    2.768231   -3.260157
    120          6           0      -16.884510    3.782570   -3.488401
    121          8           0      -18.080619    3.466564   -3.361687
    122          8           0      -16.330750    5.003367   -3.604107
    123          6           0      -17.370010    6.044934   -3.820684
    124          1           0      -14.710274    2.281471    3.577230
    125          1           0      -15.577934   -3.892585    3.203378
    126          1           0      -15.575459   -3.569095   -3.067992
    127          1           0      -14.918203    4.525572   -0.815369
    128          1           0      -15.095130    4.288484    1.986340
    129          1           0      -12.925529    3.650324    0.030392
    130          1           0      -12.906233    2.668750    1.510409
    131          1           0      -12.788551    4.395326    1.667669
    132          1           0      -17.289385    4.245869    1.046090
    133          1           0      -17.596996    4.283618   -0.728491
    134          1           0      -15.928704    6.496542   -0.074802
    135          1           0      -16.951407    6.289310    1.302157
    136          1           0      -15.335811    1.815763    5.534923
    137          1           0      -14.942949    0.416322    6.476418
    138          1           0      -16.659100    0.864150    6.331395
    139          1           0      -15.804545   -1.462575    7.314740
    140          1           0      -16.962559   -2.895449    7.544061
    141          1           0      -17.492870   -1.328306    6.868599
    142          1           0      -16.043105   -5.541451    1.315385
    143          1           0      -14.542517   -5.252178   -1.238298
    144          1           0      -14.070674   -6.528433    1.829679
    145          1           0      -13.318343   -4.896865    1.740249
    146          1           0      -13.322759   -5.885828    0.370010
    147          1           0      -16.450178   -6.868378   -0.891124
    148          1           0      -16.524417   -5.943094   -2.378840
    149          1           0      -18.039836   -5.791447    0.123682
    150          1           0      -18.687482   -5.739300   -1.556393
    151          1           0      -17.933843   -4.276275   -0.778009
    152          1           0      -16.195325   -1.344250   -5.908772
    153          1           0      -15.624064   -2.809754   -5.047291
    154          1           0      -14.448055   -1.479707   -5.394034
    155          1           0      -14.802982    3.208082   -3.343855
    156          1           0      -17.104103    6.575193   -4.740368
    157          1           0      -17.397614    6.638039   -2.887300
    158          1           0      -18.374377    5.710263   -4.052366
 ---------------------------------------------------------------------

 SCF Done:  E(RCAM-B3LYP) =  -4069.81177988     A.U. after   19 cycles

 Excitation energies and oscillator strengths:

 Excited State   1:      Singlet-A      1.6756 eV  739.96 nm  f=0.3806  <S**2>=0.000
     310 -> 316        0.17336
     312 -> 313        0.68498
     310 <- 316        0.10449
 This state for optimization and/or second-order correction.
 Total Energy, E(TD-HF/TD-DFT) =  -4069.75020417
 Copying the excited state density for this state as the 1-particle RhoCI density.

 Excited State   2:      Singlet-A      1.6799 eV  738.06 nm  f=0.3956  <S**2>=0.000
     309 -> 315        0.17526
     311 -> 314        0.68464
     309 <- 315        0.10495

 Excited State   3:      Singlet-A      2.1861 eV  567.14 nm  f=0.1020  <S**2>=0.000
     310 -> 313        0.64245
     312 -> 316       -0.27311

 Excited State   4:      Singlet-A      2.1925 eV  565.49 nm  f=0.0990  <S**2>=0.000
     309 -> 314        0.64068
     311 -> 315       -0.27826

 Excited State   5:      Singlet-A      3.0656 eV  404.43 nm  f=0.0000  <S**2>=0.000
     311 -> 313        0.70711

 The electronic state is 1-A.
 Alpha  occ. eigenvalues --  -46.87796 -46.87661 -19.26355 -19.26279 -19.19166
 Alpha  occ. eigenvalues --  -19.19015 -19.18816 -19.18713 -19.18168 -19.18054
 Alpha  occ. eigenvalues --  -14.42498 -14.42449 -14.41449 -14.41359 -14.39402
 Alpha  occ. eigenvalues --  -14.39352 -14.38601 -14.38586 -10.39095 -10.39075
 Alpha  occ. eigenvalues --  -10.35449 -10.35390 -10.34388 -10.34231 -10.31763
 Alpha  occ. eigenvalues --  -10.31672 -10.31403 -10.31310 -10.31024 -10.30907
 Alpha  occ. eigenvalues --  -10.30569 -10.30507 -10.30398 -10.30362 -10.30207
 Alpha  occ. eigenvalues --  -10.30140 -10.29921 -10.29895 -10.29630 -10.29437
 Alpha  occ. eigenvalues --  -10.29401 -10.29254 -10.28745 -10.28721 -10.28658
 Alpha  occ. eigenvalues --  -10.28530 -10.28406 -10.28364 -10.28142 -10.28113
 Alpha  occ. eigenvalues --  -10.28002 -10.27792 -10.27726 -10.27670 -10.27584
 Alpha  occ. eigenvalues --  -10.27516 -10.27504 -10.27484 -10.27480 -10.27467
 Alpha  occ. eigenvalues --  -10.27464 -10.27452 -10.27402 -10.27373 -10.27155
 Alpha  occ. eigenvalues --  -10.27054 -10.26699 -10.26696 -10.26412 -10.26411
 Alpha  occ. eigenvalues --  -10.26230 -10.26188 -10.26136 -10.26026 -10.26019
 Alpha  occ. eigenvalues --  -10.25934 -10.25853 -10.25843 -10.25439 -10.25392
 Alpha  occ. eigenvalues --  -10.24874 -10.24832 -10.24788 -10.24730 -10.24692
 Alpha  occ. eigenvalues --  -10.24690  -3.16539  -3.16411  -1.91420  -1.91293
 Alpha  occ. eigenvalues --   -1.91007  -1.90882  -1.90849  -1.90719  -1.16649
 Alpha  occ. eigenvalues --   -1.16628  -1.08661  -1.08625  -1.07217  -1.06965
 Alpha  occ. eigenvalues --   -1.06950  -1.06638  -1.04580  -1.04496  -1.03760
 Alpha  occ. eigenvalues --   -1.03663  -1.03233  -1.03039  -1.02411  -1.02112
 Alpha  occ. eigenvalues --   -0.91989  -0.91971  -0.89521  -0.89494  -0.89184
 Alpha  occ. eigenvalues --   -0.89153  -0.88288  -0.88219  -0.87870  -0.87795
 Alpha  occ. eigenvalues --   -0.87685  -0.87671  -0.87273  -0.87119  -0.85001
 Alpha  occ. eigenvalues --   -0.84979  -0.83938  -0.83875  -0.82968  -0.82930
 Alpha  occ. eigenvalues --   -0.82653  -0.82646  -0.81599  -0.81583  -0.80595
 Alpha  occ. eigenvalues --   -0.80444  -0.78797  -0.78636  -0.77218  -0.77145
 Alpha  occ. eigenvalues --   -0.76932  -0.76900  -0.75920  -0.75841  -0.74899
 Alpha  occ. eigenvalues --   -0.74802  -0.72774  -0.72700  -0.71671  -0.71581
 Alpha  occ. eigenvalues --   -0.69910  -0.69756  -0.68871  -0.68828  -0.67640
 Alpha  occ. eigenvalues --   -0.67602  -0.67216  -0.67201  -0.65284  -0.65273
 Alpha  occ. eigenvalues --   -0.64852  -0.64771  -0.64655  -0.64619  -0.64270
 Alpha  occ. eigenvalues --   -0.64203  -0.62295  -0.62281  -0.60442  -0.60339
 Alpha  occ. eigenvalues --   -0.59802  -0.59798  -0.58993  -0.58987  -0.58503
 Alpha  occ. eigenvalues --   -0.58427  -0.57582  -0.57557  -0.57309  -0.57237
 Alpha  occ. eigenvalues --   -0.56309  -0.56205  -0.55974  -0.55890  -0.55519
 Alpha  occ. eigenvalues --   -0.55453  -0.55339  -0.55248  -0.54522  -0.54489
 Alpha  occ. eigenvalues --   -0.53914  -0.53891  -0.53298  -0.53228  -0.53220
 Alpha  occ. eigenvalues --   -0.53143  -0.52913  -0.52904  -0.52755  -0.52667
 Alpha  occ. eigenvalues --   -0.52441  -0.52400  -0.51914  -0.51887  -0.51660
 Alpha  occ. eigenvalues --   -0.51614  -0.51203  -0.51195  -0.50572  -0.50474
 Alpha  occ. eigenvalues --   -0.50033  -0.49980  -0.49918  -0.49866  -0.49513
 Alpha  occ. eigenvalues --   -0.49488  -0.49213  -0.49204  -0.49106  -0.49093
 Alpha  occ. eigenvalues --   -0.48591  -0.48560  -0.48462  -0.48445  -0.48375
 Alpha  occ. eigenvalues --   -0.48338  -0.47693  -0.47595  -0.47296  -0.47118
 Alpha  occ. eigenvalues --   -0.46796  -0.46710  -0.46555  -0.46552  -0.46359
 Alpha  occ. eigenvalues --   -0.46271  -0.46162  -0.46086  -0.45825  -0.45820
 Alpha  occ. eigenvalues --   -0.45207  -0.45202  -0.44576  -0.44516  -0.44506
 Alpha  occ. eigenvalues --   -0.44477  -0.44145  -0.44128  -0.44086  -0.44078
 Alpha  occ. eigenvalues --   -0.44018  -0.43940  -0.43556  -0.43492  -0.43387
 Alpha  occ. eigenvalues --   -0.43384  -0.43026  -0.42933  -0.42903  -0.42697
 Alpha  occ. eigenvalues --   -0.42654  -0.42553  -0.42009  -0.41965  -0.41703
 Alpha  occ. eigenvalues --   -0.41670  -0.41531  -0.41460  -0.41140  -0.40990
 Alpha  occ. eigenvalues --   -0.40867  -0.40823  -0.40722  -0.40699  -0.40572
 Alpha  occ. eigenvalues --   -0.40493  -0.40229  -0.40229  -0.39444  -0.39424
 Alpha  occ. eigenvalues --   -0.38470  -0.38349  -0.37744  -0.37656  -0.37321
 Alpha  occ. eigenvalues --   -0.37266  -0.37261  -0.37201  -0.36775  -0.36710
 Alpha  occ. eigenvalues --   -0.36218  -0.36191  -0.34285  -0.34254  -0.33866
 Alpha  occ. eigenvalues --   -0.33766  -0.33185  -0.33176  -0.31346  -0.31272
 Alpha  occ. eigenvalues --   -0.31035  -0.30973  -0.30027  -0.29959  -0.29449
 Alpha  occ. eigenvalues --   -0.29327  -0.29321  -0.29213  -0.24080  -0.24037
 Alpha  occ. eigenvalues --   -0.21127  -0.21117
 Alpha virt. eigenvalues --   -0.08792  -0.08774  -0.01749  -0.01684  -0.00057
 Alpha virt. eigenvalues --   -0.00029   0.02201   0.02206   0.03120   0.03227
 Alpha virt. eigenvalues --    0.04720   0.04729   0.05102   0.05161   0.06180

 Mulliken charges:
               1
     1  Mg   0.838668
     2  C   -0.002951
     3  C   -0.094088
     4  C   -0.045880
     5  C   -0.063966
     6  N   -0.256768
     7  C   -0.052464
     8  C   -0.013991
     9  C   -0.087017
    10  C    0.046331
    11  C    0.104809
    12  C    0.053453
    13  C   -0.071838
    14  H    0.036201
    15  N   -0.433131
    16  C    0.168414
    17  C   -0.177140
    18  C   -0.004022
    19  C    0.148716
    20  C    0.110176
    21  C    0.012278
    22  O   -0.249671
    23  C    0.062475
    24  N   -0.341109
    25  C    0.041242
    26  C   -0.028166
    27  C   -0.023966
    28  C    0.074827
    29  C    0.076175
    30  C    0.035139
    31  C   -0.004496
    32  N   -0.310473
    33  C    0.080406
    34  C   -0.169726
    35  C    0.008355
    36  C    0.082992
    37  C    0.127316
    38  C    0.046121
    39  O   -0.188425
    40  C   -0.005334
    41  C    0.212879
    42  O   -0.257100
    43  O   -0.304800
    44  C    0.157687
    45  H   -0.017577
    46  H   -0.016870
    47  H   -0.041518
    48  H    0.000954
    49  H   -0.003996
    50  H    0.025477
    51  H    0.016431
    52  H    0.016687
    53  H    0.011216
    54  H    0.044126
    55  H    0.017874
    56  H    0.017978
    57  H    0.005908
    58  H    0.026823
    59  H    0.039571
    60  H    0.037365
    61  H    0.035611
    62  H    0.031519
    63  H    0.016516
    64  H    0.009451
    65  H    0.023176
    66  H    0.012562
    67  H    0.004746
    68  H    0.006325
    69  H    0.004722
    70  H    0.008748
    71  H    0.018105
    72  H    0.029017
    73  H    0.047568
    74  H    0.009085
    75  H    0.046010
    76  H    0.035163
    77  H    0.042958
    78  H    0.046428
    79  H    0.053700
    80  Mg   0.837906
    81  C   -0.016841
    82  C   -0.087794
    83  C   -0.045489
    84  C   -0.064863
    85  N   -0.254578
    86  C   -0.049849
    87  C   -0.015099
    88  C   -0.090492
    89  C    0.045746
    90  C    0.114372
    91  C    0.062543
    92  C   -0.077896
    93  H    0.034873
    94  N   -0.423515
    95  C    0.162933
    96  C   -0.174588
    97  C   -0.007782
    98  C    0.152134
    99  C    0.099351
   100  C    0.015591
   101  O   -0.253127
   102  C    0.061187
   103  N   -0.350054
   104  C    0.037529
   105  C   -0.019844
   106  C   -0.034827
   107  C    0.088911
   108  C    0.073623
   109  C    0.034739
   110  C   -0.007679
   111  N   -0.324100
   112  C    0.078444
   113  C   -0.163136
   114  C    0.002227
   115  C    0.096184
   116  C    0.131483
   117  C    0.042366
   118  O   -0.187939
   119  C    0.000898
   120  C    0.211256
   121  O   -0.251011
   122  O   -0.305636
   123  C    0.152036
   124  H   -0.019628
   125  H   -0.015516
   126  H   -0.040440
   127  H   -0.000670
   128  H   -0.004322
   129  H    0.022447
   130  H    0.014471
   131  H    0.016298
   132  H    0.013925
   133  H    0.037664
   134  H    0.020776
   135  H    0.019607
   136  H    0.008770
   137  H    0.026206
   138  H    0.039809
   139  H    0.038286
   140  H    0.036437
   141  H    0.033884
   142  H    0.014411
   143  H    0.012465
   144  H    0.025197
   145  H    0.011679
   146  H    0.005737
   147  H    0.006307
   148  H    0.003645
   149  H    0.010949
   150  H    0.017925
   151  H    0.030074
   152  H    0.045978
   153  H    0.008528
   154  H    0.046943
   155  H    0.035016
   156  H    0.043878
   157  H    0.049497
   158  H    0.053574
 Sum of Mulliken charges =  -0.00000

 Dipole moment (field-independent basis, Debye):
    X=              3.7965    Y=              5.1659    Z=              1.4584  Tot=              6.5747
 Quadrupole moment (field-independent basis, Debye-Ang):
   XX=           -517.9931   YY=           -510.0814   ZZ=           -488.7074
   XY=             30.3216   XZ=            -99.2410   YZ=              9.9681

 Normal termination of Gaussian 16 at Sun Sep 12 15:54:40 2021.
