 Gaussian 16, Revision A.03,
 Gaussian 16:  ES64L-G16RevA.03 25-Dec-2016

 -----------------------------------
 #p cam-b3lyp/Def2SVP td=(nstates=5)
 -----------------------------------

 --------------------------------
 TDDFT excited states in gaussian
 --------------------------------
 Symbolic Z-matrix:
 Charge =  0 Multiplicity = 1

                         Standard orientation:
 ---------------------------------------------------------------------
 Center     Atomic      Atomic             Coordinates (Angstroms)
 Number     Number       Type             X           Y           Z
 ---------------------------------------------------------------------
      1         12           0       -4.441395   -0.616961    0.015941
      2          6           0       -4.529266    2.900140    0.675104
      3          6           0       -5.245563    0.119822   -3.217251
      4          6           0       -4.815547   -3.725900   -0.485187
      5          6           0       -4.768956   -1.118926    3.449073
      6          7           0       -4.812489    1.304571   -1.018782
      7          6           0       -4.755949    2.585160   -0.666555
      8          6           0       -4.885229    3.563759   -1.871962
      9          6           0       -5.657963    2.609614   -2.889059
     10          6           0       -5.183916    1.264368   -2.367987
     11          6           0       -7.175894    2.680255   -2.757152
     12          6           0       -3.491179    3.996275   -2.438784
     13          6           0       -3.517096    5.192464   -3.394720
     14          1           0       -2.407818    6.133833   -3.368723
     15          7           0       -4.473869   -1.648351   -1.668704
     16          6           0       -4.809756   -1.183975   -2.896230
     17          6           0       -4.677580   -2.333448   -3.817057
     18          6           0       -4.421393   -3.548294   -2.994492
     19          6           0       -4.588218   -3.020435   -1.664487
     20          6           0       -4.746564   -2.205595   -5.307910
     21          6           0       -4.090668   -4.963120   -3.350890
     22          8           0       -4.136767   -5.909368   -2.492365
     23          6           0       -3.793296   -5.230851   -4.769668
     24          7           0       -4.968534   -2.203497    1.266006
     25          6           0       -5.001031   -3.460302    0.809533
     26          6           0       -5.123284   -4.446353    1.933231
     27          6           0       -4.922596   -3.610313    3.278785
     28          6           0       -4.793954   -2.196100    2.660949
     29          6           0       -6.447932   -5.218479    2.004929
     30          6           0       -3.816214   -4.094678    4.249213
     31          6           0       -2.456458   -3.894176    3.618371
     32          7           0       -4.442152    0.634833    1.789090
     33          6           0       -4.616369    0.216682    3.116295
     34          6           0       -4.649548    1.431575    3.951162
     35          6           0       -4.508025    2.479723    3.043858
     36          6           0       -4.420036    1.954244    1.723092
     37          6           0       -4.853517    1.470131    5.358764
     38          6           0       -4.435405    3.922604    2.880523
     39          8           0       -4.363117    4.880105    3.652182
     40          6           0       -4.568663    4.258645    1.329669
     41          6           0       -3.481392    5.238539    0.981879
     42          8           0       -2.280479    4.901118    1.018236
     43          8           0       -4.029237    6.335427    0.436678
     44          6           0       -3.002246    7.336078    0.041532
     45          1           0       -5.723598    0.212745   -4.194383
     46          1           0       -4.840124   -4.811432   -0.601177
     47          1           0       -4.783509   -1.201555    4.537381
     48          1           0       -5.480511    4.454892   -1.672101
     49          1           0       -5.326067    2.756264   -3.916707
     50          1           0       -7.473570    3.279337   -1.896681
     51          1           0       -7.505774    1.648380   -2.635064
     52          1           0       -7.629310    3.032088   -3.684193
     53          1           0       -3.123722    3.225407   -3.116131
     54          1           0       -2.790664    4.198070   -1.627684
     55          1           0       -4.468839    5.722166   -3.344617
     56          1           0       -3.470875    4.814500   -4.416095
     57          1           0       -5.108751   -1.223495   -5.609317
     58          1           0       -5.516463   -2.896221   -5.651421
     59          1           0       -3.796608   -2.447227   -5.784910
     60          1           0       -4.651641   -4.944121   -5.377599
     61          1           0       -3.492349   -6.276592   -4.821685
     62          1           0       -2.967718   -4.591709   -5.084099
     63          1           0       -4.349805   -5.210554    1.868794
     64          1           0       -5.825176   -3.596500    3.890203
     65          1           0       -6.325404   -6.301540    1.979000
     66          1           0       -7.081783   -4.876938    1.187082
     67          1           0       -7.066840   -4.984936    2.870854
     68          1           0       -3.924494   -5.160761    4.445907
     69          1           0       -3.828676   -3.577462    5.208683
     70          1           0       -2.342138   -4.782901    2.998750
     71          1           0       -1.683391   -3.851579    4.386331
     72          1           0       -2.449570   -3.030276    2.953453
     73          1           0       -4.134713    2.189162    5.751554
     74          1           0       -4.714387    0.486205    5.806129
     75          1           0       -5.889216    1.806544    5.403583
     76          1           0       -5.562384    4.681308    1.184770
     77          1           0       -3.256684    8.271297    0.540392
     78          1           0       -2.972415    7.335721   -1.048199
     79          1           0       -1.993978    7.167814    0.421562
     80         12           0        4.555527   -0.932474    0.135527
     81          6           0        4.479002    2.646990   -0.110660
     82          6           0        3.721083   -1.028494   -3.170389
     83          6           0        4.173454   -4.068961    0.425137
     84          6           0        4.252353   -0.562799    3.587647
     85          7           0        4.176760    0.669264   -1.342044
     86          6           0        4.237258    1.992391   -1.336415
     87          6           0        4.106502    2.648184   -2.737273
     88          6           0        3.315052    1.466527   -3.483043
     89          6           0        3.789454    0.284582   -2.640052
     90          6           0        1.805296    1.574353   -3.347581
     91          6           0        5.501213    2.915774   -3.404516
     92          6           0        5.462594    3.830544   -4.630665
     93          1           0        6.580310    4.743543   -4.853395
     94          7           0        4.508785   -2.353776   -1.248771
     95          6           0        4.168994   -2.214048   -2.547350
     96          6           0        4.274701   -3.557364   -3.137672
     97          6           0        4.544957   -4.530226   -2.044415
     98          6           0        4.395635   -3.672820   -0.885687
     99          6           0        4.201064   -3.804402   -4.616510
    100          6           0        4.869823   -5.993323   -2.041629
    101          8           0        4.830964   -6.689644   -0.966241
    102          6           0        5.143655   -6.606565   -3.349464
    103          7           0        4.044312   -2.148145    1.742751
    104          6           0        3.999247   -3.485521    1.611120
    105          6           0        3.881960   -4.162350    2.955935
    106          6           0        4.101981   -3.006631    4.039212
    107          6           0        4.225119   -1.792548    3.092516
    108          6           0        2.555835   -4.871147    3.230530
    109          6           0        5.216819   -3.235781    5.096233
    110          6           0        6.572900   -3.217567    4.428329
    111          7           0        4.578540    0.716684    1.531165
    112          6           0        4.408699    0.651460    2.931511
    113          6           0        4.386398    2.041024    3.432558
    114          6           0        4.522809    2.825097    2.277087
    115          6           0        4.602765    1.984125    1.134344
    116          6           0        4.205826    2.433492    4.788832
    117          6           0        4.606674    4.173266    1.763166
    118          8           0        4.681013    5.292538    2.268570
    119          6           0        4.454949    4.121611    0.181806
    120          6           0        5.541178    4.972474   -0.417078
    121          8           0        6.736177    4.650890   -0.293966
    122          8           0        4.983861    5.900415   -1.216255
    123          6           0        6.022015    6.761997   -1.842141
    124          1           0        3.240799   -1.172633   -4.138603
    125          1           0        4.144994   -5.148054    0.593205
    126          1           0        4.259702   -0.366041    4.661842
    127          1           0        3.521075    3.559536   -2.759354
    128          1           0        3.646062    1.357798   -4.512587
    129          1           0        1.516972    2.364632   -2.670469
    130          1           0        1.474369    0.614910   -2.972079
    131          1           0        1.345441    1.687010   -4.333571
    132          1           0        5.857911    1.989224   -3.872510
    133          1           0        6.198877    3.302221   -2.687200
    134          1           0        4.507907    4.363451   -4.717455
    135          1           0        5.505338    3.209302   -5.528587
    136          1           0        3.831388   -2.922304   -5.153770
    137          1           0        3.427497   -4.563393   -4.775783
    138          1           0        5.143914   -4.168509   -5.030198
    139          1           0        4.282069   -6.471742   -3.999043
    140          1           0        5.442396   -7.634193   -3.133571
    141          1           0        5.977872   -6.072848   -3.818342
    142          1           0        4.653733   -4.912025    3.080196
    143          1           0        3.200382   -2.840949    4.647097
    144          1           0        2.676678   -5.942822    3.477456
    145          1           0        1.918354   -4.749931    2.364819
    146          1           0        1.953455   -4.432535    4.024236
    147          1           0        5.108866   -4.222799    5.552626
    148          1           0        5.206827   -2.506681    5.899550
    149          1           0        6.673850   -4.238057    4.046899
    150          1           0        7.352925   -2.987450    5.151275
    151          1           0        6.577676   -2.541226    3.565662
    152          1           0        4.922539    3.220251    4.983341
    153          1           0        4.342119    1.593853    5.467216
    154          1           0        3.166510    2.771302    4.757396
    155          1           0        3.460069    4.494816   -0.064203
    156          1           0        5.771032    7.797479   -1.592207
    157          1           0        6.029103    6.490171   -2.914438
    158          1           0        7.032194    6.690198   -1.456337
 ---------------------------------------------------------------------

 SCF Done:  E(RCAM-B3LYP) =  -4069.81123135     A.U. after   19 cycles

 Excitation energies and oscillator strengths:

 Excited State   1:      Singlet-A      1.6481 eV  752.28 nm  f=0.0136  <S**2>=0.000
     309 -> 315       -0.11488
     310 -> 316        0.12102
     311 -> 313       -0.47154
     312 -> 314        0.50047
 This state for optimization and/or second-order correction.
 Total Energy, E(TD-HF/TD-DFT) =  -4069.75066429
 Copying the excited state density for this state as the 1-particle RhoCI density.

 Excited State   2:      Singlet-A      1.7036 eV  727.76 nm  f=0.6814  <S**2>=0.000
     309 -> 315        0.13234
     310 -> 316        0.12402
     311 -> 313        0.49789
     312 -> 314        0.46922

 Excited State   3:      Singlet-A      2.1812 eV  568.43 nm  f=0.0136  <S**2>=0.000
     309 -> 313       -0.34129
     310 -> 314        0.54703
     311 -> 315        0.14161
     312 -> 316       -0.22858

 Excited State   4:      Singlet-A      2.1953 eV  564.76 nm  f=0.1624  <S**2>=0.000
     309 -> 313        0.54251
     310 -> 314        0.33684
     311 -> 315       -0.23906
     312 -> 316       -0.14974

 Excited State   5:      Singlet-A      2.3486 eV  527.91 nm  f=0.0000  <S**2>=0.000
     312 -> 313        0.70709

 The electronic state is 1-A.
 Alpha  occ. eigenvalues --  -46.87894 -46.87436 -19.26286 -19.26157 -19.19032
 Alpha  occ. eigenvalues --  -19.18953 -19.18916 -19.18512 -19.18223 -19.17757
 Alpha  occ. eigenvalues --  -14.42554 -14.42282 -14.41545 -14.41140 -14.39503
 Alpha  occ. eigenvalues --  -14.39130 -14.38679 -14.38357 -10.39098 -10.38873
 Alpha  occ. eigenvalues --  -10.35553 -10.35194 -10.34443 -10.33932 -10.31646
 Alpha  occ. eigenvalues --  -10.31613 -10.31505 -10.31082 -10.31017 -10.30820
 Alpha  occ. eigenvalues --  -10.30667 -10.30597 -10.30311 -10.30155 -10.30118
 Alpha  occ. eigenvalues --  -10.30003 -10.29948 -10.29728 -10.29660 -10.29358
 Alpha  occ. eigenvalues --  -10.29223 -10.29163 -10.28875 -10.28710 -10.28571
 Alpha  occ. eigenvalues --  -10.28543 -10.28460 -10.28237 -10.28168 -10.27973
 Alpha  occ. eigenvalues --  -10.27886 -10.27835 -10.27755 -10.27688 -10.27641
 Alpha  occ. eigenvalues --  -10.27594 -10.27526 -10.27496 -10.27468 -10.27350
 Alpha  occ. eigenvalues --  -10.27332 -10.27252 -10.27238 -10.27212 -10.27198
 Alpha  occ. eigenvalues --  -10.26876 -10.26752 -10.26559 -10.26558 -10.26337
 Alpha  occ. eigenvalues --  -10.26292 -10.26257 -10.26119 -10.25993 -10.25918
 Alpha  occ. eigenvalues --  -10.25856 -10.25717 -10.25516 -10.25500 -10.25239
 Alpha  occ. eigenvalues --  -10.24920 -10.24876 -10.24815 -10.24611 -10.24588
 Alpha  occ. eigenvalues --  -10.24464  -3.16637  -3.16186  -1.91519  -1.91105
 Alpha  occ. eigenvalues --   -1.91069  -1.90947  -1.90658  -1.90494  -1.16638
 Alpha  occ. eigenvalues --   -1.16447  -1.08674  -1.08359  -1.07315  -1.06766
 Alpha  occ. eigenvalues --   -1.06736  -1.06655  -1.04684  -1.04276  -1.03857
 Alpha  occ. eigenvalues --   -1.03441  -1.03329  -1.02813  -1.02506  -1.01881
 Alpha  occ. eigenvalues --   -0.92055  -0.91739  -0.89614  -0.89310  -0.89292
 Alpha  occ. eigenvalues --   -0.88976  -0.88378  -0.88030  -0.87959  -0.87782
 Alpha  occ. eigenvalues --   -0.87529  -0.87474  -0.87393  -0.86924  -0.85101
 Alpha  occ. eigenvalues --   -0.84819  -0.84024  -0.83690  -0.83087  -0.82753
 Alpha  occ. eigenvalues --   -0.82752  -0.82470  -0.81643  -0.81386  -0.80679
 Alpha  occ. eigenvalues --   -0.80234  -0.78908  -0.78419  -0.77326  -0.77026
 Alpha  occ. eigenvalues --   -0.76954  -0.76716  -0.76007  -0.75639  -0.74979
 Alpha  occ. eigenvalues --   -0.74614  -0.72870  -0.72469  -0.71762  -0.71375
 Alpha  occ. eigenvalues --   -0.70006  -0.69587  -0.68985  -0.68642  -0.67733
 Alpha  occ. eigenvalues --   -0.67385  -0.67353  -0.67030  -0.65396  -0.65080
 Alpha  occ. eigenvalues --   -0.64937  -0.64707  -0.64559  -0.64457  -0.64361
 Alpha  occ. eigenvalues --   -0.64009  -0.62340  -0.62076  -0.60550  -0.60138
 Alpha  occ. eigenvalues --   -0.59916  -0.59599  -0.59077  -0.58775  -0.58590
 Alpha  occ. eigenvalues --   -0.58205  -0.57642  -0.57391  -0.57296  -0.57022
 Alpha  occ. eigenvalues --   -0.56406  -0.56027  -0.55983  -0.55698  -0.55619
 Alpha  occ. eigenvalues --   -0.55410  -0.55250  -0.55049  -0.54583  -0.54299
 Alpha  occ. eigenvalues --   -0.54015  -0.53739  -0.53400  -0.53330  -0.53020
 Alpha  occ. eigenvalues --   -0.52990  -0.52947  -0.52879  -0.52709  -0.52537
 Alpha  occ. eigenvalues --   -0.52495  -0.52231  -0.51993  -0.51735  -0.51583
 Alpha  occ. eigenvalues --   -0.51479  -0.51278  -0.50978  -0.50713  -0.50310
 Alpha  occ. eigenvalues --   -0.50137  -0.50033  -0.49800  -0.49683  -0.49624
 Alpha  occ. eigenvalues --   -0.49304  -0.49296  -0.49198  -0.48992  -0.48887
 Alpha  occ. eigenvalues --   -0.48666  -0.48558  -0.48519  -0.48348  -0.48180
 Alpha  occ. eigenvalues --   -0.48135  -0.47796  -0.47410  -0.47391  -0.46933
 Alpha  occ. eigenvalues --   -0.46896  -0.46672  -0.46513  -0.46450  -0.46382
 Alpha  occ. eigenvalues --   -0.46236  -0.46066  -0.45887  -0.45861  -0.45589
 Alpha  occ. eigenvalues --   -0.45288  -0.45015  -0.44655  -0.44623  -0.44323
 Alpha  occ. eigenvalues --   -0.44268  -0.44244  -0.44203  -0.44099  -0.43926
 Alpha  occ. eigenvalues --   -0.43886  -0.43727  -0.43553  -0.43491  -0.43358
 Alpha  occ. eigenvalues --   -0.43187  -0.43114  -0.42777  -0.42728  -0.42691
 Alpha  occ. eigenvalues --   -0.42675  -0.42367  -0.42108  -0.41789  -0.41784
 Alpha  occ. eigenvalues --   -0.41651  -0.41432  -0.41283  -0.41235  -0.40985
 Alpha  occ. eigenvalues --   -0.40940  -0.40789  -0.40664  -0.40548  -0.40525
 Alpha  occ. eigenvalues --   -0.40382  -0.40306  -0.40075  -0.39544  -0.39257
 Alpha  occ. eigenvalues --   -0.38567  -0.38172  -0.37879  -0.37499  -0.37417
 Alpha  occ. eigenvalues --   -0.37378  -0.37071  -0.37001  -0.36754  -0.36577
 Alpha  occ. eigenvalues --   -0.36259  -0.36023  -0.34380  -0.34029  -0.33798
 Alpha  occ. eigenvalues --   -0.33647  -0.33275  -0.32951  -0.31444  -0.31129
 Alpha  occ. eigenvalues --   -0.31072  -0.30750  -0.30080  -0.29661  -0.29550
 Alpha  occ. eigenvalues --   -0.29409  -0.29102  -0.28943  -0.24175  -0.23805
 Alpha  occ. eigenvalues --   -0.21227  -0.20893
 Alpha virt. eigenvalues --   -0.08872  -0.08558  -0.01847  -0.01467  -0.00161
 Alpha virt. eigenvalues --    0.00187   0.02123   0.02467   0.02847   0.03493
 Alpha virt. eigenvalues --    0.04605   0.04930   0.05070   0.05386   0.06041

 Mulliken charges:
               1
     1  Mg   0.838639
     2  C   -0.002999
     3  C   -0.095121
     4  C   -0.045376
     5  C   -0.064006
     6  N   -0.256686
     7  C   -0.052744
     8  C   -0.013739
     9  C   -0.086839
    10  C    0.045989
    11  C    0.104803
    12  C    0.053649
    13  C   -0.071671
    14  H    0.035841
    15  N   -0.433125
    16  C    0.168109
    17  C   -0.177982
    18  C   -0.004121
    19  C    0.148844
    20  C    0.110346
    21  C    0.012496
    22  O   -0.248722
    23  C    0.062740
    24  N   -0.341091
    25  C    0.041119
    26  C   -0.028413
    27  C   -0.023946
    28  C    0.074925
    29  C    0.076045
    30  C    0.035021
    31  C   -0.005747
    32  N   -0.310603
    33  C    0.080698
    34  C   -0.169656
    35  C    0.008755
    36  C    0.083247
    37  C    0.127246
    38  C    0.046586
    39  O   -0.187146
    40  C   -0.005500
    41  C    0.213236
    42  O   -0.256757
    43  O   -0.305085
    44  C    0.156780
    45  H   -0.017831
    46  H   -0.016423
    47  H   -0.041444
    48  H    0.001488
    49  H   -0.004773
    50  H    0.025793
    51  H    0.016611
    52  H    0.016631
    53  H    0.009530
    54  H    0.043972
    55  H    0.018755
    56  H    0.016964
    57  H    0.005543
    58  H    0.027135
    59  H    0.037624
    60  H    0.037400
    61  H    0.035944
    62  H    0.029637
    63  H    0.017137
    64  H    0.009717
    65  H    0.023604
    66  H    0.012560
    67  H    0.004837
    68  H    0.006775
    69  H    0.004402
    70  H    0.010349
    71  H    0.016843
    72  H    0.029619
    73  H    0.048029
    74  H    0.008891
    75  H    0.046360
    76  H    0.035292
    77  H    0.043807
    78  H    0.045479
    79  H    0.055787
    80  Mg   0.837832
    81  C   -0.015716
    82  C   -0.088137
    83  C   -0.045203
    84  C   -0.064444
    85  N   -0.254450
    86  C   -0.048768
    87  C   -0.015054
    88  C   -0.090831
    89  C    0.045837
    90  C    0.113710
    91  C    0.062687
    92  C   -0.077276
    93  H    0.034300
    94  N   -0.423391
    95  C    0.162678
    96  C   -0.175350
    97  C   -0.007805
    98  C    0.151635
    99  C    0.099742
   100  C    0.015566
   101  O   -0.253424
   102  C    0.061353
   103  N   -0.349913
   104  C    0.037149
   105  C   -0.019882
   106  C   -0.034835
   107  C    0.089191
   108  C    0.073593
   109  C    0.034787
   110  C   -0.007505
   111  N   -0.324704
   112  C    0.079253
   113  C   -0.161497
   114  C    0.004325
   115  C    0.096170
   116  C    0.130500
   117  C    0.045128
   118  O   -0.186839
   119  C   -0.000313
   120  C    0.210727
   121  O   -0.251665
   122  O   -0.305319
   123  C    0.152269
   124  H   -0.021683
   125  H   -0.015839
   126  H   -0.040436
   127  H   -0.000293
   128  H   -0.005789
   129  H    0.026778
   130  H    0.014269
   131  H    0.012712
   132  H    0.013635
   133  H    0.037775
   134  H    0.020064
   135  H    0.018819
   136  H    0.007276
   137  H    0.024953
   138  H    0.039091
   139  H    0.037912
   140  H    0.035991
   141  H    0.033344
   142  H    0.013976
   143  H    0.011886
   144  H    0.024364
   145  H    0.013131
   146  H    0.004427
   147  H    0.005566
   148  H    0.003595
   149  H    0.010712
   150  H    0.017605
   151  H    0.030399
   152  H    0.045472
   153  H    0.007374
   154  H    0.051762
   155  H    0.039556
   156  H    0.043404
   157  H    0.048676
   158  H    0.053324
 Sum of Mulliken charges =  -0.00000

 Dipole moment (field-independent basis, Debye):
    X=             -4.1041    Y=             -1.8815    Z=             -7.2610  Tot=              8.5501
 Quadrupole moment (field-independent basis, Debye-Ang):
   XX=           -518.8195   YY=           -549.1442   ZZ=           -450.1652
   XY=             -9.1864   XZ=             -0.7522   YZ=            -46.3393

 Normal termination of Gaussian 16 at Fri Sep 10 04:06:08 2021.
