 Gaussian 16, Revision A.03,
 Gaussian 16:  ES64L-G16RevA.03 25-Dec-2016

 -----------------------------------
 #p cam-b3lyp/Def2SVP td=(nstates=5)
 -----------------------------------

 --------------------------------
 TDDFT excited states in gaussian
 --------------------------------
 Symbolic Z-matrix:
 Charge =  0 Multiplicity = 1

                         Standard orientation:
 ---------------------------------------------------------------------
 Center     Atomic      Atomic             Coordinates (Angstroms)
 Number     Number       Type             X           Y           Z
 ---------------------------------------------------------------------
      1         12           0        5.075881    1.155857    0.344980
      2          6           0        6.062701   -2.114529   -0.724120
      3          6           0        5.766970    2.235799   -2.817169
      4          6           0        4.647185    4.122183    1.381200
      5          6           0        5.552187    0.067597    3.621332
      6          7           0        5.813472    0.098887   -1.454859
      7          6           0        6.096330   -1.166283   -1.748982
      8          6           0        6.358784   -1.404044   -3.266204
      9          6           0        6.792895    0.072926   -3.681057
     10          6           0        6.052709    0.853693   -2.609399
     11          6           0        8.288626    0.332549   -3.533112
     12          6           0        5.068622   -1.857478   -4.028838
     13          6           0        5.303966   -2.421926   -5.432892
     14          1           0        4.460324   -3.511587   -5.900071
     15          7           0        4.720944    2.823081   -0.653636
     16          6           0        5.057410    3.084011   -1.939712
     17          6           0        4.577198    4.454940   -2.216533
     18          6           0        4.103773    5.039464   -0.931116
     19          6           0        4.501059    4.014665    0.000189
     20          6           0        4.552899    5.057047   -3.587892
     21          6           0        3.413703    6.323347   -0.594100
     22          8           0        3.300303    6.738979    0.609629
     23          6           0        2.945634    7.135830   -1.731564
     24          7           0        5.305295    2.053701    2.215509
     25          6           0        4.996401    3.341126    2.405527
     26          6           0        4.968720    3.686339    3.864979
     27          6           0        5.086174    2.300443    4.649359
     28          6           0        5.252248    1.354876    3.434208
     29          6           0        6.069423    4.640935    4.347897
     30          6           0        3.978768    1.982687    5.685266
     31          6           0        2.660600    1.764603    4.976768
     32          7           0        5.523327   -0.731301    1.319388
     33          6           0        5.699449   -0.949816    2.693399
     34          6           0        6.092673   -2.361152    2.859452
     35          6           0        6.134376   -2.864557    1.560726
     36          6           0        5.814657   -1.826290    0.639816
     37          6           0        6.414250   -2.997317    4.090840
     38          6           0        6.398681   -4.031772    0.735131
     39          8           0        6.622689   -5.221665    0.961995
     40          6           0        6.481829   -3.562375   -0.784270
     41          6           0        5.638211   -4.505386   -1.598118
     42          8           0        4.398483   -4.537217   -1.458735
     43          8           0        6.387912   -5.045565   -2.571101
     44          6           0        5.603722   -5.969047   -3.433877
     45          1           0        6.171807    2.731305   -3.701772
     46          1           0        4.399751    5.103869    1.790474
     47          1           0        5.635278   -0.364731    4.620152
     48          1           0        7.165639   -2.104140   -3.483633
     49          1           0        6.423309    0.343052   -4.670077
     50          1           0        8.791253   -0.501516   -3.043599
     51          1           0        8.368829    1.234580   -2.926153
     52          1           0        8.736171    0.578775   -4.496363
     53          1           0        4.472060   -0.980250   -4.279129
     54          1           0        4.506124   -2.581807   -3.438694
     55          1           0        6.356158   -2.656075   -5.597132
     56          1           0        5.084672   -1.637647   -6.157471
     57          1           0        5.115307    4.454348   -4.299929
     58          1           0        5.102850    5.996330   -3.533020
     59          1           0        3.537002    5.245618   -3.935349
     60          1           0        3.795148    7.390541   -2.365596
     61          1           0        2.398222    7.972291   -1.298525
     62          1           0        2.275657    6.532265   -2.344581
     63          1           0        4.031208    4.170972    4.134477
     64          1           0        6.012314    2.230881    5.220411
     65          1           0        5.687687    5.541721    4.829109
     66          1           0        6.697901    4.890398    3.493453
     67          1           0        6.795013    4.195278    5.027842
     68          1           0        3.842521    2.823450    6.364603
     69          1           0        4.193931    1.100505    6.288351
     70          1           0        2.285137    2.778570    4.843606
     71          1           0        1.986032    1.177283    5.600646
     72          1           0        2.807887    1.338683    3.984102
     73          1           0        5.924587   -3.970810    4.068234
     74          1           0        6.079038   -2.404969    4.941933
     75          1           0        7.500598   -3.043845    4.016424
     76          1           0        7.532873   -3.604430   -1.068276
     77          1           0        6.116027   -6.931159   -3.423041
     78          1           0        5.485734   -5.469439   -4.395582
     79          1           0        4.619162   -6.255968   -3.062857
     80         12           0       -5.237646   -1.247515    0.205625
     81          6           0       -5.759660    1.982835   -1.267944
     82          6           0       -4.752338    0.352431    3.178710
     83          6           0       -4.331600   -4.026611    1.439782
     84          6           0       -4.634584   -2.461009   -3.005206
     85          7           0       -5.277449    0.894080    0.757185
     86          6           0       -5.547345    2.026693    0.125773
     87          6           0       -5.671551    3.265844    1.052408
     88          6           0       -4.784919    2.736318    2.282188
     89          6           0       -4.972958    1.232913    2.089592
     90          6           0       -3.305959    3.054906    2.138944
     91          6           0       -7.153632    3.539725    1.488792
     92          6           0       -7.391142    4.905236    2.137442
     93          1           0       -8.657408    5.586289    1.882099
     94          7           0       -5.111136   -1.832184    2.097908
     95          6           0       -4.937026   -1.047642    3.182085
     96          6           0       -4.888759   -1.959840    4.335230
     97          6           0       -4.883377   -3.358545    3.826970
     98          6           0       -4.751282   -3.121233    2.403478
     99          6           0       -4.933204   -1.478080    5.756267
    100          6           0       -4.968489   -4.689746    4.510222
    101          8           0       -4.705714   -5.781653    3.892556
    102          6           0       -5.277499   -4.670401    5.947459
    103          7           0       -4.372216   -2.944764   -0.626682
    104          6           0       -4.128496   -4.034573    0.122217
    105          6           0       -3.763395   -5.218866   -0.740647
    106          6           0       -4.049384   -4.758587   -2.245288
    107          6           0       -4.463915   -3.293337   -1.987242
    108          6           0       -2.319689   -5.707174   -0.623793
    109          6           0       -4.995471   -5.656899   -3.088287
    110          6           0       -6.399918   -5.591481   -2.532753
    111          7           0       -5.376026   -0.466077   -1.803913
    112          6           0       -5.051069   -1.135892   -3.003846
    113          6           0       -5.197998   -0.158343   -4.101674
    114          6           0       -5.578986    1.027960   -3.456670
    115          6           0       -5.643927    0.810735   -2.053784
    116          6           0       -4.940185   -0.409122   -5.478904
    117          6           0       -5.930673    2.417361   -3.642589
    118          8           0       -6.128868    3.140234   -4.618251
    119          6           0       -5.940464    3.130599   -2.222167
    120          6           0       -7.205615    3.937240   -2.116165
    121          8           0       -8.314234    3.374134   -2.094074
    122          8           0       -6.891033    5.216103   -1.840640
    123          6           0       -8.113564    6.053637   -1.715029
    124          1           0       -4.360142    0.765403    4.108504
    125          1           0       -4.113745   -5.033909    1.802249
    126          1           0       -4.559789   -2.787149   -4.044785
    127          1           0       -5.244681    4.177388    0.651611
    128          1           0       -5.201164    3.053717    3.234735
    129          1           0       -3.077560    3.482560    1.174010
    130          1           0       -2.788407    2.113281    2.267523
    131          1           0       -2.976663    3.694725    2.962667
    132          1           0       -7.405312    2.884539    2.332668
    133          1           0       -7.824341    3.411030    0.661616
    134          1           0       -6.548293    5.588959    1.979147
    135          1           0       -7.428778    4.772658    3.221425
    136          1           0       -4.767829   -0.395455    5.819340
    137          1           0       -4.069638   -1.915102    6.269218
    138          1           0       -5.844216   -1.782508    6.275937
    139          1           0       -4.521918   -4.089935    6.471507
    140          1           0       -5.383963   -5.717476    6.237598
    141          1           0       -6.230971   -4.150568    6.093340
    142          1           0       -4.388179   -6.072897   -0.509636
    143          1           0       -3.126702   -4.723523   -2.843008
    144          1           0       -2.241232   -6.772841   -0.336983
    145          1           0       -1.804723   -5.081541    0.093106
    146          1           0       -1.714625   -5.578238   -1.519604
    147          1           0       -4.683841   -6.702187   -3.021946
    148          1           0       -5.017181   -5.393472   -4.140487
    149          1           0       -6.376437   -6.319291   -1.716155
    150          1           0       -7.125920   -5.873951   -3.292471
    151          1           0       -6.603596   -4.608478   -2.092444
    152          1           0       -5.748660    0.046548   -6.035002
    153          1           0       -4.868364   -1.475556   -5.682184
    154          1           0       -3.977293    0.096119   -5.592232
    155          1           0       -5.049486    3.756983   -2.163965
    156          1           0       -8.006057    6.883644   -2.420167
    157          1           0       -8.190361    6.311093   -0.641917
    158          1           0       -9.052890    5.621113   -2.039129
 ---------------------------------------------------------------------

 SCF Done:  E(RCAM-B3LYP) =  -4069.81192096     A.U. after   19 cycles

 Excitation energies and oscillator strengths:

 Excited State   1:      Singlet-A      1.6614 eV  746.28 nm  f=0.0873  <S**2>=0.000
     309 -> 315       -0.10811
     310 -> 316       -0.13185
     311 -> 313       -0.43562
     312 -> 314        0.53106
 This state for optimization and/or second-order correction.
 Total Energy, E(TD-HF/TD-DFT) =  -4069.75086669
 Copying the excited state density for this state as the 1-particle RhoCI density.

 Excited State   2:      Singlet-A      1.6911 eV  733.15 nm  f=0.6258  <S**2>=0.000
     309 -> 315        0.13784
     310 -> 316       -0.11261
     311 -> 313        0.52950
     312 -> 314        0.43438

 Excited State   3:      Singlet-A      2.1834 eV  567.85 nm  f=0.0482  <S**2>=0.000
     309 -> 313        0.23984
     310 -> 314        0.59755
     311 -> 315       -0.10034
     312 -> 316        0.25098

 Excited State   4:      Singlet-A      2.1946 eV  564.96 nm  f=0.1393  <S**2>=0.000
     309 -> 313        0.59395
     310 -> 314       -0.23739
     311 -> 315       -0.25979
     312 -> 316       -0.10480

 Excited State   5:      Singlet-A      2.4858 eV  498.77 nm  f=0.0000  <S**2>=0.000
     312 -> 313        0.70709

 The electronic state is 1-A.
 Alpha  occ. eigenvalues --  -46.87884 -46.87493 -19.26365 -19.26273 -19.19104
 Alpha  occ. eigenvalues --  -19.19074 -19.18898 -19.18548 -19.18239 -19.17946
 Alpha  occ. eigenvalues --  -14.42533 -14.42332 -14.41546 -14.41176 -14.39488
 Alpha  occ. eigenvalues --  -14.39188 -14.38671 -14.38444 -10.39163 -10.39001
 Alpha  occ. eigenvalues --  -10.35528 -10.35225 -10.34460 -10.34124 -10.31763
 Alpha  occ. eigenvalues --  -10.31695 -10.31483 -10.31162 -10.30985 -10.30862
 Alpha  occ. eigenvalues --  -10.30650 -10.30599 -10.30308 -10.30238 -10.30220
 Alpha  occ. eigenvalues --  -10.30026 -10.29944 -10.29711 -10.29703 -10.29336
 Alpha  occ. eigenvalues --  -10.29267 -10.29258 -10.28817 -10.28602 -10.28575
 Alpha  occ. eigenvalues --  -10.28545 -10.28443 -10.28251 -10.28179 -10.27984
 Alpha  occ. eigenvalues --  -10.27869 -10.27856 -10.27805 -10.27661 -10.27648
 Alpha  occ. eigenvalues --  -10.27593 -10.27512 -10.27509 -10.27487 -10.27340
 Alpha  occ. eigenvalues --  -10.27326 -10.27319 -10.27276 -10.27234 -10.27090
 Alpha  occ. eigenvalues --  -10.26943 -10.26773 -10.26569 -10.26456 -10.26386
 Alpha  occ. eigenvalues --  -10.26290 -10.26265 -10.26116 -10.25944 -10.25916
 Alpha  occ. eigenvalues --  -10.25838 -10.25773 -10.25763 -10.25565 -10.24951
 Alpha  occ. eigenvalues --  -10.24943 -10.24908 -10.24885 -10.24733 -10.24561
 Alpha  occ. eigenvalues --  -10.24502  -3.16627  -3.16243  -1.91509  -1.91125
 Alpha  occ. eigenvalues --   -1.91095  -1.90937  -1.90714  -1.90551  -1.16714
 Alpha  occ. eigenvalues --   -1.16564  -1.08696  -1.08560  -1.07301  -1.06860
 Alpha  occ. eigenvalues --   -1.06797  -1.06725  -1.04662  -1.04335  -1.03854
 Alpha  occ. eigenvalues --   -1.03495  -1.03321  -1.02865  -1.02499  -1.01943
 Alpha  occ. eigenvalues --   -0.92053  -0.91843  -0.89648  -0.89311  -0.89257
 Alpha  occ. eigenvalues --   -0.88998  -0.88414  -0.88000  -0.87947  -0.87755
 Alpha  occ. eigenvalues --   -0.87666  -0.87518  -0.87340  -0.86973  -0.85058
 Alpha  occ. eigenvalues --   -0.84846  -0.84080  -0.83657  -0.83049  -0.82760
 Alpha  occ. eigenvalues --   -0.82727  -0.82499  -0.81670  -0.81476  -0.80679
 Alpha  occ. eigenvalues --   -0.80303  -0.78867  -0.78492  -0.77316  -0.77023
 Alpha  occ. eigenvalues --   -0.76990  -0.76735  -0.76000  -0.75699  -0.75013
 Alpha  occ. eigenvalues --   -0.74559  -0.72862  -0.72544  -0.71761  -0.71387
 Alpha  occ. eigenvalues --   -0.70069  -0.69545  -0.68950  -0.68677  -0.67725
 Alpha  occ. eigenvalues --   -0.67443  -0.67290  -0.67060  -0.65366  -0.65128
 Alpha  occ. eigenvalues --   -0.64946  -0.64718  -0.64617  -0.64504  -0.64388
 Alpha  occ. eigenvalues --   -0.64007  -0.62388  -0.62153  -0.60525  -0.60170
 Alpha  occ. eigenvalues --   -0.59877  -0.59647  -0.59080  -0.58825  -0.58593
 Alpha  occ. eigenvalues --   -0.58269  -0.57665  -0.57443  -0.57409  -0.57062
 Alpha  occ. eigenvalues --   -0.56386  -0.56068  -0.56060  -0.55769  -0.55598
 Alpha  occ. eigenvalues --   -0.55459  -0.55319  -0.55066  -0.54637  -0.54313
 Alpha  occ. eigenvalues --   -0.53966  -0.53762  -0.53387  -0.53294  -0.53072
 Alpha  occ. eigenvalues --   -0.53008  -0.52999  -0.52823  -0.52763  -0.52604
 Alpha  occ. eigenvalues --   -0.52520  -0.52216  -0.51992  -0.51779  -0.51684
 Alpha  occ. eigenvalues --   -0.51521  -0.51291  -0.51062  -0.50632  -0.50320
 Alpha  occ. eigenvalues --   -0.50159  -0.49990  -0.49819  -0.49638  -0.49588
 Alpha  occ. eigenvalues --   -0.49338  -0.49290  -0.49167  -0.49067  -0.48960
 Alpha  occ. eigenvalues --   -0.48676  -0.48568  -0.48521  -0.48424  -0.48198
 Alpha  occ. eigenvalues --   -0.48142  -0.47780  -0.47437  -0.47378  -0.46940
 Alpha  occ. eigenvalues --   -0.46897  -0.46628  -0.46543  -0.46451  -0.46397
 Alpha  occ. eigenvalues --   -0.46259  -0.46111  -0.45905  -0.45903  -0.45691
 Alpha  occ. eigenvalues --   -0.45321  -0.44952  -0.44662  -0.44593  -0.44375
 Alpha  occ. eigenvalues --   -0.44322  -0.44255  -0.44164  -0.44092  -0.43981
 Alpha  occ. eigenvalues --   -0.43906  -0.43802  -0.43582  -0.43476  -0.43427
 Alpha  occ. eigenvalues --   -0.43216  -0.43118  -0.42825  -0.42821  -0.42765
 Alpha  occ. eigenvalues --   -0.42739  -0.42357  -0.42132  -0.41797  -0.41791
 Alpha  occ. eigenvalues --   -0.41614  -0.41517  -0.41300  -0.41227  -0.40969
 Alpha  occ. eigenvalues --   -0.40903  -0.40807  -0.40690  -0.40565  -0.40539
 Alpha  occ. eigenvalues --   -0.40304  -0.40282  -0.40088  -0.39618  -0.39221
 Alpha  occ. eigenvalues --   -0.38593  -0.38125  -0.37825  -0.37512  -0.37434
 Alpha  occ. eigenvalues --   -0.37338  -0.37084  -0.37044  -0.36809  -0.36654
 Alpha  occ. eigenvalues --   -0.36293  -0.36032  -0.34373  -0.34091  -0.33856
 Alpha  occ. eigenvalues --   -0.33760  -0.33274  -0.33013  -0.31430  -0.31124
 Alpha  occ. eigenvalues --   -0.31104  -0.30806  -0.30099  -0.29853  -0.29527
 Alpha  occ. eigenvalues --   -0.29399  -0.29177  -0.29072  -0.24168  -0.23871
 Alpha  occ. eigenvalues --   -0.21213  -0.20952
 Alpha virt. eigenvalues --   -0.08855  -0.08636  -0.01841  -0.01507  -0.00133
 Alpha virt. eigenvalues --    0.00124   0.02118   0.02343   0.03010   0.03384
 Alpha virt. eigenvalues --    0.04635   0.04893   0.05017   0.05259   0.06100

 Mulliken charges:
               1
     1  Mg   0.838628
     2  C   -0.002910
     3  C   -0.093588
     4  C   -0.046339
     5  C   -0.064111
     6  N   -0.256729
     7  C   -0.052459
     8  C   -0.014022
     9  C   -0.087066
    10  C    0.046257
    11  C    0.104729
    12  C    0.053379
    13  C   -0.071762
    14  H    0.035579
    15  N   -0.433180
    16  C    0.168406
    17  C   -0.176645
    18  C   -0.003988
    19  C    0.148626
    20  C    0.109947
    21  C    0.011925
    22  O   -0.250441
    23  C    0.062420
    24  N   -0.341010
    25  C    0.041221
    26  C   -0.028133
    27  C   -0.023796
    28  C    0.074424
    29  C    0.076170
    30  C    0.035339
    31  C   -0.004323
    32  N   -0.310490
    33  C    0.080287
    34  C   -0.169622
    35  C    0.008534
    36  C    0.082944
    37  C    0.127299
    38  C    0.046220
    39  O   -0.188144
    40  C   -0.005411
    41  C    0.213075
    42  O   -0.257451
    43  O   -0.304630
    44  C    0.157776
    45  H   -0.017147
    46  H   -0.017265
    47  H   -0.041765
    48  H    0.001058
    49  H   -0.003643
    50  H    0.025513
    51  H    0.016460
    52  H    0.016988
    53  H    0.011514
    54  H    0.043705
    55  H    0.018081
    56  H    0.018416
    57  H    0.006213
    58  H    0.027012
    59  H    0.040703
    60  H    0.037754
    61  H    0.035500
    62  H    0.032381
    63  H    0.015542
    64  H    0.009690
    65  H    0.022902
    66  H    0.013007
    67  H    0.004890
    68  H    0.005846
    69  H    0.004936
    70  H    0.007445
    71  H    0.016440
    72  H    0.029911
    73  H    0.047928
    74  H    0.008766
    75  H    0.046111
    76  H    0.035354
    77  H    0.043211
    78  H    0.046449
    79  H    0.053159
    80  Mg   0.838034
    81  C   -0.017213
    82  C   -0.088009
    83  C   -0.044735
    84  C   -0.064445
    85  N   -0.254690
    86  C   -0.049947
    87  C   -0.015107
    88  C   -0.090503
    89  C    0.046014
    90  C    0.114511
    91  C    0.062549
    92  C   -0.077736
    93  H    0.034241
    94  N   -0.423666
    95  C    0.163410
    96  C   -0.174568
    97  C   -0.007263
    98  C    0.152288
    99  C    0.099392
   100  C    0.015761
   101  O   -0.252289
   102  C    0.061218
   103  N   -0.350032
   104  C    0.038523
   105  C   -0.020570
   106  C   -0.034306
   107  C    0.088988
   108  C    0.072463
   109  C    0.034681
   110  C   -0.007538
   111  N   -0.323912
   112  C    0.078275
   113  C   -0.163656
   114  C    0.001669
   115  C    0.096189
   116  C    0.131666
   117  C    0.041630
   118  O   -0.189324
   119  C    0.001184
   120  C    0.211151
   121  O   -0.251095
   122  O   -0.305724
   123  C    0.152180
   124  H   -0.019906
   125  H   -0.014509
   126  H   -0.040996
   127  H   -0.000800
   128  H   -0.004672
   129  H    0.022525
   130  H    0.014679
   131  H    0.016925
   132  H    0.013787
   133  H    0.037401
   134  H    0.021025
   135  H    0.019504
   136  H    0.008450
   137  H    0.026052
   138  H    0.039547
   139  H    0.038149
   140  H    0.036457
   141  H    0.033469
   142  H    0.013826
   143  H    0.013071
   144  H    0.025307
   145  H    0.015134
   146  H    0.008556
   147  H    0.006451
   148  H    0.002764
   149  H    0.011037
   150  H    0.017180
   151  H    0.029819
   152  H    0.045394
   153  H    0.008377
   154  H    0.045679
   155  H    0.034207
   156  H    0.043343
   157  H    0.049682
   158  H    0.053393
 Sum of Mulliken charges =  -0.00000

 Dipole moment (field-independent basis, Debye):
    X=              3.4469    Y=              3.5067    Z=              0.8444  Tot=              4.9891
 Quadrupole moment (field-independent basis, Debye-Ang):
   XX=           -523.6028   YY=           -534.8988   ZZ=           -461.2948
   XY=             16.6223   XZ=            -50.9130   YZ=             30.7131

 Normal termination of Gaussian 16 at Fri Sep 10 15:51:55 2021.
