 Gaussian 16, Revision A.03,
 Gaussian 16:  ES64L-G16RevA.03 25-Dec-2016

 -----------------------------------
 #p cam-b3lyp/Def2SVP td=(nstates=5)
 -----------------------------------

 --------------------------------
 TDDFT excited states in gaussian
 --------------------------------
 Symbolic Z-matrix:
 Charge =  0 Multiplicity = 1

                         Standard orientation:
 ---------------------------------------------------------------------
 Center     Atomic      Atomic             Coordinates (Angstroms)
 Number     Number       Type             X           Y           Z
 ---------------------------------------------------------------------
      1         12           0        7.668867   -0.878982    0.127937
      2          6           0        7.988287    2.109232   -1.816482
      3          6           0        8.554598    0.976110    2.851386
      4          6           0        7.836433   -3.581530    1.778626
      5          6           0        7.926055   -2.668904   -2.851273
      6          7           0        8.180147    1.262268    0.360936
      7          6           0        8.206961    2.313532   -0.452265
      8          6           0        8.414801    3.665900    0.292905
      9          6           0        9.131522    3.120771    1.608634
     10          6           0        8.561942    1.713276    1.630090
     11          6           0       10.649301    3.034595    1.484438
     12          6           0        7.059247    4.373315    0.630198
     13          6           0        7.176144    5.838480    1.060293
     14          1           0        6.133069    6.770998    0.660603
     15          7           0        7.648746   -1.192268    2.078398
     16          6           0        8.028053   -0.319653    3.042739
     17          6           0        7.827749   -1.021240    4.328949
     18          6           0        7.481240   -2.437565    4.025556
     19          6           0        7.669706   -2.467285    2.597629
     20          6           0        7.920681   -0.341186    5.660355
     21          6           0        7.059011   -3.585262    4.887326
     22          8           0        7.031923   -4.787621    4.453537
     23          6           0        6.758871   -3.273117    6.296412
     24          7           0        8.074197   -2.852932   -0.416916
     25          6           0        8.026090   -3.841025    0.483273
     26          6           0        8.069531   -5.185979   -0.179412
     27          6           0        7.912094   -4.912799   -1.744768
     28          6           0        7.886086   -3.364715   -1.712713
     29          6           0        9.337937   -6.013861    0.069122
     30          6           0        6.765415   -5.654755   -2.476238
     31          6           0        5.428998   -5.139331   -1.991032
     32          7           0        7.736177   -0.398225   -1.987574
     33          6           0        7.867874   -1.300095   -3.053388
     34          6           0        7.974742   -0.498882   -4.286557
     35          6           0        7.914049    0.822388   -3.847915
     36          6           0        7.804298    0.845534   -2.428158
     37          6           0        8.166270   -1.011971   -5.599756
     38          6           0        7.941168    2.220419   -4.246201
     39          8           0        7.926011    2.815239   -5.324835
     40          6           0        8.112966    3.111054   -2.937353
     41          6           0        7.098330    4.219730   -3.005615
     42          8           0        5.876983    3.974697   -2.930543
     43          8           0        7.724936    5.402358   -2.909201
     44          6           0        6.772336    6.544165   -2.940572
     45          1           0        9.047929    1.401391    3.727573
     46          1           0        7.788517   -4.540515    2.298712
     47          1           0        7.923700   -3.159791   -3.826198
     48          1           0        9.067060    4.372338   -0.220835
     49          1           0        8.820998    3.668819    2.497982
     50          1           0       10.978004    3.240336    0.465838
     51          1           0       10.907143    2.014256    1.768901
     52          1           0       11.135115    3.681328    2.215532
     53          1           0        6.647378    3.944139    1.543562
     54          1           0        6.365672    4.297867   -0.208007
     55          1           0        8.161057    6.244646    0.828162
     56          1           0        7.114969    5.881123    2.147785
     57          1           0        8.351756    0.655254    5.571884
     58          1           0        8.645474   -0.899066    6.252937
     59          1           0        6.961512   -0.319446    6.177902
     60          1           0        7.640937   -2.834741    6.763674
     61          1           0        6.388234   -4.198008    6.736929
     62          1           0        5.981850   -2.508925    6.331002
     63          1           0        7.246703   -5.814914    0.157961
     64          1           0        8.807153   -5.192646   -2.300852
     65          1           0        9.142498   -6.994992    0.502584
     66          1           0       10.001931   -5.430159    0.706063
     67          1           0        9.962262   -6.168830   -0.810435
     68          1           0        6.799086   -6.720236   -2.251377
     69          1           0        6.802998   -5.543152   -3.559927
     70          1           0        5.261077   -5.716054   -1.082172
     71          1           0        4.652690   -5.340409   -2.730034
     72          1           0        5.487613   -4.089148   -1.704383
     73          1           0        7.493868   -0.450025   -6.247877
     74          1           0        7.956091   -2.080450   -5.641964
     75          1           0        9.221884   -0.787709   -5.752204
     76          1           0        9.134517    3.489799   -2.947785
     77          1           0        7.084449    7.200343   -3.753131
     78          1           0        6.753836    6.960055   -1.933052
     79          1           0        5.751096    6.311703   -3.244494
     80         12           0       -8.199087   -0.414606   -0.130743
     81          6           0       -5.821703    1.903613    1.230494
     82          6           0      -10.606927    1.920021    0.490910
     83          6           0      -10.371713   -2.594359   -0.902632
     84          6           0       -5.848269   -2.929625    0.411504
     85          7           0       -8.102643    1.612313    0.749344
     86          6           0       -7.135981    2.412388    1.173374
     87          6           0       -7.591448    3.863881    1.482049
     88          6           0       -9.145691    3.573590    1.763001
     89          6           0       -9.313895    2.309116    0.923075
     90          6           0       -9.440639    3.226697    3.212823
     91          6           0       -7.398891    4.824208    0.256204
     92          6           0       -7.531248    6.314096    0.579441
     93          1           0       -6.681225    7.260177   -0.138090
     94          7           0      -10.101809   -0.202428   -0.653433
     95          6           0      -10.924552    0.818421   -0.333668
     96          6           0      -12.224297    0.493037   -0.941086
     97          6           0      -12.147098   -0.881625   -1.505934
     98          6           0      -10.848808   -1.296424   -1.013515
     99          6           0      -13.356335    1.476042   -1.016055
    100          6           0      -13.091652   -1.693784   -2.339260
    101          8           0      -12.921937   -2.951791   -2.516576
    102          6           0      -14.271973   -0.991988   -2.864422
    103          7           0       -8.207687   -2.491514   -0.037324
    104          6           0       -9.259377   -3.199344   -0.485482
    105          6           0       -8.929465   -4.670369   -0.572875
    106          6           0       -7.353868   -4.773139   -0.318870
    107          6           0       -7.047112   -3.287752   -0.027454
    108          6           0       -9.664087   -5.576705    0.414693
    109          6           0       -6.512594   -5.503012   -1.401554
    110          6           0       -6.510233   -4.699302   -2.681962
    111          7           0       -6.133704   -0.503971    0.497152
    112          6           0       -5.347938   -1.662525    0.682659
    113          6           0       -4.046248   -1.223351    1.225939
    114          6           0       -4.174290    0.169049    1.341354
    115          6           0       -5.471779    0.567226    0.920078
    116          6           0       -2.964736   -2.075915    1.585926
    117          6           0       -3.510560    1.391418    1.733774
    118          8           0       -2.369834    1.685006    2.089146
    119          6           0       -4.591452    2.554970    1.798675
    120          6           0       -4.032729    3.748910    1.074215
    121          8           0       -3.822580    3.703594   -0.150692
    122          8           0       -4.043370    4.810551    1.900768
    123          6           0       -3.508616    6.022082    1.223970
    124          1           0      -11.466435    2.486423    0.850523
    125          1           0      -11.044792   -3.376396   -1.261602
    126          1           0       -5.027583   -3.642642    0.515203
    127          1           0       -7.132008    4.307758    2.357070
    128          1           0       -9.772803    4.373423    1.377812
    129          1           0       -8.536366    3.116661    3.792754
    130          1           0       -9.989026    2.294159    3.186477
    131          1           0      -10.121820    3.964757    3.645960
    132          1           0       -8.247790    4.704523   -0.429211
    133          1           0       -6.458847    4.641408   -0.227029
    134          1           0       -7.494754    6.506575    1.658596
    135          1           0       -8.528594    6.646566    0.281474
    136          1           0      -13.177553    2.345374   -0.371314
    137          1           0      -14.233216    0.988002   -0.577005
    138          1           0      -13.591737    1.769984   -2.041168
    139          1           0      -14.846718   -0.582868   -2.036930
    140          1           0      -14.778986   -1.713849   -3.507638
    141          1           0      -13.934028   -0.139811   -3.464589
    142          1           0       -9.152510   -5.058799   -1.559021
    143          1           0       -7.125090   -5.327972    0.602896
    144          1           0      -10.236869   -6.385097   -0.077738
    145          1           0      -10.317058   -4.962768    1.020702
    146          1           0       -9.032486   -6.051381    1.163664
    147          1           0       -6.962045   -6.469476   -1.642587
    148          1           0       -5.488011   -5.690964   -1.098397
    149          1           0       -7.449070   -4.994225   -3.160176
    150          1           0       -5.653305   -4.963346   -3.298406
    151          1           0       -6.570293   -3.624996   -2.472398
    152          1           0       -2.063035   -1.610098    1.211166
    153          1           0       -3.094851   -3.076552    1.179043
    154          1           0       -3.058270   -2.060297    2.675088
    155          1           0       -4.781672    2.767055    2.851488
    156          1           0       -2.687527    6.397401    1.842533
    157          1           0       -4.377322    6.691621    1.079651
    158          1           0       -3.010324    5.885235    0.271377
 ---------------------------------------------------------------------

 SCF Done:  E(RCAM-B3LYP) =  -4069.81151437     A.U. after   19 cycles

 Excitation energies and oscillator strengths:

 Excited State   1:      Singlet-A      1.6742 eV  740.55 nm  f=0.3245  <S**2>=0.000
     309 -> 315        0.15771
     311 -> 313        0.62465
     312 -> 314        0.28388
 This state for optimization and/or second-order correction.
 Total Energy, E(TD-HF/TD-DFT) =  -4069.74998796
 Copying the excited state density for this state as the 1-particle RhoCI density.

 Excited State   2:      Singlet-A      1.6812 eV  737.47 nm  f=0.4589  <S**2>=0.000
     310 -> 316        0.15995
     311 -> 313       -0.28370
     312 -> 314        0.62417

 Excited State   3:      Singlet-A      2.1854 eV  567.34 nm  f=0.0442  <S**2>=0.000
     309 -> 313        0.61424
     310 -> 314       -0.18947
     311 -> 315       -0.26064

 Excited State   4:      Singlet-A      2.1923 eV  565.54 nm  f=0.1474  <S**2>=0.000
     309 -> 313        0.18832
     310 -> 314        0.61231
     312 -> 316       -0.26584

 Excited State   5:      Singlet-A      2.7247 eV  455.03 nm  f=0.0000  <S**2>=0.000
     312 -> 313        0.70680

 The electronic state is 1-A.
 Alpha  occ. eigenvalues --  -46.87594 -46.87523 -19.26268 -19.26002 -19.19063
 Alpha  occ. eigenvalues --  -19.18715 -19.18654 -19.18571 -19.17977 -19.17909
 Alpha  occ. eigenvalues --  -14.42434 -14.42181 -14.41294 -14.41191 -14.39286
 Alpha  occ. eigenvalues --  -14.39133 -14.38530 -14.38316 -10.38998 -10.38781
 Alpha  occ. eigenvalues --  -10.35332 -10.35205 -10.34154 -10.34127 -10.31680
 Alpha  occ. eigenvalues --  -10.31410 -10.31244 -10.31138 -10.30962 -10.30637
 Alpha  occ. eigenvalues --  -10.30329 -10.30303 -10.30292 -10.30246 -10.30079
 Alpha  occ. eigenvalues --  -10.29958 -10.29828 -10.29672 -10.29372 -10.29371
 Alpha  occ. eigenvalues --  -10.29333 -10.28993 -10.28663 -10.28598 -10.28471
 Alpha  occ. eigenvalues --  -10.28338 -10.28247 -10.28095 -10.28087 -10.27932
 Alpha  occ. eigenvalues --  -10.27853 -10.27607 -10.27532 -10.27464 -10.27456
 Alpha  occ. eigenvalues --  -10.27418 -10.27410 -10.27400 -10.27322 -10.27316
 Alpha  occ. eigenvalues --  -10.27284 -10.27235 -10.27220 -10.27136 -10.26981
 Alpha  occ. eigenvalues --  -10.26890 -10.26628 -10.26386 -10.26361 -10.26169
 Alpha  occ. eigenvalues --  -10.26070 -10.26000 -10.25986 -10.25982 -10.25868
 Alpha  occ. eigenvalues --  -10.25768 -10.25766 -10.25608 -10.25348 -10.25245
 Alpha  occ. eigenvalues --  -10.24803 -10.24655 -10.24625 -10.24570 -10.24533
 Alpha  occ. eigenvalues --  -10.24475  -3.16343  -3.16265  -1.91226  -1.91146
 Alpha  occ. eigenvalues --   -1.90814  -1.90733  -1.90651  -1.90576  -1.16559
 Alpha  occ. eigenvalues --   -1.16347  -1.08581  -1.08365  -1.06973  -1.06907
 Alpha  occ. eigenvalues --   -1.06850  -1.06342  -1.04431  -1.04312  -1.03598
 Alpha  occ. eigenvalues --   -1.03501  -1.02973  -1.02969  -1.02148  -1.02045
 Alpha  occ. eigenvalues --   -0.91919  -0.91706  -0.89428  -0.89280  -0.89094
 Alpha  occ. eigenvalues --   -0.88917  -0.88157  -0.88053  -0.87721  -0.87620
 Alpha  occ. eigenvalues --   -0.87615  -0.87408  -0.87058  -0.87015  -0.84939
 Alpha  occ. eigenvalues --   -0.84713  -0.83811  -0.83708  -0.82871  -0.82723
 Alpha  occ. eigenvalues --   -0.82592  -0.82387  -0.81525  -0.81321  -0.80375
 Alpha  occ. eigenvalues --   -0.80334  -0.78570  -0.78539  -0.77082  -0.76967
 Alpha  occ. eigenvalues --   -0.76835  -0.76675  -0.75776  -0.75664  -0.74741
 Alpha  occ. eigenvalues --   -0.74666  -0.72632  -0.72519  -0.71520  -0.71422
 Alpha  occ. eigenvalues --   -0.69692  -0.69684  -0.68766  -0.68610  -0.67536
 Alpha  occ. eigenvalues --   -0.67383  -0.67138  -0.66943  -0.65209  -0.65015
 Alpha  occ. eigenvalues --   -0.64704  -0.64594  -0.64587  -0.64363  -0.64138
 Alpha  occ. eigenvalues --   -0.64028  -0.62205  -0.62031  -0.60277  -0.60190
 Alpha  occ. eigenvalues --   -0.59736  -0.59537  -0.58927  -0.58731  -0.58358
 Alpha  occ. eigenvalues --   -0.58246  -0.57479  -0.57315  -0.57170  -0.57058
 Alpha  occ. eigenvalues --   -0.56137  -0.56053  -0.55816  -0.55707  -0.55386
 Alpha  occ. eigenvalues --   -0.55267  -0.55180  -0.55098  -0.54417  -0.54272
 Alpha  occ. eigenvalues --   -0.53854  -0.53622  -0.53162  -0.53076  -0.53047
 Alpha  occ. eigenvalues --   -0.52958  -0.52831  -0.52649  -0.52610  -0.52498
 Alpha  occ. eigenvalues --   -0.52332  -0.52213  -0.51807  -0.51666  -0.51597
 Alpha  occ. eigenvalues --   -0.51345  -0.51132  -0.50940  -0.50417  -0.50320
 Alpha  occ. eigenvalues --   -0.49921  -0.49805  -0.49802  -0.49664  -0.49426
 Alpha  occ. eigenvalues --   -0.49255  -0.49136  -0.49043  -0.48955  -0.48839
 Alpha  occ. eigenvalues --   -0.48490  -0.48336  -0.48312  -0.48276  -0.48224
 Alpha  occ. eigenvalues --   -0.48193  -0.47532  -0.47440  -0.47056  -0.47047
 Alpha  occ. eigenvalues --   -0.46644  -0.46546  -0.46494  -0.46285  -0.46203
 Alpha  occ. eigenvalues --   -0.46105  -0.46016  -0.45912  -0.45750  -0.45566
 Alpha  occ. eigenvalues --   -0.45147  -0.44971  -0.44448  -0.44413  -0.44320
 Alpha  occ. eigenvalues --   -0.44256  -0.44066  -0.44012  -0.43899  -0.43875
 Alpha  occ. eigenvalues --   -0.43832  -0.43761  -0.43482  -0.43322  -0.43234
 Alpha  occ. eigenvalues --   -0.43130  -0.42859  -0.42828  -0.42773  -0.42489
 Alpha  occ. eigenvalues --   -0.42450  -0.42398  -0.41898  -0.41763  -0.41602
 Alpha  occ. eigenvalues --   -0.41447  -0.41397  -0.41268  -0.40929  -0.40889
 Alpha  occ. eigenvalues --   -0.40662  -0.40638  -0.40613  -0.40570  -0.40430
 Alpha  occ. eigenvalues --   -0.40334  -0.40168  -0.39943  -0.39359  -0.39219
 Alpha  occ. eigenvalues --   -0.38289  -0.38232  -0.37592  -0.37468  -0.37202
 Alpha  occ. eigenvalues --   -0.37136  -0.37076  -0.36987  -0.36689  -0.36441
 Alpha  occ. eigenvalues --   -0.36147  -0.35929  -0.34186  -0.34022  -0.33768
 Alpha  occ. eigenvalues --   -0.33471  -0.33108  -0.32920  -0.31213  -0.31101
 Alpha  occ. eigenvalues --   -0.30908  -0.30774  -0.29881  -0.29767  -0.29261
 Alpha  occ. eigenvalues --   -0.29185  -0.29141  -0.29057  -0.23970  -0.23815
 Alpha  occ. eigenvalues --   -0.21051  -0.20866
 Alpha virt. eigenvalues --   -0.08726  -0.08512  -0.01619  -0.01489   0.00034
 Alpha virt. eigenvalues --    0.00202   0.02278   0.02459   0.03310   0.03475
 Alpha virt. eigenvalues --    0.04790   0.04984   0.05253   0.05390   0.06241

 Mulliken charges:
               1
     1  Mg   0.840382
     2  C   -0.002294
     3  C   -0.093608
     4  C   -0.046058
     5  C   -0.064239
     6  N   -0.256710
     7  C   -0.052139
     8  C   -0.014242
     9  C   -0.087129
    10  C    0.046725
    11  C    0.104943
    12  C    0.053330
    13  C   -0.071594
    14  H    0.036182
    15  N   -0.433022
    16  C    0.168921
    17  C   -0.176859
    18  C   -0.003945
    19  C    0.148990
    20  C    0.110251
    21  C    0.012482
    22  O   -0.250265
    23  C    0.062269
    24  N   -0.341170
    25  C    0.041243
    26  C   -0.028024
    27  C   -0.023897
    28  C    0.074951
    29  C    0.076366
    30  C    0.035243
    31  C   -0.004459
    32  N   -0.310485
    33  C    0.080656
    34  C   -0.169723
    35  C    0.008271
    36  C    0.083467
    37  C    0.127273
    38  C    0.046385
    39  O   -0.188765
    40  C   -0.005522
    41  C    0.212537
    42  O   -0.255562
    43  O   -0.305209
    44  C    0.157731
    45  H   -0.017991
    46  H   -0.017369
    47  H   -0.041971
    48  H    0.000454
    49  H   -0.003959
    50  H    0.025189
    51  H    0.016165
    52  H    0.016189
    53  H    0.012455
    54  H    0.045274
    55  H    0.017007
    56  H    0.017860
    57  H    0.005766
    58  H    0.026154
    59  H    0.040278
    60  H    0.036951
    61  H    0.035042
    62  H    0.032487
    63  H    0.016227
    64  H    0.009014
    65  H    0.022692
    66  H    0.012444
    67  H    0.004355
    68  H    0.005656
    69  H    0.004496
    70  H    0.008341
    71  H    0.017725
    72  H    0.030083
    73  H    0.047658
    74  H    0.008797
    75  H    0.045502
    76  H    0.034603
    77  H    0.042213
    78  H    0.046186
    79  H    0.054353
    80  Mg   0.838046
    81  C   -0.016651
    82  C   -0.087837
    83  C   -0.045532
    84  C   -0.064916
    85  N   -0.254534
    86  C   -0.049875
    87  C   -0.015061
    88  C   -0.090490
    89  C    0.045737
    90  C    0.114450
    91  C    0.062530
    92  C   -0.077862
    93  H    0.035100
    94  N   -0.423444
    95  C    0.162915
    96  C   -0.174746
    97  C   -0.007861
    98  C    0.152094
    99  C    0.099436
   100  C    0.015553
   101  O   -0.253281
   102  C    0.061193
   103  N   -0.350082
   104  C    0.037473
   105  C   -0.019763
   106  C   -0.034856
   107  C    0.088994
   108  C    0.073715
   109  C    0.034723
   110  C   -0.007680
   111  N   -0.324207
   112  C    0.078625
   113  C   -0.162717
   114  C    0.002320
   115  C    0.096457
   116  C    0.131305
   117  C    0.042856
   118  O   -0.187710
   119  C    0.000692
   120  C    0.211351
   121  O   -0.250007
   122  O   -0.306086
   123  C    0.151918
   124  H   -0.019872
   125  H   -0.015679
   126  H   -0.040329
   127  H   -0.000910
   128  H   -0.004393
   129  H    0.022226
   130  H    0.014365
   131  H    0.016047
   132  H    0.014008
   133  H    0.038095
   134  H    0.020435
   135  H    0.019484
   136  H    0.008639
   137  H    0.025946
   138  H    0.039772
   139  H    0.038131
   140  H    0.036302
   141  H    0.033965
   142  H    0.014404
   143  H    0.012313
   144  H    0.025035
   145  H    0.011509
   146  H    0.005551
   147  H    0.006101
   148  H    0.003755
   149  H    0.010830
   150  H    0.018133
   151  H    0.030326
   152  H    0.046813
   153  H    0.008719
   154  H    0.046455
   155  H    0.034458
   156  H    0.043282
   157  H    0.049190
   158  H    0.054611
 Sum of Mulliken charges =  -0.00000

 Dipole moment (field-independent basis, Debye):
    X=             -2.0705    Y=              2.3659    Z=              5.2293  Tot=              6.1017
 Quadrupole moment (field-independent basis, Debye-Ang):
   XX=           -439.1551   YY=           -470.1751   ZZ=           -518.8195
   XY=            -31.2707   XZ=             15.1320   YZ=             33.9093

 Normal termination of Gaussian 16 at Sun Sep 12 01:27:02 2021.
